/*--------------------------------*- C++ -*----------------------------------*\
  =========                 |
  \\      /  F ield         | OpenFOAM: The Open Source CFD Toolbox
   \\    /   O peration     | Website:  https://openfoam.org
    \\  /    A nd           | Version:  7
     \\/     M anipulation  |
\*---------------------------------------------------------------------------*/
FoamFile
{
    version     2.0;
    format      ascii;
    class       surfaceScalarField;
    location    "0.29";
    object      phi;
}
// * * * * * * * * * * * * * * * * * * * * * * * * * * * * * * * * * * * * * //

dimensions      [0 3 -1 0 0 0 0];

internalField   nonuniform List<scalar> 
3784
(
-0.00242856
0.00242856
-0.00233297
-9.55855e-05
-0.00102819
-0.00130479
-0.000333427
-0.000694757
-0.000182024
-0.000151404
0.000272132
-0.000454156
0.000898345
-0.000626213
0.00126309
-0.000364746
0.00100763
0.000255456
0.000157334
0.000850301
-0.000697598
0.000854933
-0.000782348
8.47463e-05
0.000212436
-0.000994784
0.00168773
-0.00147529
0.00233703
-0.000649307
0.0014397
0.000897334
2.44616e-05
0.00141524
-0.000773286
0.000797748
-0.000613507
-0.00015978
0.000642236
-0.00125574
0.00177497
-0.00113273
0.00116722
0.00060775
-0.000418385
0.0015856
-0.00123674
0.000818353
-0.00067394
-0.000562798
0.000695659
-0.0013696
0.00152509
-0.000829432
0.000868753
0.000656339
-0.000614249
0.001483
-0.00154658
0.000932328
-0.00104143
-0.00050515
0.000503868
-0.0015453
0.00179849
-0.00129462
0.00153365
0.000264838
7.08534e-05
0.0014628
-0.00110537
0.00117622
-0.00098617
-0.000119201
0.000281777
-0.00126795
0.00157744
-0.00129566
0.001521
5.64364e-05
0.000113472
0.00140753
-0.00122006
0.00133353
-0.00121375
-6.31587e-06
-0.00121375
-0.00337246
0.00580102
-0.0034513
-1.67385e-05
-0.00120481
-0.00355129
-0.000425636
-0.00147393
-0.000367874
-0.000209166
0.00020105
-0.00102308
0.000955733
-0.0013809
0.00136993
-0.000778947
0.00105348
0.000571915
0.000272316
0.00163146
-0.000566561
0.00169381
-0.00106329
0.000581476
4.17432e-05
-0.00209982
0.00206704
-0.00350059
0.00240189
-0.000984158
0.00135545
0.00194377
0.000183718
0.00258697
-0.00104481
0.00202628
-0.00106623
-0.000138359
0.000809776
-0.00313175
0.00199775
-0.00232071
0.00110895
0.00149655
-0.000238784
0.00293334
-0.00134525
0.00192482
-0.00107991
-0.000828138
0.000952786
-0.0034023
0.00181316
-0.00168981
0.000741937
0.00172756
-0.000455672
0.00268061
-0.00155332
0.00202997
-0.00152618
-0.000532287
0.000660305
-0.00373178
0.00214266
-0.00277698
0.0014001
0.00100741
0.000159578
0.00270332
-0.00109263
0.00242843
-0.00146171
0.000249879
0.000348419
-0.00307808
0.00198283
-0.00293008
0.00140713
0.000632137
0.000147493
0.00266717
-0.00111428
0.00259531
-0.00168842
0.000567829
-0.00290217
-0.00316964
0.00897066
-0.0037068
0.000520418
-0.00163052
-0.00562757
-0.000522266
-0.00258218
-0.000321345
-0.000410092
0.000259351
-0.00160378
0.00107703
-0.00219857
0.00148241
-0.00118432
0.00105083
0.00100349
0.000107892
0.0025744
-0.000867745
0.00266945
-0.00130858
0.00102231
8.21391e-05
-0.00349053
0.00228508
-0.00570353
0.00239215
-0.00109122
0.000897249
0.00343867
-0.000512168
0.00399639
-0.00155384
0.00306795
-0.00103237
-0.000659827
0.00124445
-0.00540856
0.00234458
-0.00342084
0.00117184
0.00266929
-0.000449683
0.00455486
-0.00170641
0.00318155
-0.00126542
-0.00126913
0.00112061
-0.00578832
0.0022337
-0.00280291
0.00114667
0.0028146
-0.000374823
0.0042021
-0.0017877
0.00344284
-0.00170679
-0.000613197
0.000782695
-0.00622126
0.0024041
-0.00439839
0.00145281
0.0019587
-0.000155427
0.00431155
-0.00156323
0.00383623
-0.00171102
0.000397667
0.000480619
-0.00526971
0.00229759
-0.00474704
0.00158452
0.0013452
-2.248e-05
0.00427417
-0.00153887
0.00411169
-0.00200852
0.00103748
-0.00491069
-0.00247782
0.0114485
-0.00338957
0.00143217
-0.00211321
-0.00690394
-0.00096006
-0.00373533
-0.000415127
-0.000955025
0.00013701
-0.00215592
0.000751215
-0.00281278
0.000992212
-0.00142532
0.000613501
0.0013822
-2.40282e-05
0.00321193
-0.000620946
0.00326637
-0.000837038
0.0012384
0.000183174
-0.00451074
0.00162451
-0.00714487
0.00141009
-0.000876805
0.000195415
0.00465335
-0.000738126
0.00492993
-0.00125254
0.00358236
-0.000557976
-0.00135439
0.0011269
-0.00709344
0.00163542
-0.00392936
0.000720481
0.00358423
-0.000294575
0.00556992
-0.00115399
0.00404097
-0.000842464
-0.00158066
0.000839002
-0.00746979
0.00167415
-0.00363806
0.00100104
0.00348771
-3.26732e-05
0.00523582
-0.00109844
0.00450861
-0.00111176
-0.000599883
0.000577975
-0.00791099
0.00159791
-0.00541832
0.000817392
0.00273922
-0.000294702
0.00542364
-0.0011898
0.00473133
-0.00115953
0.000367399
0.000426565
-0.00685581
0.00160536
-0.00592584
0.000990884
0.00195968
-0.000136924
0.00540198
-0.00113407
0.00510884
-0.00140601
0.00130942
-0.0063167
-0.00178456
0.013233
-0.00298683
0.00263444
-0.00248141
-0.00740936
-0.001434
-0.00478274
-0.000611482
-0.00177754
-0.000114804
-0.00265259
0.000256171
-0.00318376
0.000346913
-0.00151607
0.00010037
0.00162875
-0.000177461
0.00348976
-0.000386548
0.00347545
-0.000381943
0.00123379
0.000231095
-0.00512378
0.000884616
-0.00779838
0.000453625
-0.000445813
-0.000288909
0.00539588
-0.000747523
0.00538854
-0.000846106
0.00368095
-3.04479e-05
-0.00217005
0.000921277
-0.00804516
0.000836564
-0.00384465
0.000283692
0.00413711
-0.000134186
0.0059878
-0.000601473
0.00450826
-0.000408678
-0.00177346
0.000522773
-0.00840124
0.0010447
-0.00415998
0.000754411
0.003778
0.000204419
0.00578581
-0.000405013
0.00511804
-0.000505476
-0.000499421
0.000343433
-0.0087599
0.000756857
-0.00583175
0.000237411
0.00325867
-0.000328824
0.00598988
-0.000695853
0.00509836
-0.000582615
0.000254159
0.000344639
-0.00778306
0.000876085
-0.00645728
0.000392266
0.0024435
-0.000193292
0.00598753
-0.000641046
0.0055566
-0.000776861
0.00144523
-0.00709356
-0.0010089
0.014242
-0.00239465
0.00402018
-0.0026352
-0.00716881
-0.00183687
-0.00558106
-0.000908363
-0.00270606
-0.000492732
-0.00306823
-0.000368991
-0.00330749
-0.000397331
-0.00148773
-0.000418193
0.00164961
-0.000295944
0.00336752
-0.000119701
0.00329921
4.35876e-05
0.0010705
0.000217729
-0.00529792
0.000113652
-0.0076943
-0.000329378
-2.78134e-06
-0.000494633
0.00556114
-0.000504052
0.00539796
-0.000256255
0.00343315
0.000486639
-0.00291294
0.000609503
-0.00816803
1.7319e-05
-0.00325246
-0.000107798
0.00426223
2.47871e-05
0.00585521
-1.54046e-05
0.00454845
1.7506e-05
-0.00180637
0.000184395
-0.00856813
0.00029527
-0.00427086
0.000359459
0.00371381
0.000312469
0.0058328
0.000205729
0.00522478
9.66911e-05
-0.000390384
0.000111812
-0.00877502
-7.3296e-05
-0.00564664
-0.000238982
0.00342435
-0.000213933
0.00596483
-0.000125737
0.00501016
2.62983e-06
0.000125792
0.000228462
-0.00800889
0.000126741
-0.00635556
-0.0001339
0.00270414
-0.000165496
0.00601913
-0.000127326
0.00551842
-0.000151008
0.00146891
-0.00724457
-0.000124902
0.0143669
-0.00146795
0.00536322
-0.0024084
-0.00622835
-0.00205852
-0.00593094
-0.00124107
-0.00352352
-0.000917439
-0.00339186
-0.00100176
-0.00322317
-0.00107754
-0.00141195
-0.000831554
0.00140363
-0.000368736
0.0029047
0.000100666
0.00282981
0.000396774
0.000774399
0.000164075
-0.00506522
-0.000591384
-0.00693885
-0.000891607
0.000297441
-0.000477777
0.00514731
-4.58293e-05
0.00496601
0.000438566
0.00294876
0.000874539
-0.00334892
0.000230409
-0.00752389
-0.000659709
-0.00236234
-0.000410797
0.00401331
0.000181777
0.00526264
0.000521416
0.00420881
0.000425589
-0.00171054
-0.00013318
-0.00800936
-0.000466101
-0.00393794
-0.000139328
0.00338703
0.000325234
0.00536824
0.000702951
0.00484706
0.000634859
-0.000322294
-9.29302e-05
-0.00804723
-0.000757951
-0.00498162
-0.000570462
0.00323686
-4.8776e-06
0.00539924
0.000449392
0.00455589
0.000553579
2.16049e-05
7.19933e-05
-0.00752731
-0.000560222
-0.00572335
-0.000542478
0.0026864
-8.20994e-05
0.00555875
0.000352781
0.00508354
0.000465069
0.00135663
-0.0067795
0.00095074
0.0134161
-5.51936e-05
0.00636916
-0.0016607
-0.00462285
-0.00192616
-0.00566549
-0.00143321
-0.00401646
-0.00128624
-0.00353883
-0.00148756
-0.00302185
-0.00154399
-0.00135552
-0.0010847
0.000944336
-0.000385685
0.00220568
0.000228454
0.00221567
0.000656669
0.000346186
6.20373e-05
-0.00447058
-0.00117338
-0.00570343
-0.00124382
0.000367881
-0.000359651
0.00426315
0.000412797
0.00419357
0.00109734
0.00226421
0.00104731
-0.00329888
-0.000205265
-0.00627132
-0.00110661
-0.00146099
-0.000582385
0.00348909
0.000322445
0.00435781
0.000944923
0.00358633
0.000789601
-0.00155522
-0.00039414
-0.00682562
-0.00108175
-0.00325033
-0.000567439
0.00287273
0.000294745
0.00450606
0.00102948
0.00411233
0.00106743
-0.000360243
-0.000258339
-0.00672146
-0.00126035
-0.0039796
-0.000769047
0.00274556
0.000179624
0.00445057
0.000859086
0.00387642
0.000992897
-0.000112207
-0.000102466
-0.00643194
-0.00114203
-0.00468379
-0.000833407
0.00237778
8.50498e-06
0.00471684
0.000749755
0.00434229
0.000975166
0.00113121
-0.00580433
0.00201734
0.0113988
0.0017067
0.00667979
-0.000347408
-0.00256875
-0.00129989
-0.00471301
-0.0013158
-0.00400054
-0.00141023
-0.0034444
-0.00168546
-0.00274662
-0.00170098
-0.00134
-0.0011467
0.000390051
-0.000363483
0.00142247
0.000357229
0.00149495
0.000798159
-9.47499e-05
-7.62351e-05
-0.00359619
-0.00153628
-0.00424339
-0.00138864
0.000220249
-0.000271454
0.00314596
0.000744881
0.00317723
0.00149395
0.00151515
0.000966767
-0.0027717
-0.000646583
-0.00465797
-0.00129854
-0.000809034
-0.000589252
0.0027798
0.000452374
0.00331618
0.00127193
0.00276677
0.00101397
-0.00129725
-0.000590281
-0.00522137
-0.00145016
-0.00239045
-0.00078208
0.00220464
0.000289356
0.00343462
0.00124401
0.00315767
0.00129765
-0.000413887
-0.000372194
-0.00505162
-0.00152194
-0.00282986
-0.000860819
0.00208443
0.000264868
0.00332488
0.00112047
0.00302082
0.00125526
-0.000247001
-0.000250908
-0.00492577
-0.00152139
-0.00341332
-0.000966048
0.00182245
7.65283e-05
0.00367427
0.000970617
0.0034482
0.00133836
0.000763474
-0.00446598
0.00263
0.00876877
0.00323275
0.00607704
0.00125287
-0.000588865
-0.000203875
-0.00325627
-0.000796045
-0.00340837
-0.00119879
-0.00304166
-0.001551
-0.0023944
-0.00155778
-0.00133322
-0.00104066
-0.000127075
-0.000291577
0.000673384
0.000433175
0.000770205
0.000761401
-0.000422981
-0.000228023
-0.00260677
-0.00163874
-0.00283267
-0.00140646
-1.20231e-05
-0.000261059
0.00200056
0.00083279
0.00208338
0.00149991
0.000848026
0.000701215
-0.001973
-0.000941758
-0.003015
-0.00135368
-0.000397112
-0.000541306
0.00196743
0.00045275
0.00232213
0.00137221
0.00184731
0.00103899
-0.000964033
-0.000687669
-0.00349471
-0.00152606
-0.00155205
-0.000809307
0.00148788
0.00029573
0.00232959
0.00130418
0.00214922
0.00128962
-0.000399329
-0.000435106
-0.00332689
-0.0014982
-0.00176676
-0.000774823
0.00136105
0.000291868
0.00225819
0.00123928
0.00207341
0.00129789
-0.000305611
-0.000340257
-0.00328762
-0.00158014
-0.00217344
-0.000963305
0.00120561
0.000130478
0.00258048
0.00112658
0.0024521
0.00146616
0.000423898
-0.00299982
0.00255645
0.00621232
0.00378261
0.00485088
0.00251401
0.000679735
0.000983935
-0.00172619
4.17493e-06
-0.00242861
-0.000676459
-0.00236103
-0.00112722
-0.00194364
-0.00119348
-0.00126697
-0.000812171
-0.000508385
-0.000192861
5.40692e-05
0.000425417
0.000151927
0.000578139
-0.000575704
-0.000333688
-0.00169494
-0.0014562
-0.00171016
-0.00125831
-0.000209909
-0.000267847
0.00101011
0.000689586
0.00112595
0.00117042
0.000367188
0.000372848
-0.00117542
-0.00100561
-0.00163653
-0.0012385
-0.00016423
-0.000467811
0.00119675
0.000408895
0.00144543
0.00120803
0.00104817
0.000857561
-0.000613567
-0.000671369
-0.00196578
-0.00135313
-0.000870281
-0.00071923
0.000853974
0.000209631
0.00140072
0.00113554
0.00122332
0.00104436
-0.000308152
-0.00043829
-0.00184424
-0.00124531
-0.000959736
-0.000634359
0.000750091
0.000274296
0.00134954
0.00114456
0.00120315
0.00109647
-0.000257523
-0.000352134
-0.00183901
-0.00134845
-0.00117712
-0.000831825
0.000688986
0.000153462
0.0015952
0.00109686
0.00150871
0.00131585
0.000204916
-0.00168397
0.00207483
0.00413749
0.0034467
0.00347899
0.00288868
0.00123776
0.00177674
-0.000614251
0.000735134
-0.001387
-4.85764e-05
-0.00157732
-0.000553463
-0.00143876
-0.000709947
-0.00111048
-0.000502027
-0.000716306
-6.72148e-05
-0.000380744
0.000360255
-0.000275545
0.000361247
-0.0005767
-0.000323519
-0.00101017
-0.001066
-0.000967674
-0.000956157
-0.000319751
-0.000252191
0.000306142
0.000422707
0.000451052
0.000693388
9.65061e-05
8.50115e-05
-0.000567048
-0.000839039
-0.000712478
-0.000962221
-4.10446e-05
-0.000377656
0.000612181
0.000294531
0.000773236
0.000840682
0.000502017
0.000532599
-0.000305483
-0.000551736
-0.000881446
-0.00101965
-0.000402362
-0.000565397
0.000399716
0.000126461
0.000708864
0.000786627
0.000563152
0.000660731
-0.000182258
-0.000362107
-0.000821409
-0.000878058
-0.000443782
-0.000460559
0.000332592
0.000211936
0.000677044
0.000843177
0.000571908
0.000733058
-0.000147408
-0.000286935
-0.000819017
-0.00094831
-0.000515744
-0.000603895
0.000344574
0.000141121
0.000850182
0.000859733
0.000790093
0.000953852
0.000110801
-0.000730118
0.00129306
0.00284443
0.00243706
0.002335
0.00251214
0.00116268
0.00183764
6.02489e-05
0.00106207
-0.000611426
0.000401642
-0.000916889
-4.69798e-05
-0.000990133
-0.000234195
-0.000923264
-0.000172302
-0.000778202
5.03742e-05
-0.000603425
0.000264486
-0.000489656
0.000197624
-0.000509839
-0.00022595
-0.000586604
-0.000637921
-0.000555698
-0.000620928
-0.000336739
-0.00024264
-7.21455e-05
0.000152657
5.57524e-05
0.000270062
-2.08978e-05
-8.8066e-05
-0.000208916
-0.000576789
-0.000223752
-0.000632448
1.4613e-05
-0.000284979
0.000264707
0.000146182
0.000342072
0.00043488
0.00021332
0.000217989
-8.85913e-05
-0.000379239
-0.000284216
-0.000649248
-0.000132352
-0.000394788
0.000145252
3.90944e-05
0.000274979
0.000403372
0.000198876
0.000295737
-7.46228e-05
-0.000248311
-0.000277365
-0.000527279
-0.000164812
-0.000303048
0.000108362
0.000115351
0.000258642
0.000471023
0.000216237
0.000367831
-4.42163e-05
-0.000189197
-0.000261987
-0.000552454
-0.000152486
-0.00036924
0.000161361
9.74789e-05
0.000383463
0.000529838
0.000357731
0.000544447
9.61936e-05
-0.000185667
0.000809558
0.00203487
0.00146939
0.00167517
0.00167806
0.000954003
0.00140812
0.000330193
0.000967742
-0.000171049
0.000542712
-0.000491865
0.000230439
-0.00067786
6.40545e-05
-0.000756872
3.33632e-05
-0.000747513
9.43231e-05
-0.000664396
0.000149781
-0.000545117
8.3927e-05
-0.00044398
-0.000115233
-0.000387442
-0.000314597
-0.000356334
-0.000350275
-0.000301059
-0.000215865
-0.000206553
-4.07123e-05
-0.000119399
1.40839e-06
-6.30166e-05
-0.000156147
-5.13571e-05
-0.000354741
-2.51584e-05
-0.00037013
2.99958e-05
-0.000202412
9.69845e-05
1.52205e-05
0.000124441
0.00013501
9.35344e-05
2.10343e-05
2.53847e-05
-0.000236898
-2.62875e-05
-0.0003569
-1.23519e-05
-0.000250454
3.88048e-05
-3.69026e-05
6.14254e-05
0.000114368
4.76056e-05
5.45282e-05
-1.47808e-05
-0.000165491
-5.73485e-05
-0.000286072
-4.42323e-05
-0.000192045
1.43367e-05
1.36244e-05
5.29721e-05
0.000169266
6.05977e-05
0.000110871
1.41806e-05
-0.000126502
-2.46119e-05
-0.000280828
1.83831e-06
-0.000200443
8.09742e-05
3.55615e-05
0.000147458
0.000241996
0.000151299
0.000234097
0.000104093
4.84312e-05
0.000557702
0.00147717
0.000923036
0.00130985
0.00104356
0.00083348
0.000963242
0.000410508
0.00073891
5.32941e-05
0.000495645
-0.000248593
0.000291415
-0.000473635
0.000147216
-0.000612676
6.27237e-05
-0.000663021
2.49975e-05
-0.000626674
7.66066e-06
-0.000527785
-2.71617e-05
-0.000409153
-9.15315e-05
-0.000323066
-0.000164055
-0.000283811
-0.00020157
-0.000263545
-0.000182726
-0.000225392
-0.000145053
-0.000157066
-0.000131861
-7.62104e-05
-0.000169803
-1.34197e-05
-0.000217621
2.26567e-05
-0.000216184
2.85568e-05
-0.000151541
3.23417e-05
-6.82171e-05
4.11174e-05
-2.84425e-05
5.3761e-05
-6.35474e-05
6.04875e-05
-0.000140851
5.10108e-05
-0.000181808
2.86023e-05
-0.000151557
8.5565e-06
-8.49534e-05
-5.17776e-06
-4.02705e-05
2.91972e-06
-6.04476e-05
5.39535e-06
-0.0001212
3.40285e-06
-0.00015882
-6.61442e-06
-0.000129414
-1.5067e-05
-6.49274e-05
-1.15123e-05
-1.35245e-05
9.19825e-06
-2.78251e-05
2.84804e-05
-9.52014e-05
4.27621e-05
-0.000135501
4.21388e-05
-0.000103307
4.87813e-05
-1.68073e-05
6.09574e-05
5.50024e-05
7.94924e-05
6.06021e-05
9.84973e-05
0.000109033
0.000426662
0.0010505
0.000713548
0.00102296
0.000804743
0.000742289
0.000765713
0.000449535
0.000648132
0.000170875
0.000476105
-7.65597e-05
0.000301073
-0.000298604
0.000144779
-0.00045639
1.65501e-05
-0.000534795
-7.48486e-05
-0.000535271
-0.000128189
-0.000474442
-0.000146602
-0.000390741
-0.000151803
-0.000317864
-0.000162819
-0.000272789
-0.000180737
-0.000245621
-0.000194497
-0.00021163
-0.000196274
-0.00015529
-0.000187697
-8.4792e-05
-0.000177627
-2.3494e-05
-0.000164993
1.00217e-05
-0.00015129
1.48547e-05
-0.000130009
1.1062e-05
-0.000107632
1.87379e-05
-9.28397e-05
3.89654e-05
-8.88195e-05
5.64647e-05
-9.49404e-05
5.71299e-05
-0.000102373
3.60338e-05
-0.000101169
7.35357e-06
-9.89876e-05
-7.35924e-06
-9.20129e-05
-4.05955e-06
-9.38459e-05
7.22585e-06
-0.000101239
1.07974e-05
-0.000107232
-6.18937e-07
-0.000106535
-1.57638e-05
-9.96237e-05
-1.84244e-05
-8.90817e-05
-1.34133e-06
-8.50794e-05
2.44809e-05
-8.45021e-05
4.21839e-05
-8.55412e-05
4.31776e-05
-7.37943e-05
3.70384e-05
-5.15974e-05
3.87618e-05
-2.78679e-05
5.5762e-05
-1.35992e-05
8.4233e-05
9.54361e-05
0.000319945
0.000730548
0.000581922
0.000760981
0.000707368
0.000616848
0.000721134
0.00043577
0.000654483
0.000237521
0.000538437
3.94852e-05
0.000372378
-0.000132541
0.000201587
-0.000285599
4.28061e-05
-0.000376016
-8.36909e-05
-0.000408771
-0.000163769
-0.000394361
-0.000200618
-0.000353892
-0.000210518
-0.000307962
-0.000213998
-0.000269302
-0.000222963
-0.00023665
-0.000234346
-0.000200251
-0.0002368
-0.000152844
-0.000222572
-9.90215e-05
-0.000194942
-5.1122e-05
-0.000164548
-2.03716e-05
-0.000142372
-7.32292e-06
-0.000130065
-1.24635e-06
-0.00012087
9.54048e-06
-0.000107311
2.54016e-05
-9.01489e-05
3.93003e-05
-7.46372e-05
4.1619e-05
-6.79641e-05
2.93604e-05
-7.28107e-05
1.21978e-05
-8.14727e-05
1.30085e-06
-8.61776e-05
6.43806e-07
-8.4534e-05
5.58173e-06
-8.041e-05
6.67441e-06
-8.06516e-05
-3.76011e-07
-8.71824e-05
-9.23343e-06
-9.49504e-05
-1.06582e-05
-9.60747e-05
-2.16399e-07
-8.8481e-05
1.68931e-05
-7.59515e-05
2.96605e-05
-6.60076e-05
3.32324e-05
-6.03202e-05
3.13484e-05
-5.56457e-05
3.40893e-05
-4.63498e-05
4.64665e-05
-2.62861e-05
6.41713e-05
6.91536e-05
0.000226082
0.000504468
0.000441909
0.000545151
0.000585903
0.000472852
0.000651793
0.00036988
0.000644993
0.000244321
0.000576503
0.000107975
0.000468824
-2.48602e-05
0.000321286
-0.000138058
0.000168397
-0.000223126
3.2211e-05
-0.000272587
-7.20711e-05
-0.000290078
-0.000141828
-0.000284131
-0.000183692
-0.000266092
-0.000210114
-0.000242877
-0.000229978
-0.000216788
-0.000243899
-0.000186335
-0.000245983
-0.000150763
-0.000232743
-0.000112259
-0.000206976
-7.68871e-05
-0.000177649
-4.97007e-05
-0.000153675
-3.12999e-05
-0.000136915
-1.80076e-05
-0.000122409
-4.96717e-06
-0.000105087
8.07541e-06
-8.40488e-05
1.82594e-05
-6.41179e-05
2.16875e-05
-5.29605e-05
1.82019e-05
-5.18344e-05
1.10696e-05
-5.56342e-05
5.09955e-06
-5.87782e-05
3.78826e-06
-5.75441e-05
4.348e-06
-5.46323e-05
3.76088e-06
-5.54271e-05
4.16158e-07
-6.15694e-05
-3.09224e-06
-6.94142e-05
-2.81115e-06
-7.26112e-05
2.98391e-06
-6.80748e-05
1.23584e-05
-5.87995e-05
2.03898e-05
-5.05412e-05
2.49766e-05
-4.6489e-05
2.72908e-05
-4.36604e-05
3.12598e-05
-3.61547e-05
3.89655e-05
-2.03624e-05
4.83829e-05
4.87921e-05
0.000157197
0.000347272
0.000320781
0.000381565
0.000451196
0.000342435
0.000537345
0.000283731
0.000573096
0.000208573
0.000558104
0.00012297
0.000499193
3.40506e-05
0.000405618
-4.44822e-05
0.000294007
-0.000111514
0.000180423
-0.000159002
7.81997e-05
-0.000187853
-5.26092e-06
-0.000200667
-7.02655e-05
-0.000201084
-0.000119753
-0.00019339
-0.000156979
-0.000179565
-0.000182638
-0.000160678
-0.000195617
-0.000137779
-0.000194967
-0.000112906
-0.000183249
-8.86081e-05
-0.00016576
-6.71936e-05
-0.000147739
-4.932e-05
-0.000131215
-3.45321e-05
-0.000114558
-2.16286e-05
-9.63114e-05
-1.01756e-05
-7.68129e-05
-1.23972e-06
-5.90454e-05
3.91827e-06
-4.5994e-05
5.14844e-06
-3.92985e-05
4.3746e-06
-3.73236e-05
3.12506e-06
-3.62752e-05
2.73776e-06
-3.46435e-05
2.71388e-06
-3.3299e-05
2.41429e-06
-3.44943e-05
1.60981e-06
-3.86072e-05
1.01869e-06
-4.3674e-05
2.25657e-06
-4.65375e-05
5.85351e-06
-4.50963e-05
1.0917e-05
-4.08091e-05
1.60991e-05
-3.6272e-05
2.0443e-05
-3.30677e-05
2.40891e-05
-2.98386e-05
2.80304e-05
-2.36752e-05
3.28046e-05
-1.29024e-05
3.76139e-05
3.58893e-05
0.000112167
0.000235102
0.000233403
0.000260326
0.000338097
0.000237741
0.000418216
0.000203613
0.000467301
0.000159489
0.00048185
0.00010842
0.000461582
5.43172e-05
0.000417135
-3.63698e-08
0.000349677
-4.40552e-05
0.000272182
-8.15053e-05
0.00019326
-0.000108928
0.00011929
-0.000126695
5.41955e-05
-0.00013599
-1.15499e-06
-0.000138042
-4.65074e-05
-0.000134213
-8.15093e-05
-0.000125672
-0.000105642
-0.000113642
-0.000119169
-9.93815e-05
-0.000123465
-8.43169e-05
-0.000121118
-6.95404e-05
-0.000114553
-5.58824e-05
-0.000105626
-4.34623e-05
-9.48569e-05
-3.24052e-05
-8.21521e-05
-2.28827e-05
-6.83178e-05
-1.50723e-05
-5.50861e-05
-9.31549e-06
-4.44297e-05
-5.51096e-06
-3.6945e-05
-3.10937e-06
-3.22867e-05
-1.53306e-06
-2.92141e-05
-3.37565e-07
-2.7154e-05
6.49322e-07
-2.61836e-05
1.43955e-06
-2.6753e-05
2.18033e-06
-2.89377e-05
3.20459e-06
-3.16084e-05
4.92324e-06
-3.32739e-05
7.52096e-06
-3.30567e-05
1.07037e-05
-3.12523e-05
1.42909e-05
-2.85815e-05
1.77705e-05
-2.5571e-05
2.10827e-05
-2.18115e-05
2.4274e-05
-1.63167e-05
2.73101e-05
-8.55973e-06
2.98563e-05
2.73284e-05
8.15464e-05
0.000153553
0.000171065
0.000170806
0.000251032
0.000157775
0.000316441
0.000138202
0.000363
0.000112926
0.000387932
8.34864e-05
0.000390468
5.17808e-05
0.000370791
1.96424e-05
0.000336801
-1.00636e-05
0.000290952
-3.56551e-05
0.000238861
-5.68364e-05
0.000184965
-7.2798e-05
0.000132602
-8.36277e-05
8.42148e-05
-8.96541e-05
4.14164e-05
-9.14123e-05
5.29351e-06
-8.95454e-05
-2.35795e-05
-8.47693e-05
-4.50861e-05
-7.78782e-05
-5.97557e-05
-6.96492e-05
-6.85279e-05
-6.07667e-05
-7.26548e-05
-5.17562e-05
-7.30912e-05
-4.3031e-05
-7.06306e-05
-3.48696e-05
-6.59965e-05
-2.75159e-05
-5.9929e-05
-2.11398e-05
-5.34265e-05
-1.58207e-05
-4.74246e-05
-1.15132e-05
-4.2459e-05
-8.07481e-06
-3.86641e-05
-5.33151e-06
-3.59146e-05
-3.08838e-06
-3.4063e-05
-1.20251e-06
-3.30634e-05
4.34026e-07
-3.28868e-05
2.00192e-06
-3.33178e-05
3.64059e-06
-3.38547e-05
5.45812e-06
-3.38792e-05
7.54168e-06
-3.30505e-05
9.87844e-06
-3.11531e-05
1.23955e-05
-2.82844e-05
1.48992e-05
-2.45087e-05
1.73055e-05
-1.9758e-05
1.95239e-05
-1.38854e-05
2.14377e-05
-6.90674e-06
2.2877e-05
2.04218e-05
5.8593e-05
9.49589e-05
0.000123366
0.000106031
0.000182322
9.8819e-05
0.000232446
8.80738e-05
0.000271131
7.4238e-05
0.000296573
5.80445e-05
0.000307956
4.03991e-05
0.000305354
2.22458e-05
0.000291406
3.88647e-06
0.000267458
-1.17057e-05
0.000236498
-2.58757e-05
0.000201208
-3.75077e-05
0.000164015
-4.64347e-05
0.000126989
-5.26266e-05
9.17846e-05
-5.62064e-05
5.96556e-05
-5.74161e-05
3.14734e-05
-5.65893e-05
7.70878e-06
-5.41153e-05
-1.15518e-05
-5.03878e-05
-2.65134e-05
-4.58054e-05
-3.75487e-05
-4.07255e-05
-4.51591e-05
-3.54246e-05
-4.986e-05
-3.0167e-05
-5.222e-05
-2.51539e-05
-5.28349e-05
-2.05288e-05
-5.22826e-05
-1.63763e-05
-5.10705e-05
-1.27219e-05
-4.95964e-05
-9.54788e-06
-4.81256e-05
-6.80872e-06
-4.67866e-05
-4.42897e-06
-4.56333e-05
-2.35174e-06
-4.46856e-05
-5.17094e-07
-4.38634e-05
1.17425e-06
-4.303e-05
2.81029e-06
-4.19238e-05
4.35442e-06
-4.03969e-05
6.0116e-06
-3.81806e-05
7.66153e-06
-3.50884e-05
9.30566e-06
-3.11006e-05
1.09122e-05
-2.6208e-05
1.24115e-05
-2.04315e-05
1.37459e-05
-1.38403e-05
1.48459e-05
-6.59733e-06
1.56342e-05
1.38256e-05
3.75399e-05
5.74181e-05
7.92495e-05
6.43215e-05
0.00011779
6.02768e-05
0.000151559
5.43018e-05
0.000179165
4.6632e-05
0.000199584
3.76297e-05
0.000212257
2.77291e-05
0.000217117
1.73867e-05
0.000214011
6.99298e-06
0.000205154
-2.84719e-06
0.000190754
-1.14738e-05
0.000172289
-1.90415e-05
0.000151082
-2.5227e-05
0.000128383
-2.99275e-05
0.000105311
-3.31347e-05
8.28125e-05
-3.49188e-05
6.1633e-05
-3.54118e-05
4.23082e-05
-3.47906e-05
2.51825e-05
-3.32606e-05
1.04067e-05
-3.10309e-05
-2.02682e-06
-2.82966e-05
-1.21902e-05
-2.52628e-05
-2.02657e-05
-2.20877e-05
-2.65058e-05
-1.89117e-05
-3.11927e-05
-1.5846e-05
-3.46033e-05
-1.29682e-05
-3.69974e-05
-1.03237e-05
-3.86131e-05
-7.93004e-06
-3.96389e-05
-5.78781e-06
-4.02136e-05
-3.85621e-06
-4.04072e-05
-2.15393e-06
-4.03825e-05
-5.41839e-07
-3.98981e-05
6.85343e-07
-3.89755e-05
1.88747e-06
-3.76447e-05
3.02606e-06
-3.57631e-05
4.12939e-06
-3.32821e-05
5.17886e-06
-3.01519e-05
6.1755e-06
-2.63432e-05
7.10451e-06
-2.18773e-05
7.94599e-06
-1.68058e-05
8.67414e-06
-1.12181e-05
9.25812e-06
-5.24873e-06
9.66495e-06
8.57672e-06
2.32776e-05
3.41407e-05
4.9343e-05
3.82573e-05
7.37303e-05
3.58882e-05
9.56186e-05
3.24111e-05
0.000114297
2.79569e-05
0.000129209
2.27227e-05
0.000139997
1.69438e-05
0.000146508
1.0876e-05
0.000148765
4.73649e-06
0.00014706
-1.14208e-06
0.000141985
-6.39767e-06
0.000134036
-1.10924e-05
0.00012383
-1.50209e-05
0.000111999
-1.80977e-05
9.91563e-05
-2.02928e-05
8.58602e-05
-2.16246e-05
7.25977e-05
-2.21506e-05
5.97672e-05
-2.19594e-05
4.76686e-05
-2.11605e-05
3.65109e-05
-1.9874e-05
2.64367e-05
-1.82254e-05
1.75021e-05
-1.63286e-05
9.712e-06
-1.42944e-05
3.01745e-06
-1.22154e-05
-2.65999e-06
-1.01713e-05
-7.40837e-06
-8.22162e-06
-1.13212e-05
-6.40775e-06
-1.45149e-05
-4.73421e-06
-1.70736e-05
-3.23173e-06
-1.91348e-05
-1.79676e-06
-2.06291e-05
-6.57202e-07
-2.1465e-05
2.95113e-07
-2.195e-05
1.16758e-06
-2.2013e-05
1.94866e-06
-2.16385e-05
2.65175e-06
-2.07996e-05
3.29003e-06
-1.94967e-05
3.87427e-06
-1.77303e-05
4.4076e-06
-1.55168e-05
4.89056e-06
-1.28888e-05
5.31805e-06
-9.89558e-06
5.68108e-06
-6.60482e-06
5.96725e-06
-3.10286e-06
6.16255e-06
5.47231e-06
1.60277e-05
1.81152e-05
3.40945e-05
2.01937e-05
5.11532e-05
1.88292e-05
6.6735e-05
1.68292e-05
8.04296e-05
1.42665e-05
9.18939e-05
1.12626e-05
0.000100878
7.96188e-06
0.000107267
4.48817e-06
0.000110981
1.02335e-06
0.000112096
-2.25696e-06
0.000110972
-5.27342e-06
0.000107792
-7.91206e-06
0.00010286
-1.00892e-05
9.65183e-05
-1.17557e-05
8.91168e-05
-1.28921e-05
8.09977e-05
-1.35066e-05
7.24769e-05
-1.36299e-05
6.38332e-05
-1.33142e-05
5.53006e-05
-1.26258e-05
4.70649e-05
-1.16381e-05
3.92669e-05
-1.0429e-05
3.20108e-05
-9.07257e-06
2.53596e-05
-7.64073e-06
1.93429e-05
-6.19737e-06
1.3963e-05
-4.79322e-06
9.20537e-06
-3.46532e-06
5.04137e-06
-2.24164e-06
1.4678e-06
-1.15851e-06
-1.5728e-06
-1.92228e-07
-4.00101e-06
6.30141e-07
-5.97585e-06
1.3189e-06
-7.56505e-06
1.8854e-06
-8.74973e-06
2.35088e-06
-9.53894e-06
2.73587e-06
-9.94064e-06
3.05243e-06
-9.96663e-06
3.31515e-06
-9.632e-06
3.53802e-06
-8.95727e-06
3.73084e-06
-7.96783e-06
3.89927e-06
-6.69731e-06
4.046e-06
-5.18819e-06
4.17053e-06
-3.49149e-06
4.26901e-06
-1.66696e-06
4.33627e-06
3.80389e-06
1.13328e-05
6.78545e-06
2.40891e-05
7.44069e-06
3.6256e-05
6.66197e-06
4.753e-05
5.55602e-06
5.76166e-05
4.18324e-06
6.62643e-05
2.6169e-06
7.32383e-05
9.89515e-07
7.85745e-05
-8.4618e-07
8.2153e-05
-2.55456e-06
8.40164e-05
-4.12079e-06
8.42389e-05
-5.49594e-06
8.29513e-05
-6.62358e-06
8.03269e-05
-7.4635e-06
7.65672e-05
-7.99502e-06
7.18905e-05
-8.21521e-06
6.65193e-05
-8.13567e-06
6.0666e-05
-7.77623e-06
5.4529e-05
-7.1755e-06
4.82826e-05
-6.37744e-06
4.21004e-05
-5.45549e-06
3.60992e-05
-4.42891e-06
3.03786e-05
-3.35237e-06
2.50098e-05
-2.27052e-06
2.00476e-05
-1.23449e-06
1.55308e-05
-2.77814e-07
1.14623e-05
6.02052e-07
7.85683e-06
1.36513e-06
4.69006e-06
2.01015e-06
1.97072e-06
2.52698e-06
-3.24648e-07
2.92464e-06
-2.22351e-06
3.21821e-06
-3.7408e-06
3.40341e-06
-4.90136e-06
3.5107e-06
-5.71588e-06
3.54861e-06
-6.20073e-06
3.53568e-06
-6.37526e-06
3.4883e-06
-6.26096e-06
3.42204e-06
-5.8823e-06
3.35001e-06
-5.26569e-06
3.28023e-06
-4.4428e-06
3.22063e-06
-3.45005e-06
3.17531e-06
-2.32804e-06
3.14459e-06
-1.12236e-06
3.12834e-06
2.68088e-06
7.5519e-06
-7.63771e-07
1.61271e-05
-1.13174e-06
2.43287e-05
-1.53956e-06
3.19356e-05
-2.04917e-06
3.87589e-05
-2.63755e-06
4.46359e-05
-3.25924e-06
4.94937e-05
-3.86653e-06
5.3085e-05
-4.43503e-06
5.54392e-05
-4.90777e-06
5.657e-05
-5.25131e-06
5.652e-05
-5.44502e-06
5.53729e-05
-5.47469e-06
5.32406e-05
-5.32892e-06
5.02572e-05
-5.0097e-06
4.65711e-05
-4.5282e-06
4.23344e-05
-3.89894e-06
3.77114e-05
-3.15296e-06
3.28805e-05
-2.34338e-06
2.78946e-05
-1.39008e-06
2.3057e-05
-6.17484e-07
1.83608e-05
2.66361e-07
1.39081e-05
1.09999e-06
9.75323e-06
1.8852e-06
5.9385e-06
2.58093e-06
2.4925e-06
3.16744e-06
-5.45078e-07
3.63887e-06
-3.16741e-06
3.9884e-06
-5.372e-06
4.21632e-06
-7.17451e-06
4.32975e-06
-8.58973e-06
4.33908e-06
-9.61586e-06
4.24398e-06
-1.02972e-05
4.08463e-06
-1.0649e-05
3.86172e-06
-1.06975e-05
3.5956e-06
-1.04655e-05
3.30205e-06
-9.97311e-06
2.9946e-06
-9.24124e-06
2.68903e-06
-8.29125e-06
2.39878e-06
-7.15627e-06
2.14379e-06
-5.86732e-06
1.93002e-06
-4.45487e-06
1.76106e-06
-2.95044e-06
1.63833e-06
-1.38693e-06
1.56315e-06
1.29357e-06
4.35068e-06
-5.11295e-06
9.24786e-06
-6.02692e-06
1.38939e-05
-6.18459e-06
1.81298e-05
-6.2824e-06
2.18078e-05
-6.31383e-06
2.48036e-05
-6.25495e-06
2.7023e-05
-6.08402e-06
2.83787e-05
-5.7882e-06
2.88424e-05
-5.36996e-06
2.84217e-05
-4.82946e-06
2.7145e-05
-4.16698e-06
2.50742e-05
-3.4021e-06
2.23291e-05
-2.58194e-06
1.90347e-05
-1.71376e-06
1.52944e-05
-7.87317e-07
1.11965e-05
1.98585e-07
6.8154e-06
1.22778e-06
2.52568e-06
1.94675e-06
-1.61619e-06
2.75275e-06
-5.70247e-06
3.46924e-06
-9.54258e-06
4.10614e-06
-1.30788e-05
4.63624e-06
-1.62383e-05
5.04571e-06
-1.89804e-05
5.324e-06
-2.1279e-05
5.46588e-06
-2.31144e-05
5.47389e-06
-2.44817e-05
5.35616e-06
-2.53885e-05
5.12416e-06
-2.58512e-05
4.79263e-06
-2.58913e-05
4.37847e-06
-2.55469e-05
3.89874e-06
-2.48317e-05