/*--------------------------------*- C++ -*----------------------------------*\
  =========                 |
  \\      /  F ield         | OpenFOAM: The Open Source CFD Toolbox
   \\    /   O peration     | Website:  https://openfoam.org
    \\  /    A nd           | Version:  7
     \\/     M anipulation  |
\*---------------------------------------------------------------------------*/
FoamFile
{
    version     2.0;
    format      ascii;
    class       volVectorField;
    location    "0.74";
    object      U;
}
// * * * * * * * * * * * * * * * * * * * * * * * * * * * * * * * * * * * * * //

dimensions      [0 1 -1 0 0 0 0];

internalField   nonuniform List<vector> 
1936
(
(-12.7554 3.1912 0)
(-69.7284 198.147 0)
(-20.236 434.19 0)
(6.06897 437.091 0)
(-2.68845 401.983 0)
(8.59902 403.457 0)
(19.0835 376.066 0)
(23.1977 322.236 0)
(14.3783 281.316 0)
(0.215024 272.48 0)
(-9.71232 292.719 0)
(-22.2979 374.247 0)
(-15.2074 472.815 0)
(21.9258 431.58 0)
(24.062 294.833 0)
(-1.12544 238.27 0)
(-13.4379 241.367 0)
(-31.4499 305.516 0)
(-25.2936 460.973 0)
(28.5473 484.076 0)
(40.9547 327.24 0)
(21.4363 232.894 0)
(8.00728 226.779 0)
(-9.33783 254.466 0)
(-27.7539 375.145 0)
(-10.5773 492.341 0)
(34.6758 413.075 0)
(29.1513 257.991 0)
(2.85006 218.355 0)
(-8.3202 234.374 0)
(-31.8615 336.071 0)
(-19.1495 490.945 0)
(33.3881 444.319 0)
(29.2295 275.053 0)
(4.23743 221.56 0)
(-6.92032 230.422 0)
(-31.4244 318.726 0)
(-23.4538 479.326 0)
(29.108 457.783 0)
(32.7057 287.38 0)
(7.05404 220.079 0)
(-3.19932 223.579 0)
(-28.7704 298.383 0)
(-27.7865 463.478 0)
(-14.022 7.74237 0)
(-76.8862 -0.0284677 0)
(-24.4196 -4.77315 0)
(4.18594 -2.71776 0)
(-3.91062 -1.21235 0)
(7.19984 -1.74956 0)
(17.5873 -1.19991 0)
(20.556 0.358499 0)
(11.861 2.05158 0)
(1.65136 2.57774 0)
(-7.31526 1.86582 0)
(-23.5493 -0.12677 0)
(-16.4639 -3.18156 0)
(22.2819 -3.10141 0)
(21.6091 1.036 0)
(-2.84786 3.71893 0)
(-8.09437 3.10882 0)
(-27.132 -0.330603 0)
(-26.1648 -4.80942 0)
(29.4209 -4.71373 0)
(38.7204 -0.586893 0)
(15.2613 2.77151 0)
(8.67412 3.66001 0)
(-6.77451 2.63504 0)
(-29.7699 -0.449514 0)
(-11.715 -4.28366 0)
(34.4025 -3.47592 0)
(24.1052 1.59176 0)
(1.32887 4.10932 0)
(-3.5164 3.07654 0)
(-31.5209 -0.282341 0)
(-20.663 -4.3709 0)
(34.1535 -3.7811 0)
(25.003 1.0866 0)
(1.19012 3.89604 0)
(-2.35268 3.3574 0)
(-30.0521 0.115752 0)
(-24.8865 -4.18759 0)
(30.2618 -4.17324 0)
(29.3169 0.445299 0)
(2.84494 3.65969 0)
(0.918363 3.66296 0)
(-26.4485 0.589985 0)
(-29.8 -3.91232 0)
(-4.11559 16.1041 0)
(-71.5607 0.63609 0)
(-26.8258 -10.3116 0)
(2.45023 -5.76516 0)
(-3.20393 -2.42806 0)
(6.56576 -3.62928 0)
(16.8391 -2.415 0)
(19.0856 0.924894 0)
(8.63319 4.16579 0)
(-2.04558 5.06529 0)
(-10.9834 3.988 0)
(-25.2998 -0.237918 0)
(-13.0129 -7.16238 0)
(26.9213 -6.49093 0)
(24.2931 2.46647 0)
(1.74119 7.19126 0)
(-3.00412 6.23753 0)
(-25.213 0.251658 0)
(-28.9869 -9.80748 0)
(27.7911 -10.0785 0)
(38.5038 -0.469239 0)
(10.7066 5.93909 0)
(2.45078 7.0819 0)
(-12.5373 5.57204 0)
(-32.0968 -1.01361 0)
(-8.18195 -9.54886 0)
(38.1578 -6.89613 0)
(23.0699 3.83268 0)
(0.0169295 8.02161 0)
(-5.54594 6.37112 0)
(-33.9763 -0.115246 0)
(-19.9834 -9.64866 0)
(37.0021 -7.85109 0)
(25.4411 2.90465 0)
(0.351131 7.67197 0)
(-3.686 6.80495 0)
(-32.2293 0.764759 0)
(-24.7901 -9.15517 0)
(32.7178 -8.78754 0)
(29.7046 1.67525 0)
(1.20054 7.30441 0)
(-1.2496 7.27778 0)
(-28.9842 1.82161 0)
(-31.1589 -8.52252 0)
(5.3507 22.5286 0)
(-59.0915 2.2547 0)
(-24.1716 -14.2817 0)
(-2.89724 -8.81027 0)
(-5.23775 -3.87019 0)
(2.84111 -5.19672 0)
(10.2608 -3.31486 0)
(11.0175 1.62853 0)
(2.2289 6.04023 0)
(-3.51103 7.07304 0)
(-8.01592 5.51041 0)
(-18.6852 -0.900917 0)
(-7.54761 -10.8682 0)
(22.6587 -9.16838 0)
(16.8773 3.55635 0)
(2.91229 9.71738 0)
(4.84105 8.92175 0)
(-12.6371 1.36445 0)
(-23.2882 -13.4263 0)
(19.8468 -14.4602 0)
(26.6682 -0.0922112 0)
(0.715277 8.94823 0)
(-0.748304 9.91875 0)
(-9.88551 7.59431 0)
(-24.2104 -2.19441 0)
(-3.80795 -14.1991 0)
(30.1341 -9.24524 0)
(11.7194 6.01285 0)
(-2.00019 11.1916 0)
(-0.867097 9.04867 0)
(-24.6748 -0.176479 0)
(-14.873 -14.178 0)
(29.5719 -11.029 0)
(14.9807 4.62802 0)
(-2.80298 10.7847 0)
(0.812432 9.61213 0)
(-22.816 1.17056 0)
(-18.6638 -13.4007 0)
(26.3598 -12.4242 0)
(18.8323 2.99528 0)
(-3.79591 10.3824 0)
(1.49604 10.1712 0)
(-19.5619 2.72701 0)
(-25.1135 -12.4274 0)
(13.3622 27.3533 0)
(-48.0618 4.55376 0)
(-21.0786 -16.4997 0)
(-7.04201 -11.584 0)
(-7.4787 -5.6819 0)
(-1.37654 -6.45908 0)
(3.41227 -3.843 0)
(3.55271 2.30893 0)
(-2.66876 7.32783 0)
(-3.86765 8.3126 0)
(-5.42425 6.22071 0)
(-12.7269 -1.91956 0)
(-2.64135 -13.6285 0)
(18.0854 -10.7811 0)
(10.6014 4.15152 0)
(2.44612 11.0258 0)
(8.78437 10.6598 0)
(-3.52745 2.56236 0)
(-17.6989 -15.2072 0)
(12.3256 -17.18 0)
(16.806 0.393273 0)
(-6.29238 11.1409 0)
(-1.22892 11.786 0)
(-7.42183 8.59832 0)
(-17.0487 -3.65018 0)
(-0.0791552 -17.384 0)
(22.2116 -10.2685 0)
(2.80589 7.64518 0)
(-3.10206 13.0776 0)
(2.95662 10.69 0)
(-16.939 -0.365549 0)
(-10.0958 -17.1649 0)
(22.5061 -12.8589 0)
(6.97591 5.90588 0)
(-5.01297 12.6768 0)
(4.76408 11.3012 0)
(-15.0741 1.34589 0)
(-12.9164 -16.1932 0)
(20.1885 -14.5399 0)
(10.3258 4.12231 0)
(-7.20607 12.3272 0)
(4.29035 11.845 0)
(-12.1316 3.2362 0)
(-19.4247 -14.9377 0)
(19.4611 30.4668 0)
(-37.0224 7.34504 0)
(-17.1827 -16.9841 0)
(-9.28591 -13.7291 0)
(-9.51291 -7.59044 0)
(-5.35629 -7.35744 0)
(-2.77803 -4.05993 0)
(-2.61431 2.7368 0)
(-5.61542 7.79675 0)
(-3.04585 8.67187 0)
(-2.50454 6.14991 0)
(-7.42856 -3.15128 0)
(0.95879 -15.2309 0)
(13.1584 -11.281 0)
(4.80861 4.41369 0)
(0.140135 11.302 0)
(9.59488 11.3022 0)
(2.07369 3.55561 0)
(-12.375 -15.254 0)
(6.09978 -18.1385 0)
(8.83493 0.819698 0)
(-10.0332 12.21 0)
(0.133877 12.6098 0)
(-3.62632 8.72228 0)
(-10.5027 -5.12328 0)
(2.43507 -18.8945 0)
(14.8275 -10.0067 0)
(-3.65312 8.53506 0)
(-3.27635 13.6384 0)
(6.23439 11.272 0)
(-10.4908 -0.581345 0)
(-6.01697 -18.5208 0)
(15.9328 -13.3349 0)
(0.831784 6.62391 0)
(-5.98394 13.2972 0)
(7.90922 11.8426 0)
(-8.66888 1.37465 0)
(-7.93444 -17.4429 0)
(14.3173 -15.135 0)
(3.78759 4.92965 0)
(-8.73728 13.0516 0)
(6.68339 12.3448 0)
(-6.0994 3.44477 0)
(-14.1921 -16.0299 0)
(22.5841 31.6234 0)
(-24.9254 10.294 0)
(-12.1043 -15.7606 0)
(-9.34139 -14.8782 0)
(-10.5589 -9.21367 0)
(-8.29463 -7.87872 0)
(-7.3147 -4.07907 0)
(-6.82087 2.67447 0)
(-6.73743 7.36098 0)
(-1.86648 8.10965 0)
(0.296218 5.43353 0)
(-3.08563 -4.3519 0)
(2.84213 -15.5128 0)
(8.11338 -10.6527 0)
(-0.465957 4.41763 0)
(-2.16286 10.7096 0)
(8.43419 10.8302 0)
(4.85146 4.06652 0)
(-7.40972 -13.8869 0)
(1.69193 -17.3793 0)
(2.77571 1.00271 0)
(-10.5729 12.0172 0)
(1.80652 12.3264 0)
(0.966788 8.12758 0)
(-4.90832 -6.20395 0)
(3.45204 -18.6443 0)
(8.43351 -8.68199 0)
(-7.49693 8.56463 0)
(-2.72889 12.9449 0)
(8.10617 10.8657 0)
(-5.30135 -0.756413 0)
(-2.83855 -18.2221 0)
(9.98302 -12.5746 0)
(-3.56909 6.67465 0)
(-5.46673 12.6998 0)
(9.16111 11.3489 0)
(-3.58499 1.26218 0)
(-3.92792 -17.1134 0)
(8.85272 -14.3281 0)
(-0.952239 5.23761 0)
(-8.1645 12.603 0)
(7.49341 11.8345 0)
(-1.3573 3.36153 0)
(-9.43677 -15.722 0)
(22.4471 30.5563 0)
(-11.4766 12.834 0)
(-5.85522 -12.9028 0)
(-7.22444 -14.6689 0)
(-9.92565 -10.1622 0)
(-9.53347 -8.01759 0)
(-9.57104 -4.03614 0)
(-8.7512 2.04652 0)
(-6.49378 6.12987 0)
(-0.819743 6.8118 0)
(2.36456 4.19572 0)
(-0.00716896 -5.23054 0)
(3.02129 -14.4959 0)
(3.39215 -9.0867 0)
(-4.61177 4.14428 0)
(-3.29957 9.37358 0)
(6.54594 9.43515 0)
(5.87285 3.96395 0)
(-2.97479 -11.5679 0)
(-0.873841 -15.1442 0)
(-1.40953 0.895287 0)
(-9.13672 10.6807 0)
(2.76668 11.0088 0)
(4.8985 7.0035 0)
(-0.721443 -6.53006 0)
(3.05112 -16.7738 0)
(3.3092 -6.78642 0)
(-8.93689 7.84962 0)
(-1.98173 11.2474 0)
(8.35716 9.67094 0)
(-1.3339 -0.901739 0)
(-0.610455 -16.4025 0)
(4.86858 -10.848 0)
(-6.2751 6.07396 0)
(-4.14998 11.0881 0)
(8.58417 10.0336 0)
(0.190579 0.988048 0)
(-0.976589 -15.3181 0)
(4.05814 -12.3825 0)
(-4.08771 4.9554 0)
(-6.39177 11.1745 0)
(6.86596 10.4998 0)
(2.15602 2.98653 0)
(-5.24384 -14.1361 0)
(18.7282 27.2085 0)
(1.12354 14.2405 0)
(0.951624 -8.7154 0)
(-3.29296 -12.9071 0)
(-7.40786 -10.1141 0)
(-8.79491 -7.73119 0)
(-9.53136 -3.99712 0)
(-8.60028 0.993632 0)
(-5.40741 4.36032 0)
(-0.0417071 5.03989 0)
(3.37831 2.60918 0)
(1.70518 -5.51059 0)
(1.97891 -12.376 0)
(-0.369275 -7.03262 0)
(-6.75667 3.50825 0)
(-3.31288 7.47363 0)
(4.7949 7.51072 0)
(5.85795 3.28053 0)
(0.306143 -8.78472 0)
(-2.00603 -11.8581 0)
(-3.86221 0.587146 0)
(-7.08887 8.58268 0)
(2.75166 8.92968 0)
(6.84377 5.47396 0)
(1.81402 -5.92733 0)
(1.79884 -13.6524 0)
(-0.392293 -4.84571 0)
(-8.49192 6.5644 0)
(-1.28927 8.93136 0)
(7.49468 7.94068 0)
(1.49427 -1.02377 0)
(0.733948 -13.4002 0)
(1.05915 -8.49171 0)
(-7.18924 4.93166 0)
(-2.85721 8.80987 0)
(7.09037 8.1734 0)
(2.74902 0.573658 0)
(0.880391 -12.3913 0)
(0.478251 -9.68084 0)
(-5.65619 4.11373 0)
(-4.53434 9.09501 0)
(5.63095 8.61036 0)
(4.42649 2.32797 0)
(-1.88187 -11.5543 0)
(12.5817 22.1637 0)
(9.14675 13.9215 0)
(6.66345 -4.07881 0)
(1.36832 -9.78766 0)
(-3.56666 -8.91155 0)
(-6.35481 -6.95346 0)
(-7.68473 -3.90694 0)
(-6.98411 -0.19686 0)
(-3.96874 2.39639 0)
(0.427692 3.06842 0)
(3.40472 1.03899 0)
(2.24384 -5.11063 0)
(0.5138 -9.55688 0)
(-2.74522 -4.9988 0)
(-6.76246 2.51281 0)
(-2.83646 5.2897 0)
(3.26944 5.43132 0)
(5.03038 2.26856 0)
(1.86499 -5.96598 0)
(-2.20346 -8.16001 0)
(-4.72394 0.276239 0)
(-5.12311 6.17681 0)
(2.17659 6.46808 0)
(6.55011 3.79302 0)
(2.89623 -4.61148 0)
(0.560098 -9.87457 0)
(-2.57124 -3.17205 0)
(-6.90767 4.88494 0)
(-0.80005 6.45575 0)
(5.99557 5.87102 0)
(3.1057 -1.01472 0)
(1.24804 -9.76614 0)
(-1.16513 -5.94894 0)
(-6.4559 3.48692 0)
(-1.9504 6.31416 0)
(5.35539 6.01432 0)
(3.98933 0.161659 0)
(1.61042 -8.87917 0)
(-1.44539 -6.7139 0)
(-5.59735 2.93624 0)
(-3.06892 6.7294 0)
(4.35618 6.43763 0)
(5.24055 1.51573 0)
(0.284917 -8.40373 0)
(6.91139 16.5704 0)
(10.9144 11.9945 0)
(9.33964 -0.286372 0)
(4.99104 -6.06589 0)
(0.272305 -6.75448 0)
(-3.09019 -5.67247 0)
(-4.85131 -3.6258 0)
(-4.66626 -1.18371 0)
(-2.50281 0.619649 0)
(0.647187 1.21928 0)
(2.82851 -0.212307 0)
(2.02077 -4.18853 0)
(-0.519017 -6.61558 0)
(-3.54534 -3.36337 0)
(-5.41049 1.38171 0)
(-2.2767 3.20895 0)
(1.89586 3.43175 0)
(3.59047 1.31828 0)
(1.86183 -3.50134 0)
(-1.8774 -4.77926 0)
(-4.18086 0.0962251 0)
(-3.35054 3.87296 0)
(1.50768 4.09912 0)
(4.86981 2.27889 0)
(2.79106 -3.03608 0)
(-0.219569 -6.17777 0)
(-3.21218 -1.87787 0)
(-4.85986 3.13475 0)
(-0.500038 4.18605 0)
(4.20348 3.76194 0)
(3.34816 -0.838097 0)
(1.0903 -6.17589 0)
(-1.97002 -3.66513 0)
(-4.73351 2.08827 0)
(-1.29958 4.00432 0)
(3.62073 3.84557 0)
(3.81082 -0.0797952 0)
(1.46784 -5.46905 0)
(-1.93767 -4.01627 0)
(-4.32354 1.8071 0)
(-1.92133 4.42115 0)
(3.09529 4.2469 0)
(4.62078 0.831309 0)
(1.20711 -5.26519 0)
(3.60213 11.4878 0)
(8.50792 9.28329 0)
(8.74916 1.95919 0)
(6.26821 -2.79101 0)
(2.72558 -4.23658 0)
(-0.246171 -4.06858 0)
(-2.02312 -3.07785 0)
(-2.32535 -1.75955 0)
(-1.15091 -0.659261 0)
(0.783667 -0.213212 0)
(2.10818 -1.01519 0)
(1.48452 -3.08435 0)
(-0.791421 -4.11613 0)
(-3.03831 -2.20615 0)
(-3.69887 0.406702 0)
(-1.73416 1.55449 0)
(0.774727 1.78606 0)
(1.98657 0.63778 0)
(1.06757 -1.68665 0)
(-1.40231 -2.28306 0)
(-2.88833 0.0245324 0)
(-1.93519 2.0298 0)
(0.888843 2.22988 0)
(2.90276 1.16506 0)
(1.94697 -1.64269 0)
(-0.483505 -3.20842 0)
(-2.64873 -0.976039 0)
(-2.94987 1.67537 0)
(-0.318557 2.34128 0)
(2.47445 2.01861 0)
(2.50179 -0.556635 0)
(0.642801 -3.26728 0)
(-1.77656 -1.94448 0)
(-2.90965 1.02033 0)
(-0.797121 2.16635 0)
(2.07752 2.05563 0)
(2.63291 -0.127818 0)
(0.914599 -2.78146 0)
(-1.5718 -1.98653 0)
(-2.67757 0.990151 0)
(-1.04692 2.52699 0)
(1.91109 2.41206 0)
(3.15934 0.410397 0)
(1.20093 -2.70952 0)
(2.06898 7.67093 0)
(5.10599 6.6385 0)
(6.13154 2.71607 0)
(5.21314 -0.543333 0)
(3.22443 -2.06878 0)
(1.2693 -2.52138 0)
(-0.0651278 -2.37534 0)
(-0.506724 -1.93202 0)
(-0.059387 -1.42064 0)
(0.847133 -1.12778 0)
(1.42626 -1.38302 0)
(0.920196 -2.11827 0)
(-0.596619 -2.36177 0)
(-1.97828 -1.43591 0)
(-2.23322 -0.20565 0)
(-1.23105 0.462745 0)
(0.0687325 0.670836 0)
(0.745464 0.245084 0)
(0.307675 -0.606004 0)
(-0.93276 -0.831884 0)
(-1.64077 -0.00108645 0)
(-1.03148 0.845879 0)
(0.37016 0.996903 0)
(1.34973 0.509948 0)
(0.944302 -0.672951 0)
(-0.469935 -1.29904 0)
(-1.65842 -0.421314 0)
(-1.58088 0.706247 0)
(-0.236774 1.07039 0)
(1.15611 0.872214 0)
(1.31138 -0.279107 0)
(0.202059 -1.38146 0)
(-1.1862 -0.8658 0)
(-1.57018 0.365955 0)
(-0.490129 0.941809 0)
(0.925368 0.882085 0)
(1.29739 -0.0683566 0)
(0.34897 -1.09461 0)
(-0.97661 -0.747879 0)
(-1.38156 0.506912 0)
(-0.500218 1.24351 0)
(0.979506 1.17137 0)
(1.68101 0.231787 0)
(0.770831 -1.03735 0)
(1.20739 5.25021 0)
(2.60109 4.64843 0)
(3.45733 2.55682 0)
(3.30526 0.624383 0)
(2.46738 -0.654175 0)
(1.50932 -1.37348 0)
(0.754236 -1.72622 0)
(0.401095 -1.82009 0)
(0.461612 -1.72951 0)
(0.72754 -1.5386 0)
(0.824857 -1.4275 0)
(0.4415 -1.44684 0)
(-0.355276 -1.34591 0)
(-1.05285 -0.951975 0)
(-1.2048 -0.466205 0)
(-0.798676 -0.12116 0)
(-0.229581 0.0666314 0)
(0.07263 0.0477406 0)
(-0.096752 -0.119887 0)
(-0.570956 -0.185777 0)
(-0.821577 -0.00310173 0)
(-0.547207 0.247171 0)
(0.0285912 0.336011 0)
(0.422932 0.207545 0)
(0.254748 -0.150901 0)
(-0.364878 -0.353532 0)
(-0.863604 -0.133166 0)
(-0.783206 0.206867 0)
(-0.21336 0.3552 0)
(0.360477 0.287027 0)
(0.431504 -0.0860602 0)
(-0.0688153 -0.428456 0)
(-0.66939 -0.310749 0)
(-0.795398 0.0571116 0)
(-0.345884 0.280623 0)
(0.232364 0.281036 0)
(0.389369 0.000209871 0)
(-0.0116299 -0.280711 0)
(-0.533759 -0.162805 0)
(-0.63544 0.250869 0)
(-0.236556 0.527295 0)
(0.383615 0.505308 0)
(0.675676 0.189651 0)
(0.353531 -0.183949 0)
(0.705409 3.73243 0)
(1.43298 3.41591 0)
(1.90666 2.21475 0)
(1.9649 1.02891 0)
(1.6786 0.0595776 0)
(1.24293 -0.685093 0)
(0.843819 -1.23053 0)
(0.575408 -1.55853 0)
(0.452163 -1.65013 0)
(0.402192 -1.52668 0)
(0.301022 -1.29438 0)
(0.0693204 -1.0652 0)
(-0.255712 -0.869074 0)
(-0.52803 -0.694431 0)
(-0.605457 -0.529686 0)
(-0.48334 -0.366116 0)
(-0.292035 -0.199107 0)
(-0.179634 -0.0582391 0)
(-0.213558 0.0113428 0)
(-0.333144 0.0118667 0)
(-0.391242 0.00207148 0)
(-0.296758 0.0236884 0)
(-0.109714 0.0722241 0)
(0.0131292 0.0992104 0)
(-0.042853 0.0603824 0)
(-0.237857 0.00448456 0)
(-0.393109 -0.00399956 0)
(-0.364267 0.0210923 0)
(-0.180042 0.0501389 0)
(0.0011301 0.0592558 0)
(0.0161559 0.00458065 0)
(-0.154296 -0.0682109 0)
(-0.35242 -0.0830003 0)
(-0.393529 -0.0416998 0)
(-0.252526 0.00983625 0)
(-0.0727099 0.0434623 0)
(-0.0282469 0.0297132 0)
(-0.151918 0.00625179 0)
(-0.286284 0.0396316 0)
(-0.278481 0.129707 0)
(-0.125824 0.201249 0)
(0.0820594 0.215686 0)
(0.175368 0.178514 0)
(0.115541 0.126139 0)
(0.434733 2.69613 0)
(0.981739 2.60278 0)
(1.31644 1.88917 0)
(1.39391 1.12396 0)
(1.29663 0.377986 0)
(1.0676 -0.290425 0)
(0.780479 -0.836534 0)
(0.514537 -1.21301 0)
(0.296155 -1.37053 0)
(0.12407 -1.31088 0)
(-0.0240444 -1.10867 0)
(-0.151237 -0.875279 0)
(-0.254506 -0.695938 0)
(-0.329396 -0.592194 0)
(-0.352672 -0.522861 0)
(-0.322869 -0.433069 0)
(-0.269311 -0.290811 0)
(-0.225787 -0.130213 0)
(-0.206699 -0.0145147 0)
(-0.202998 0.0166817 0)
(-0.194341 -0.00987329 0)
(-0.164113 -0.0286422 0)
(-0.119348 0.00108873 0)
(-0.0877397 0.0639945 0)
(-0.0929945 0.1091 0)
(-0.128705 0.0983155 0)
(-0.159189 0.0416669 0)
(-0.154128 -0.0152666 0)
(-0.118383 -0.030635 0)
(-0.0847593 -0.0044744 0)
(-0.086582 0.0262893 0)
(-0.126688 0.0248527 0)
(-0.171366 -0.00978777 0)
(-0.185602 -0.0492158 0)
(-0.163167 -0.0581188 0)
(-0.131224 -0.0243403 0)
(-0.123823 0.0271889 0)
(-0.143662 0.0651206 0)
(-0.154532 0.0763205 0)
(-0.130179 0.0758197 0)
(-0.0827025 0.0849281 0)
(-0.0298662 0.111344 0)
(-0.00345162 0.157179 0)
(0.0194066 0.179047 0)
(0.264441 1.92303 0)
(0.693311 1.96175 0)
(0.99084 1.55291 0)
(1.11736 1.05826 0)
(1.10401 0.523321 0)
(0.9825 -0.0140184 0)
(0.774353 -0.481981 0)
(0.522071 -0.826596 0)
(0.279568 -1.00582 0)
(0.0743726 -1.01738 0)
(-0.0806973 -0.910229 0)
(-0.178575 -0.760684 0)
(-0.230151 -0.635823 0)
(-0.256398 -0.557525 0)
(-0.265594 -0.501313 0)
(-0.261005 -0.42717 0)
(-0.244935 -0.315266 0)
(-0.219234 -0.186562 0)
(-0.186797 -0.0846233 0)
(-0.153646 -0.0383294 0)
(-0.126749 -0.0365971 0)
(-0.10784 -0.0387499 0)
(-0.0931016 -0.0116727 0)
(-0.0787763 0.0414336 0)
(-0.065948 0.0838061 0)
(-0.0566347 0.0842805 0)
(-0.0513346 0.0430336 0)
(-0.0506397 -0.00529535 0)
(-0.0524303 -0.0257608 0)
(-0.0546088 -0.00753763 0)
(-0.0577309 0.0229662 0)
(-0.0623955 0.0321353 0)
(-0.0686443 0.00708999 0)
(-0.0760051 -0.0307882 0)
(-0.0824891 -0.0472215 0)
(-0.0871459 -0.0258356 0)
(-0.0903038 0.0173339 0)
(-0.0903194 0.0506491 0)
(-0.082574 0.0588755 0)
(-0.0681479 0.05381 0)
(-0.0562418 0.057691 0)
(-0.0453591 0.0851105 0)
(-0.0329679 0.130448 0)
(-0.00173683 0.149818 0)
(0.151397 1.34662 0)
(0.450349 1.43 0)
(0.684123 1.2061 0)
(0.830834 0.902982 0)
(0.88133 0.546819 0)
(0.839153 0.171504 0)
(0.723434 -0.184766 0)
(0.554398 -0.466724 0)
(0.362544 -0.645111 0)
(0.183475 -0.713894 0)
(0.0388788 -0.697567 0)
(-0.0633069 -0.638004 0)
(-0.128148 -0.573018 0)
(-0.168014 -0.518779 0)
(-0.192712 -0.468191 0)
(-0.205812 -0.404562 0)
(-0.206653 -0.32041 0)
(-0.193953 -0.227611 0)
(-0.169816 -0.148156 0)
(-0.140922 -0.0971017 0)
(-0.114969 -0.0708013 0)
(-0.0954983 -0.051173 0)
(-0.0799779 -0.0225475 0)
(-0.0635227 0.0141686 0)
(-0.0448746 0.0426873 0)
(-0.0271414 0.0480975 0)
(-0.0144042 0.030301 0)
(-0.00975742 0.00595204 0)
(-0.0119027 -0.00531372 0)
(-0.0155389 0.00206583 0)
(-0.0167752 0.0164336 0)
(-0.0157603 0.0206191 0)
(-0.0160917 0.00816848 0)
(-0.0211461 -0.0108988 0)
(-0.0304168 -0.0195427 0)
(-0.0396079 -0.00901235 0)
(-0.0449238 0.0139891 0)
(-0.0459125 0.0342417 0)
(-0.0428403 0.0435883 0)
(-0.0382044 0.0468017 0)
(-0.0356326 0.0553226 0)
(-0.0318666 0.0759893 0)
(-0.0246075 0.103541 0)
(-0.00357046 0.108772 0)
(0.0841074 0.931428 0)
(0.276609 1.01255 0)
(0.435565 0.889731 0)
(0.558065 0.711199 0)
(0.628691 0.489786 0)
(0.639753 0.246291 0)
(0.59541 0.00694465 0)
(0.507769 -0.201402 0)
(0.394385 -0.354886 0)
(0.274781 -0.447364 0)
(0.164943 -0.486082 0)
(0.0736447 -0.48832 0)
(0.00237494 -0.471437 0)
(-0.0519301 -0.445394 0)
(-0.0926894 -0.411062 0)
(-0.121127 -0.365194 0)
(-0.137582 -0.307532 0)
(-0.141847 -0.244398 0)
(-0.135171 -0.185843 0)
(-0.121848 -0.138959 0)
(-0.106444 -0.103701 0)
(-0.0915297 -0.0743772 0)
(-0.0768895 -0.0456651 0)
(-0.061059 -0.0178841 0)
(-0.0438987 0.00332573 0)
(-0.0275292 0.0128739 0)
(-0.0148713 0.0113753 0)
(-0.00764611 0.00524989 0)
(-0.00511438 0.00239919 0)
(-0.00457185 0.00573323 0)
(-0.00363401 0.0114659 0)
(-0.00229047 0.0135146 0)
(-0.00239597 0.00943389 0)
(-0.0055151 0.00296475 0)
(-0.0113372 0.000659223 0)
(-0.0176821 0.00628306 0)
(-0.0223536 0.017478 0)
(-0.0245299 0.0289351 0)
(-0.0246032 0.0376123 0)
(-0.0237932 0.0446189 0)
(-0.0227785 0.0538038 0)
(-0.0198205 0.0670951 0)
(-0.0150799 0.08152 0)
(-0.00266761 0.0797543 0)
(0.0480284 0.637213 0)
(0.169731 0.701505 0)
(0.27113 0.631822 0)
(0.357439 0.527971 0)
(0.417889 0.396152 0)
(0.445806 0.247291 0)
(0.440515 0.0952558 0)
(0.406466 -0.0455923 0)
(0.350824 -0.162364 0)
(0.28385 -0.248808 0)
(0.214982 -0.305276 0)
(0.149676 -0.336426 0)
(0.0911872 -0.348388 0)
(0.040665 -0.345929 0)
(-0.00174575 -0.33142 0)
(-0.0358837 -0.306031 0)
(-0.0606123 -0.271908 0)
(-0.075988 -0.232509 0)
(-0.0835228 -0.192641 0)
(-0.0846651 -0.155906 0)
(-0.0814568 -0.12353 0)
(-0.0755374 -0.0948156 0)
(-0.0676267 -0.0687684 0)
(-0.0579835 -0.0457156 0)
(-0.0472045 -0.0272692 0)
(-0.0365606 -0.0147853 0)
(-0.0275242 -0.00782813 0)
(-0.0209697 -0.00410242 0)
(-0.0167602 -0.000899442 0)
(-0.0140148 0.00308439 0)
(-0.0119075 0.00714222 0)
(-0.0103661 0.0097712 0)
(-0.00991216 0.0104283 0)
(-0.0109646 0.0103554 0)
(-0.0133241 0.0116695 0)
(-0.0161202 0.0156674 0)
(-0.0183611 0.0219627 0)
(-0.0195094 0.0290691 0)
(-0.0195609 0.0358845 0)
(-0.0187538 0.042489 0)
(-0.0170688 0.0496686 0)
(-0.0138488 0.0575864 0)
(-0.00971106 0.0649089 0)
(-0.00197673 0.0605521 0)
(0.0287379 0.427715 0)
(0.10598 0.474509 0)
(0.170236 0.434244 0)
(0.227641 0.374215 0)
(0.271866 0.297618 0)
(0.299082 0.209848 0)
(0.308109 0.117606 0)
(0.299952 0.0280507 0)
(0.278251 -0.0530857 0)
(0.246434 -0.120367 0)
(0.208053 -0.172514 0)
(0.167317 -0.20952 0)
(0.12697 -0.232693 0)
(0.0888444 -0.243677 0)
(0.0542212 -0.243991 0)
(0.0240717 -0.235126 0)
(-0.000816583 -0.21889 0)
(-0.0201186 -0.197564 0)
(-0.0339381 -0.173476 0)
(-0.0428468 -0.148707 0)
(-0.0478605 -0.124605 0)
(-0.0497764 -0.101836 0)
(-0.0491612 -0.0807697 0)
(-0.0465974 -0.0618651 0)
(-0.042713 -0.0456937 0)
(-0.0382274 -0.0326144 0)
(-0.0338501 -0.0224609 0)
(-0.0300688 -0.0145442 0)
(-0.0270305 -0.00802248 0)
(-0.0246194 -0.00234779 0)
(-0.0226769 0.00256524 0)
(-0.0211884 0.00658319 0)
(-0.0202741 0.00976179 0)
(-0.019979 0.0125411 0)
(-0.0201393 0.0155679 0)
(-0.0204326 0.0192948 0)
(-0.0204868 0.0237388 0)
(-0.0200275 0.0285868 0)
(-0.0189333 0.0335123 0)
(-0.0171585 0.0383829 0)
(-0.0146149 0.0431817 0)
(-0.011142 0.0477363 0)
(-0.00716156 0.0514753 0)
(-0.00171656 0.0465986 0)
(0.017879 0.276841 0)
(0.0672111 0.308835 0)
(0.108528 0.285896 0)
(0.146608 0.251882 0)
(0.177989 0.20845 0)
(0.200516 0.158186 0)
(0.213389 0.10419 0)
(0.216607 0.0498207 0)
(0.210983 -0.00176145 0)
(0.197876 -0.0483053 0)
(0.179226 -0.0875548 0)
(0.156941 -0.118773 0)
(0.132518 -0.141729 0)
(0.107431 -0.156652 0)
(0.082927 -0.164092 0)
(0.060001 -0.164852 0)
(0.039405 -0.159969 0)
(0.0216351 -0.150664 0)
(0.00691065 -0.138215 0)
(-0.00482412 -0.123822 0)
(-0.0137621 -0.108489 0)
(-0.0201506 -0.0929479 0)
(-0.0243808 -0.0778095 0)
(-0.0268645 -0.0635536 0)
(-0.0280362 -0.0505328 0)
(-0.0282685 -0.0390222 0)
(-0.02785 -0.0290383 0)
(-0.0270981 -0.0204523 0)
(-0.0262194 -0.0130537 0)
(-0.0253075 -0.00664675 0)
(-0.0244004 -0.0010983 0)
(-0.0235441 0.00369304 0)
(-0.0227834 0.00785974 0)
(-0.0221569 0.0115958 0)
(-0.0215671 0.0151228 0)
(-0.0208442 0.0186132 0)
(-0.019885 0.0221315 0)
(-0.0185892 0.0256426 0)
(-0.0168813 0.0290653 0)
(-0.0147149 0.0323141 0)
(-0.0120458 0.035295 0)
(-0.00888659 0.0378727 0)
(-0.005436 0.0398184 0)
(-0.00146018 0.0354128 0)
(0.0118455 0.171285 0)
(0.0449135 0.191683 0)
(0.0728946 0.178849 0)
(0.0992869 0.159896 0)
(0.122173 0.135664 0)
(0.140205 0.107392 0)
(0.152857 0.0765403 0)
(0.159899 0.0446967 0)
(0.161457 0.0134259 0)
(0.158169 -0.0158974 0)
(0.150651 -0.0419972 0)
(0.139625 -0.0641479 0)
(0.126132 -0.0818517 0)
(0.111067 -0.0949093 0)
(0.0952511 -0.103382 0)
(0.0794215 -0.107548 0)
(0.0641879 -0.107865 0)
(0.0500199 -0.104913 0)
(0.0372366 -0.0993462 0)
(0.0260136 -0.0918253 0)
(0.0164119 -0.0829694 0)
(0.00840128 -0.073326 0)
(0.00189356 -0.0633692 0)
(-0.00320811 -0.0534891 0)
(-0.007227 -0.0439872 0)
(-0.010324 -0.0350932 0)
(-0.0125518 -0.0269349 0)
(-0.0141639 -0.0195626 0)
(-0.0152977 -0.012969 0)
(-0.0160503 -0.00711558 0)
(-0.0164983 -0.00194894 0)
(-0.0167106 0.00259928 0)
(-0.0167195 0.00661241 0)
(-0.0165261 0.0101825 0)
(-0.0161448 0.0134023 0)
(-0.0155617 0.016353 0)
(-0.0147338 0.0190869 0)
(-0.0136278 0.0216223 0)
(-0.0122228 0.0239501 0)
(-0.0105099 0.0260419 0)
(-0.00848319 0.027853 0)
(-0.00620293 0.0293227 0)
(-0.00374821 0.0303687 0)
(-0.0010672 0.0267493 0)
(0.00863219 0.102866 0)
(0.0329814 0.115125 0)
(0.0536779 0.107763 0)
(0.073531 0.0969158 0)
(0.0914018 0.0830277 0)
(0.106292 0.0667355 0)
(0.117846 0.048797 0)
(0.12586 0.0300413 0)
(0.13029 0.011312 0)
(0.131253 -0.00659219 0)
(0.129045 -0.0231266 0)
(0.124136 -0.0376015 0)
(0.117042 -0.0496347 0)
(0.108262 -0.0590027 0)
(0.0983105 -0.065632 0)
(0.0876819 -0.0695885 0)
(0.0768223 -0.0710547 0)
(0.0661096 -0.0703035 0)
(0.0558436 -0.067669 0)
(0.046244 -0.0635157 0)
(0.0374565 -0.0582121 0)
(0.029564 -0.0521102 0)
(0.0226007 -0.045531 0)
(0.0165645 -0.038757 0)
(0.0113746 -0.0320488 0)
(0.00695483 -0.0255433 0)
(0.00325541 -0.0194006 0)
(0.000191728 -0.0137082 0)
(-0.00232019 -0.00851235 0)
(-0.00437224 -0.00382893 0)
(-0.0059606 0.000347576 0)
(-0.00712643 0.00405127 0)
(-0.00798288 0.00731653 0)
(-0.00850171 0.01019 0)
(-0.00872014 0.0127227 0)
(-0.00871887 0.014963 0)
(-0.00848099 0.0169507 0)
(-0.00799335 0.0187114 0)
(-0.00725881 0.0202575 0)
(-0.00628929 0.021589 0)
(-0.00509941 0.0226952 0)
(-0.00375964 0.0235555 0)
(-0.00230242 0.0241443 0)
(-0.000670019 0.0211603 0)
(0.00678828 0.0583914 0)
(0.0262347 0.0651368 0)
(0.0426691 0.0607737 0)
(0.0586576 0.0543595 0)
(0.0734305 0.046138 0)
(0.0861476 0.036475 0)
(0.0965506 0.0258076 0)
(0.104459 0.0146117 0)
(0.109798 0.00337439 0)
(0.11259 -0.00747802 0)
(0.112967 -0.0175294 0)
(0.111185 -0.0264201 0)
(0.107537 -0.0338843 0)
(0.10232 -0.0397491 0)
(0.0958614 -0.0439329 0)
(0.0885006 -0.0464402 0)
(0.0805613 -0.0473504 0)
(0.0723367 -0.0468038 0)
(0.0640799 -0.0449866 0)
(0.0559983 -0.0421138 0)
(0.0482552 -0.038413 0)
(0.0409734 -0.0341114 0)
(0.0342384 -0.0294244 0)
(0.0280994 -0.0245488 0)
(0.0225657 -0.0196586 0)
(0.0176354 -0.0148836 0)
(0.0133054 -0.0103389 0)
(0.00954851 -0.0061061 0)
(0.00632251 -0.00223285 0)
(0.00358322 0.00127493 0)
(0.0013203 0.00440011 0)
(-0.000506056 0.00713397 0)
(-0.00194745 0.00951441 0)
(-0.00304242 0.0115743 0)
(-0.00383529 0.0133486 0)
(-0.00433455 0.0148739 0)
(-0.00455894 0.0161823 0)
(-0.00453154 0.0173007 0)
(-0.00426884 0.0182495 0)
(-0.00379283 0.0190409 0)
(-0.00312991 0.0196795 0)
(-0.00235171 0.0201618 0)
(-0.00148517 0.0204842 0)
(-0.000431421 0.0179007 0)
(0.00534934 0.0277149 0)
(0.0212367 0.0306046 0)
(0.0343139 0.0280449 0)
(0.0472793 0.0242988 0)
(0.0594737 0.0195007 0)
(0.0701571 0.0138874 0)
(0.0791224 0.00772765 0)
(0.0861794 0.001301 0)
(0.0912319 -0.00512135 0)
(0.0943438 -0.0112334 0)
(0.0956231 -0.0168057 0)
(0.0951499 -0.0216517 0)
(0.0930578 -0.025611 0)
(0.0895494 -0.0285763 0)
(0.0848593 -0.0304959 0)
(0.0792366 -0.0313697 0)
(0.0729302 -0.0312442 0)
(0.0661767 -0.0302046 0)
(0.0591904 -0.0283673 0)
(0.0521606 -0.0258713 0)
(0.0452487 -0.0228619 0)
(0.0385866 -0.0194883 0)
(0.0322791 -0.0158952 0)
(0.0264005 -0.012217 0)
(0.0209971 -0.00857051 0)
(0.0160994 -0.00505068 0)
(0.011745 -0.00173391 0)
(0.00794864 0.00132755 0)
(0.00471211 0.00409473 0)
(0.00196804 0.00652179 0)
(-0.000383981 0.00864719 0)
(-0.00231056 0.0104421 0)
(-0.00379426 0.0119525 0)
(-0.00490175 0.0132077 0)
(-0.00562083 0.0142383 0)
(-0.00597751 0.0150753 0)
(-0.00604235 0.0157508 0)
(-0.00582806 0.0162946 0)
(-0.00535979 0.0167316 0)
(-0.00466968 0.0170803 0)
(-0.00379269 0.0173525 0)
(-0.00279667 0.0175519 0)
(-0.00172433 0.0176846 0)
(-0.000500758 0.0154328 0)
(0.00386661 0.00664609 0)
(0.0162125 0.0068728 0)
(0.0257087 0.00541738 0)
(0.0353522 0.0033784 0)
(0.0444973 0.000837479 0)
(0.0524829 -0.00207569 0)
(0.0591729 -0.00520126 0)
(0.0644749 -0.0083779 0)
(0.0682922 -0.011457 0)
(0.0704974 -0.0142583 0)
(0.071052 -0.0166647 0)
(0.0700764 -0.018582 0)
(0.0677444 -0.0199317 0)
(0.064223 -0.0206657 0)
(0.0596953 -0.0207676 0)
(0.0543596 -0.0202509 0)
(0.0484195 -0.0191566 0)
(0.0420777 -0.0175439 0)
(0.0355279 -0.0154918 0)
(0.0289642 -0.0131304 0)
(0.022553 -0.0105228 0)
(0.0164118 -0.00776652 0)
(0.0106452 -0.00496193 0)
(0.00533979 -0.00219762 0)
(0.000550668 0.000450084 0)
(-0.00369356 0.0029191 0)
(-0.00739621 0.00516571 0)
(-0.0105457 0.00716225 0)
(-0.0131527 0.00888902 0)
(-0.0151651 0.0103217 0)
(-0.0166151 0.0114785 0)
(-0.0175635 0.0123969 0)
(-0.0179939 0.0130865 0)
(-0.0179712 0.0135785 0)
(-0.0175305 0.0139067 0)
(-0.0167056 0.0141021 0)
(-0.0155371 0.0141986 0)
(-0.01406 0.0142273 0)
(-0.0123106 0.0142154 0)
(-0.0103277 0.0141847 0)
(-0.00814936 0.0141506 0)
(-0.00583311 0.01412 0)
(-0.00344695 0.0141024 0)
(-0.00102702 0.0122977 0)
(0.00214106 -0.00593524 0)
(0.0104537 -0.00721164 0)
(0.0159061 -0.00797289 0)
(0.021696 -0.00889554 0)
(0.0270807 -0.00993832 0)
(0.0314301 -0.0110279 0)
(0.0346752 -0.0120752 0)
(0.0367306 -0.0129966 0)
(0.0375213 -0.0137129 0)
(0.0370099 -0.0142043 0)
(0.035211 -0.0144128 0)
(0.0322029 -0.0142922 0)
(0.0281282 -0.0138292 0)
(0.0231661 -0.013022 0)
(0.0174913 -0.0118838 0)
(0.011269 -0.0104418 0)
(0.00467332 -0.0087368 0)
(-0.00212077 -0.00682679 0)
(-0.00894852 -0.0048102 0)
(-0.0155593 -0.00266067 0)
(-0.0217562 -0.000500357 0)
(-0.0274841 0.00159881 0)
(-0.0326747 0.00358157 0)
(-0.0372474 0.00540032 0)
(-0.0411273 0.00701565 0)
(-0.0442681 0.00839767 0)
(-0.046654 0.00952843 0)
(-0.0482828 0.0103985 0)
(-0.0491669 0.0110157 0)
(-0.0493167 0.0114211 0)
(-0.0487658 0.0115954 0)
(-0.0475559 0.0116016 0)
(-0.0457194 0.011452 0)
(-0.0433239 0.0111812 0)
(-0.0404463 0.0108249 0)
(-0.0371551 0.0104157 0)
(-0.0335121 0.00998321 0)
(-0.0295667 0.00955451 0)
(-0.02536 0.00915336 0)
(-0.0209327 0.00880027 0)
(-0.0163203 0.00851057 0)
(-0.0115612 0.00829194 0)
(-0.00674385 0.00815506 0)
(-0.00205874 0.00710138 0)
(8.12575e-05 -0.0109427 0)
(0.00344853 -0.0126912 0)
(0.00377763 -0.0130185 0)
(0.00463664 -0.0131961 0)
(0.00521916 -0.0132271 0)
(0.00491784 -0.0130656 0)
(0.0036677 -0.0126826 0)
(0.00141066 -0.0120668 0)
(-0.00188694 -0.011219 0)
(-0.00616713 -0.0101565 0)
(-0.0113546 -0.00889898 0)
(-0.017399 -0.00746987 0)
(-0.0241457 -0.00589539 0)
(-0.0313667 -0.00420353 0)
(-0.0388857 -0.00242389 0)
(-0.0465673 -0.000592929 0)
(-0.0542489 0.00124412 0)
(-0.0617926 0.00303164 0)
(-0.068967 0.00476045 0)
(-0.0756512 0.00638808 0)
(-0.0818069 0.00783371 0)
(-0.0872546 0.00905869 0)
(-0.0918661 0.0100368 0)
(-0.0955657 0.0107479 0)
(-0.0983 0.0111818 0)
(-0.100033 0.0113375 0)
(-0.100746 0.0112224 0)
(-0.10044 0.0108535 0)
(-0.0991295 0.0102591 0)
(-0.0968394 0.00947617 0)
(-0.0936194 0.00854083 0)
(-0.0895255 0.00749995 0)
(-0.0845898 0.00639585 0)
(-0.0789062 0.00527233 0)
(-0.0726095 0.00417002 0)
(-0.0658139 0.00312476 0)
(-0.0586368 0.00216349 0)
(-0.0511646 0.00130554 0)
(-0.0434612 0.000564841 0)
(-0.035587 -4.99536e-05 0)
(-0.0275854 -0.0005343 0)
(-0.0194723 -0.000889566 0)
(-0.0113319 -0.00111082 0)
(-0.00351497 -0.00103683 0)