/*--------------------------------*- C++ -*----------------------------------*\
  =========                 |
  \\      /  F ield         | OpenFOAM: The Open Source CFD Toolbox
   \\    /   O peration     | Website:  https://openfoam.org
    \\  /    A nd           | Version:  7
     \\/     M anipulation  |
\*---------------------------------------------------------------------------*/
FoamFile
{
    version     2.0;
    format      ascii;
    class       volScalarField;
    location    "6.2";
    object      p;
}
// * * * * * * * * * * * * * * * * * * * * * * * * * * * * * * * * * * * * * //

dimensions      [0 2 -2 0 0 0 0];

internalField   nonuniform List<scalar> 
900
(
4.06304e-09
-0.000130988
-0.000281511
-0.000407069
-0.000477249
-0.000475739
-0.000396769
-0.00023962
-5.44908e-06
0.000304016
0.000686677
0.0011396
0.00165817
0.00223505
0.00285922
0.00351523
0.00418311
0.00483823
0.00545304
0.00599887
0.00644886
0.00678127
0.00698294
0.00705195
0.00699927
0.00684927
0.00663863
0.00640724
0.00622001
0.00612923
0.000129044
-4.16976e-06
-0.000108748
-0.000184197
-0.000213525
-0.000184107
-9.06027e-05
6.88464e-05
0.000294542
0.000585858
0.00094131
0.00135823
0.00183215
0.00235608
0.00291972
0.00350879
0.00410635
0.00469034
0.0052373
0.00572308
0.00612541
0.00642683
0.00661744
0.00669709
0.00667639
0.00657641
0.0064269
0.00626287
0.00612298
0.00603834
0.000285245
9.63556e-05
-1.06606e-05
-7.37713e-05
-8.93246e-05
-4.88808e-05
5.05522e-05
0.000209886
0.000429425
0.000708972
0.00104765
0.00144347
0.00189274
0.00238934
0.00292395
0.0034836
0.00405201
0.0046086
0.00513091
0.00559567
0.00598126
0.00627068
0.00645434
0.00653219
0.00651463
0.00642165
0.00628074
0.00612426
0.00598145
0.00585757
0.000419058
0.000163428
3.81814e-05
-2.68406e-05
-3.92537e-05
5.06181e-06
0.000106131
0.00026327
0.000476349
0.000745451
0.00107041
0.00145021
0.00188231
0.00236179
0.00288056
0.00342674
0.00398475
0.00453427
0.00505249
0.00551523
0.00589955
0.00618697
0.00636657
0.00643751
0.00640995
0.00630396
0.00614715
0.00597206
0.00580287
0.00562636
0.000490646
0.00016938
2.16456e-05
-5.13555e-05
-6.63829e-05
-2.29165e-05
7.63034e-05
0.000229029
0.000434692
0.000693702
0.00100674
0.001374
0.00179435
0.00226432
0.00277717
0.00332184
0.00388439
0.00444309
0.00497401
0.00545082
0.0058477
0.00614301
0.0063231
0.00638543
0.00633985
0.00620747
0.00601801
0.00580707
0.00559849
0.0053672
0.000469458
8.7541e-05
-8.39122e-05
-0.000168399
-0.000190102
-0.000151357
-5.7217e-05
8.87878e-05
0.000285824
0.00053478
0.000837357
0.00119518
0.00160879
0.0020765
0.00259329
0.00314984
0.00373013
0.00431422
0.00487552
0.00538414
0.00580974
0.0061257
0.00631388
0.00636881
0.00629969
0.0061295
0.00589214
0.00562938
0.00536915
0.00507911
0.000333161
-0.000103259
-0.000297959
-0.000395689
-0.000426784
-0.000395851
-0.000309786
-0.000173049
1.35077e-05
0.000251449
0.000543702
0.000893553
0.00130351
0.00177398
0.00230195
0.00287946
0.00349144
0.00411696
0.00472693
0.00528702
0.00576069
0.0061142
0.00632261
0.00637557
0.00628072
0.00606336
0.00576359
0.00543271
0.0051068
0.0047493
6.41901e-05
-0.000420897
-0.000637683
-0.000749512
-0.000792029
-0.000771712
-0.000696913
-0.000572713
-0.000399751
-0.000175597
0.000104091
0.000444498
0.000850434
0.0013249
0.00186747
0.00247234
0.00312586
0.00380703
0.00448415
0.00511779
0.00566357
0.00607797
0.00632604
0.00638939
0.00627191
0.00600091
0.00562444
0.00520708
0.00479711
0.00435421
-0.000352205
-0.000880965
-0.00111872
-0.00124538
-0.00130138
-0.00129485
-0.00123533
-0.00112834
-0.000974162
-0.000769395
-0.000508168
-0.000183197
0.000212982
0.000686558
0.00124064
0.00187278
0.00257189
0.00331913
0.00408075
0.00481243
0.00546064
0.00596899
0.00628787
0.00638567
0.00625821
0.00593265
0.00546614
0.00494087
0.00442183
0.00386281
-0.000928776
-0.00149705
-0.00175501
-0.00189761
-0.00196971
-0.00198103
-0.00194226
-0.00185929
-0.00173208
-0.00155634
-0.00132471
-0.00102776
-0.000655093
-0.000196705
0.000355225
0.00100339
0.00174133
0.00255687
0.00341562
0.00427033
0.00505819
0.00570678
0.00614561
0.00632156
0.00621416
0.00584489
0.00527925
0.00462207
0.00396091
0.00323906
-0.00167653
-0.00228081
-0.00255872
-0.00271894
-0.00281062
-0.00284516
-0.00283451
-0.00278514
-0.00269696
-0.00256513
-0.00238115
-0.00213371
-0.00180949
-0.00139421
-0.000874086
-0.000238543
0.000515347
0.00138307
0.00233885
0.00333643
0.00430593
0.00515683
0.00579019
0.00611903
0.00609215
0.00571338
0.00505159
0.00423915
0.00339448
0.00244407
-0.00260465
-0.00324195
-0.00354003
-0.00372019
-0.00383584
-0.00390036
-0.00392731
-0.0039242
-0.00389152
-0.00382459
-0.00371462
-0.00354923
-0.00331277
-0.00298671
-0.00255029
-0.00198176
-0.00126209
-0.000388528
0.000639201
0.00178324
0.00297365
0.00410331
0.00503761
0.005639
0.00580238
0.00549096
0.00476308
0.00378085
0.00270483
0.00143818
-0.00372017
-0.00438799
-0.00470685
-0.00490975
-0.00505443
-0.00515677
-0.00523257
-0.00529119
-0.00533471
-0.00535988
-0.0053591
-0.00532056
-0.00522782
-0.00505907
-0.00478635
-0.00437524
-0.00378758
-0.00299169
-0.00195737
-0.000697463
0.000734506
0.00222394
0.00359748
0.00464816
0.00518362
0.00508691
0.00437535
0.00323392
0.00187858
0.000183706
-0.0050276
-0.00572417
-0.00606465
-0.00629307
-0.00647182
-0.00662
-0.00675662
-0.00689409
-0.00703753
-0.00718697
-0.00733826
-0.00748278
-0.0076061
-0.00768561
-0.00768742
-0.00756324
-0.00724897
-0.00666965
-0.00576243
-0.00447629
-0.00282615
-0.000914131
0.00105492
0.00278986
0.00397033
0.00433917
0.00381525
0.0025788
0.000909687
-0.00135031
-0.0065287
-0.00725339
-0.00761629
-0.00787224
-0.0080888
-0.00828941
-0.00849759
-0.00873035
-0.00899779
-0.00930556
-0.00965593
-0.0100471
-0.0104709
-0.0109081
-0.0113221
-0.0116514
-0.0118036
-0.0116549
-0.0110677
-0.00992121
-0.00814994
-0.00580705
-0.00310368
-0.000414642
0.00177433
0.00298889
0.00295548
0.00178398
-0.000194834
-0.00317876
-0.00822251
-0.0089767
-0.00936232
-0.00964575
-0.00990069
-0.0101564
-0.0104426
-0.0107829
-0.0111944
-0.0116913
-0.0122855
-0.0129866
-0.0137974
-0.014708
-0.0156841
-0.0166542
-0.0174961
-0.018029
-0.0180233
-0.0172699
-0.0155711
-0.012885
-0.00938308
-0.00549472
-0.00188456
0.000679806
0.001603
0.000802953
-0.00140359
-0.00528248
-0.010106
-0.0108944
-0.0113019
-0.0116089
-0.0118969
-0.0122029
-0.0125654
-0.0130165
-0.0135826
-0.014289
-0.0151607
-0.0162227
-0.0174945
-0.018981
-0.0206569
-0.0224454
-0.0241971
-0.0256755
-0.0265624
-0.0264817
-0.0251299
-0.0223057
-0.0180747
-0.0128561
-0.00745825
-0.00298142
-0.000480814
-0.000417262
-0.00264001
-0.00757623
-0.0121756
-0.0130082
-0.0134346
-0.0137547
-0.0140608
-0.014401
-0.0148249
-0.0153755
-0.0160907
-0.0170087
-0.0181704
-0.0196193
-0.0213954
-0.0235238
-0.0259929
-0.0287267
-0.0315536
-0.0341836
-0.0362017
-0.0370936
-0.0364088
-0.0337494
-0.0290159
-0.0225289
-0.0151486
-0.00827036
-0.00349862
-0.00189904
-0.00374681
-0.00985704
-0.0144304
-0.0153253
-0.0157636
-0.0160759
-0.016371
-0.0167125
-0.0171647
-0.0177839
-0.0186208
-0.0197276
-0.0211621
-0.0229875
-0.0252662
-0.0280449
-0.0313291
-0.0350473
-0.0390116
-0.0428861
-0.0461748
-0.0482407
-0.0484882
-0.0463162
-0.0414219
-0.0339413
-0.0246522
-0.0151135
-0.00745898
-0.00354599
-0.00442958
-0.0117275
-0.0168779
-0.0178643
-0.0183001
-0.0185677
-0.0188026
-0.0190903
-0.0195149
-0.020148
-0.0210537
-0.0222979
-0.0239543
-0.0261048
-0.0288324
-0.032204
-0.0362409
-0.040877
-0.0459125
-0.0509762
-0.0555185
-0.0588438
-0.0601025
-0.0586411
-0.0539295
-0.0458607
-0.034998
-0.0228653
-0.011964
-0.00499931
-0.00417478
-0.0124891
-0.0195434
-0.0206658
-0.0210711
-0.0212319
-0.0213287
-0.02148
-0.0217949
-0.0223619
-0.023258
-0.024561
-0.0263578
-0.0287453
-0.0318226
-0.0356716
-0.0403243
-0.0457171
-0.0516404
-0.0576975
-0.0632933
-0.0676632
-0.0699186
-0.0692294
-0.0649099
-0.0566182
-0.0446283
-0.0302348
-0.0160377
-0.00546291
-0.00214129
-0.0110044
-0.0224881
-0.0238083
-0.0241277
-0.02408
-0.0239226
-0.0238217
-0.0239172
-0.0243153
-0.0251031
-0.0263669
-0.0282022
-0.0307157
-0.0340158
-0.0381923
-0.0432797
-0.0492111
-0.0557661
-0.0625297
-0.0688788
-0.0740048
-0.0769872
-0.0768949
-0.0729288
-0.0645504
-0.0517456
-0.0354602
-0.0181167
-0.00358213
0.00296568
-0.00553905
-0.025845
-0.0274343
-0.0275587
-0.0271371
-0.0265572
-0.0260509
-0.0257925
-0.0259024
-0.0264729
-0.0275929
-0.0293609
-0.0318866
-0.0352805
-0.0396312
-0.0449672
-0.0512101
-0.0581243
-0.0652809
-0.0720446
-0.0775681
-0.0808992
-0.0810312
-0.0771055
-0.0684349
-0.0547662
-0.0366827
-0.016253
0.00254011
0.0130242
0.00639619
-0.0298944
-0.0317933
-0.0315043
-0.0304411
-0.0292015
-0.0280974
-0.0273322
-0.0270302
-0.0272785
-0.0281606
-0.0297705
-0.0322133
-0.0355943
-0.0399921
-0.045422
-0.0517882
-0.0588345
-0.0661056
-0.0729338
-0.0784566
-0.0816826
-0.0815946
-0.0771978
-0.0677003
-0.0526566
-0.0323544
-0.0084634
0.0152097
0.0306267
0.0281719
-0.0352284
-0.0373087
-0.0361668
-0.034033
-0.0318091
-0.0298787
-0.0284476
-0.0276211
-0.0274644
-0.028043
-0.0294371
-0.0317383
-0.03504
-0.0394019
-0.0448166
-0.0511624
-0.0581552
-0.0653113
-0.0719331
-0.0771253
-0.0798485
-0.0789977
-0.0734776
-0.0623559
-0.0450309
-0.0215466
0.00683004
0.0369229
0.0591145
0.0639803
-0.0431384
-0.0446751
-0.0417854
-0.0379129
-0.0342787
-0.0312655
-0.0290203
-0.027588
-0.0269855
-0.0272423
-0.0284122
-0.0305656
-0.0337707
-0.0380621
-0.0434022
-0.0496361
-0.056445
-0.0633113
-0.0695006
-0.0740704
-0.075911
-0.0737984
-0.0664921
-0.0528664
-0.0320971
-0.00402346
0.0303805
0.0696534
0.101943
0.118566
-0.0567434
-0.055021
-0.0485486
-0.0419297
-0.0363469
-0.0319834
-0.0288121
-0.026755
-0.0257384
-0.0257303
-0.0267394
-0.0288003
-0.0319478
-0.0361828
-0.0414314
-0.0475
-0.0540319
-0.0604709
-0.066042
-0.0697509
-0.0704118
-0.0666413
-0.0570143
-0.0401313
-0.0148271
0.0195112
0.0625546
0.113161
0.160673
0.198789
-0.083959
-0.0696552
-0.0565101
-0.0456634
-0.0374458
-0.0315066
-0.0274076
-0.0248345
-0.0235599
-0.023451
-0.0244504
-0.0265443
-0.0297273
-0.0339629
-0.0391396
-0.0450273
-0.051233
-0.0571642
-0.062004
-0.0647067
-0.0640348
-0.0584577
-0.0463555
-0.0259393
0.0044821
0.0463733
0.10043
0.166839
0.235951
0.318389
-0.136291
-0.0850317
-0.0634225
-0.0467151
-0.0354182
-0.0281648
-0.0236366
-0.0210369
-0.0199209
-0.0200494
-0.021304
-0.0236307
-0.0269939
-0.0313309
-0.0365068
-0.0422698
-0.0482096
-0.05372
-0.0579681
-0.0598657
-0.0580568
-0.0511325
-0.0372257
-0.0141414
0.0204909
0.0696158
0.136274
0.225403
0.333526
0.503363
-0.308838
-0.0947309
-0.0461194
-0.0280399
-0.0181581
-0.0131245
-0.0110567
-0.0106267
-0.0112369
-0.012702
-0.0149849
-0.0180927
-0.0220334
-0.0267775
-0.0322168
-0.0381241
-0.0441141
-0.0496102
-0.0538208
-0.0557298
-0.0540896
-0.0472597
-0.0333511
-0.0102286
0.0248975
0.0764646
0.151095
0.266364
0.441682
0.78557
)
;

boundaryField
{
    movingWall
    {
        type            zeroGradient;
    }
    fixedWalls
    {
        type            zeroGradient;
    }
    frontAndBack
    {
        type            empty;
    }
}


// ************************************************************************* //
