/*--------------------------------*- C++ -*----------------------------------*\
  =========                 |
  \\      /  F ield         | OpenFOAM: The Open Source CFD Toolbox
   \\    /   O peration     | Website:  https://openfoam.org
    \\  /    A nd           | Version:  7
     \\/     M anipulation  |
\*---------------------------------------------------------------------------*/
FoamFile
{
    version     2.0;
    format      ascii;
    class       volVectorField;
    location    "6.2";
    object      U;
}
// * * * * * * * * * * * * * * * * * * * * * * * * * * * * * * * * * * * * * //

dimensions      [0 1 -1 0 0 0 0];

internalField   nonuniform List<vector> 
900
(
(7.28315e-05 -7.18772e-05 0)
(5.09732e-05 6.42227e-06 0)
(-0.000271518 0.000100867 0)
(-0.000827068 0.000171012 0)
(-0.00154994 0.000214655 0)
(-0.00237857 0.000237638 0)
(-0.0032619 0.000246639 0)
(-0.00416173 0.000246585 0)
(-0.00504932 0.000240243 0)
(-0.00590104 0.000228658 0)
(-0.00669484 0.000211679 0)
(-0.00740783 0.000188428 0)
(-0.00801501 0.000157732 0)
(-0.00848909 0.000118538 0)
(-0.00880168 7.03496e-05 0)
(-0.00892555 1.35719e-05 0)
(-0.00883716 -5.07356e-05 0)
(-0.00852096 -0.000119195 0)
(-0.00797401 -0.000187422 0)
(-0.0072091 -0.000249826 0)
(-0.00625731 -0.000300116 0)
(-0.00516857 -0.000332128 0)
(-0.00400957 -0.000340774 0)
(-0.00285882 -0.000322911 0)
(-0.00179963 -0.000277923 0)
(-0.000911178 -0.000207928 0)
(-0.000256968 -0.000118616 0)
(0.000115262 -2.28653e-05 0)
(0.000202874 6.42323e-05 0)
(9.01186e-05 8.9234e-05 0)
(-4.26323e-06 -5.30491e-05 0)
(-0.000386206 0.00038263 0)
(-0.00140993 0.000847049 0)
(-0.00291261 0.0012128 0)
(-0.00477734 0.00146263 0)
(-0.00688576 0.00161015 0)
(-0.00912826 0.00167681 0)
(-0.0114137 0.00168134 0)
(-0.013667 0.00163605 0)
(-0.0158227 0.00154685 0)
(-0.0178197 0.00141461 0)
(-0.0195968 0.001237 0)
(-0.0210905 0.00101047 0)
(-0.0222351 0.000732421 0)
(-0.0229656 0.000403273 0)
(-0.0232227 2.82354e-05 0)
(-0.0229578 -0.000381957 0)
(-0.0221421 -0.000807719 0)
(-0.0207769 -0.00122343 0)
(-0.0188981 -0.00159794 0)
(-0.0165816 -0.00189745 0)
(-0.0139436 -0.00208969 0)
(-0.0111355 -0.00214875 0)
(-0.00833302 -0.00205969 0)
(-0.00572055 -0.00182207 0)
(-0.00347141 -0.00145197 0)
(-0.00172577 -0.000984622 0)
(-0.000569393 -0.000481228 0)
(-5.22832e-06 -2.74991e-05 0)
(6.7376e-05 0.00020037 0)
(-0.000106032 0.00027473 0)
(-0.000898157 0.00141806 0)
(-0.00263127 0.00252672 0)
(-0.0050005 0.0034093 0)
(-0.00784562 0.00403025 0)
(-0.011015 0.00440933 0)
(-0.0143628 0.00458494 0)
(-0.0177626 0.004594 0)
(-0.0211059 0.00446291 0)
(-0.0242957 0.00420579 0)
(-0.0272404 0.00382634 0)
(-0.0298489 0.00332146 0)
(-0.0320287 0.00268582 0)
(-0.0336862 0.00191672 0)
(-0.0347302 0.00101899 0)
(-0.03508 9.33752e-06 0)
(-0.0346704 -0.00107976 0)
(-0.0334648 -0.00219949 0)
(-0.0314686 -0.0032846 0)
(-0.0287345 -0.00425743 0)
(-0.0253697 -0.005035 0)
(-0.0215364 -0.00553892 0)
(-0.0174448 -0.00570697 0)
(-0.0133388 -0.00550436 0)
(-0.00947348 -0.0049328 0)
(-0.00608867 -0.00403623 0)
(-0.00337855 -0.00290478 0)
(-0.00145877 -0.00167981 0)
(-0.000344638 -0.000560073 0)
(7.79995e-06 0.000145017 0)
(-0.000194907 0.000878485 0)
(-0.00137084 0.00302421 0)
(-0.00377402 0.0049506 0)
(-0.0069384 0.00646189 0)
(-0.0106532 0.00752624 0)
(-0.0147379 0.00817825 0)
(-0.0190207 0.0084763 0)
(-0.0233512 0.00847658 0)
(-0.0275986 0.00822023 0)
(-0.0316436 0.00773013 0)
(-0.0353728 0.00701327 0)
(-0.0386732 0.00606627 0)
(-0.0414303 0.00488274 0)
(-0.0435289 0.00346131 0)
(-0.0448574 0.0018137 0)
(-0.0453154 -2.76771e-05 0)
(-0.0448234 -0.00200337 0)
(-0.0433355 -0.00402744 0)
(-0.040854 -0.00598527 0)
(-0.0374391 -0.0077412 0)
(-0.0332178 -0.00915067 0)
(-0.0283853 -0.0100771 0)
(-0.023198 -0.0104117 0)
(-0.017956 -0.0100939 0)
(-0.0129766 -0.00912745 0)
(-0.0085605 -0.00759056 0)
(-0.00495357 -0.00564023 0)
(-0.00230562 -0.0035126 0)
(-0.000657368 -0.00152277 0)
(-4.10584e-05 -9.84461e-05 0)
(-0.000267091 0.00172424 0)
(-0.00178313 0.00515601 0)
(-0.00479666 0.00806018 0)
(-0.00868326 0.0102893 0)
(-0.0131784 0.0118448 0)
(-0.018073 0.0127905 0)
(-0.0231734 0.0132114 0)
(-0.0283126 0.0131853 0)
(-0.033345 0.0127687 0)
(-0.0381377 0.0119933 0)
(-0.0425624 0.010869 0)
(-0.046491 0.00939177 0)
(-0.0497925 0.0075537 0)
(-0.0523337 0.0053547 0)
(-0.0539837 0.00281393 0)
(-0.0546216 -1.93719e-05 0)
(-0.0541487 -0.00305697 0)
(-0.0525015 -0.00617004 0)
(-0.0496686 -0.00918742 0)
(-0.0457053 -0.0119056 0)
(-0.0407461 -0.0141062 0)
(-0.0350092 -0.0155803 0)
(-0.0287915 -0.0161596 0)
(-0.0224504 -0.0157479 0)
(-0.0163711 -0.0143468 0)
(-0.0109253 -0.0120725 0)
(-0.00642314 -0.0091585 0)
(-0.00306065 -0.00594836 0)
(-0.00091124 -0.0028805 0)
(-7.13016e-05 -0.000494212 0)
(-0.000325499 0.00277786 0)
(-0.0021379 0.00775989 0)
(-0.00569798 0.0117972 0)
(-0.0102369 0.0148286 0)
(-0.0154378 0.0169163 0)
(-0.0210632 0.0181707 0)
(-0.0269005 0.0187125 0)
(-0.0327711 0.0186455 0)
(-0.0385211 0.0180434 0)
(-0.04401 0.0169466 0)
(-0.049102 0.0153671 0)
(-0.0536591 0.0132984 0)
(-0.0575379 0.0107292 0)
(-0.0605894 0.00765813 0)
(-0.0626624 0.00410916 0)
(-0.0636108 0.000146332 0)
(-0.0633075 -0.00411436 0)
(-0.061659 -0.00849912 0)
(-0.0586239 -0.0127747 0)
(-0.054236 -0.0166597 0)
(-0.0486215 -0.0198462 0)
(-0.0420112 -0.0220342 0)
(-0.0347403 -0.0229751 0)
(-0.0272304 -0.022519 0)
(-0.0199522 -0.0206558 0)
(-0.0133726 -0.0175398 0)
(-0.00789057 -0.0134927 0)
(-0.00376844 -0.00898463 0)
(-0.00111819 -0.00459744 0)
(-8.36679e-05 -0.00100112 0)
(-0.000374015 0.00400897 0)
(-0.00244523 0.0107803 0)
(-0.00649288 0.0160971 0)
(-0.0116212 0.0200122 0)
(-0.0174651 0.0226725 0)
(-0.023761 0.0242519 0)
(-0.0302806 0.0249174 0)
(-0.0368375 0.024805 0)
(-0.0432753 0.024008 0)
(-0.0494524 0.0225758 0)
(-0.0552312 0.0205212 0)
(-0.0604696 0.0178326 0)
(-0.0650159 0.0144908 0)
(-0.0687061 0.0104879 0)
(-0.0713665 0.00584647 0)
(-0.0728198 0.000639077 0)
(-0.0728984 -0.00499575 0)
(-0.0714607 -0.0108416 0)
(-0.0684152 -0.0166001 0)
(-0.0637503 -0.0219012 0)
(-0.0575624 -0.0263286 0)
(-0.0500795 -0.0294638 0)
(-0.0416703 -0.0309464 0)
(-0.0328314 -0.0305431 0)
(-0.0241447 -0.028211 0)
(-0.0162089 -0.0241387 0)
(-0.00955213 -0.018751 0)
(-0.00453391 -0.0126751 0)
(-0.00131765 -0.00667544 0)
(-8.50199e-05 -0.00159828 0)
(-0.000415619 0.00539397 0)
(-0.00271521 0.0141698 0)
(-0.00719953 0.0209029 0)
(-0.0128627 0.0257817 0)
(-0.0192973 0.0290578 0)
(-0.0262171 0.0309848 0)
(-0.0333816 0.0317871 0)
(-0.0406018 0.0316398 0)
(-0.047724 0.0306594 0)
(-0.054612 0.0289051 0)
(-0.061133 0.0263886 0)
(-0.0671468 0.0230894 0)
(-0.0724976 0.0189744 0)
(-0.0770091 0.0140202 0)
(-0.0804827 0.00823739 0)
(-0.0827025 0.00169542 0)
(-0.083447 -0.00545506 0)
(-0.082506 -0.0129638 0)
(-0.0797102 -0.0204678 0)
(-0.0749721 -0.0274986 0)
(-0.0683274 -0.0335087 0)
(-0.0599761 -0.0379245 0)
(-0.050309 -0.0402271 0)
(-0.0399057 -0.0400518 0)
(-0.0294898 -0.0372863 0)
(-0.0198422 -0.0321393 0)
(-0.0116783 -0.025156 0)
(-0.00550505 -0.0171661 0)
(-0.0015643 -0.00917912 0)
(-8.38679e-05 -0.00228968 0)
(-0.000452122 0.00691479 0)
(-0.00295538 0.0178892 0)
(-0.00783336 0.0261666 0)
(-0.0139846 0.0320881 0)
(-0.0209655 0.0360278 0)
(-0.0284712 0.0383337 0)
(-0.0362539 0.0392992 0)
(-0.0441266 0.0391461 0)
(-0.0519449 0.0380184 0)
(-0.0595845 0.0359867 0)
(-0.0669252 0.0330599 0)
(-0.0738361 0.0292037 0)
(-0.0801635 0.0243627 0)
(-0.085722 0.0184862 0)
(-0.0902883 0.0115576 0)
(-0.0936012 0.00362479 0)
(-0.0953722 -0.00516766 0)
(-0.0952993 -0.0145515 0)
(-0.0931032 -0.0241061 0)
(-0.0885818 -0.0332587 0)
(-0.0816681 -0.0413054 0)
(-0.0724957 -0.0474713 0)
(-0.0614526 -0.0510145 0)
(-0.0491992 -0.0513665 0)
(-0.0366309 -0.0482822 0)
(-0.0247721 -0.0419588 0)
(-0.014607 -0.0330754 0)
(-0.00686705 -0.0227258 0)
(-0.00192446 -0.0122557 0)
(-8.92954e-05 -0.00311145 0)
(-0.00048444 0.00855687 0)
(-0.0031705 0.021906 0)
(-0.00840505 0.0318473 0)
(-0.0150031 0.0388894 0)
(-0.0224902 0.0435446 0)
(-0.0305477 0.0462696 0)
(-0.0389246 0.0474385 0)
(-0.0474419 0.0473284 0)
(-0.0559705 0.0461163 0)
(-0.0644063 0.0438861 0)
(-0.07265 0.040643 0)
(-0.080589 0.0363333 0)
(-0.0880804 0.0308696 0)
(-0.094936 0.024159 0)
(-0.10091 0.0161367 0)
(-0.105693 0.0068038 0)
(-0.108917 -0.00372902 0)
(-0.110168 -0.0151976 0)
(-0.10902 -0.0271446 0)
(-0.105114 -0.0388933 0)
(-0.0982262 -0.0495597 0)
(-0.0883712 -0.0581147 0)
(-0.0758881 -0.0635105 0)
(-0.0614967 -0.0648715 0)
(-0.0462813 -0.0617193 0)
(-0.0315757 -0.0541733 0)
(-0.018739 -0.0430462 0)
(-0.00884193 -0.0297701 0)
(-0.00247639 -0.0161536 0)
(-0.000111227 -0.00413751 0)
(-0.000512882 0.0103075 0)
(-0.00336301 0.0261916 0)
(-0.00892063 0.0379082 0)
(-0.0159269 0.0461466 0)
(-0.023881 0.0515719 0)
(-0.0324537 0.0547633 0)
(-0.0413958 0.056188 0)
(-0.0505413 0.056188 0)
(-0.0597835 0.0549801 0)
(-0.0690464 0.0526649 0)
(-0.0782614 0.0492432 0)
(-0.0873444 0.0446372 0)
(-0.096174 0.0387165 0)
(-0.104569 0.0313283 0)
(-0.112267 0.0223343 0)
(-0.118913 0.0116561 0)
(-0.124049 -0.000666791 0)
(-0.127133 -0.0144075 0)
(-0.127569 -0.0291065 0)
(-0.12479 -0.0439945 0)
(-0.118362 -0.0579926 0)
(-0.108108 -0.0697642 0)
(-0.0942495 -0.0778593 0)
(-0.0775121 -0.0809604 0)
(-0.0591551 -0.0782049 0)
(-0.0408746 -0.0695123 0)
(-0.0245283 -0.0557904 0)
(-0.0116882 -0.0388866 0)
(-0.00331157 -0.0212405 0)
(-0.000160833 -0.00548564 0)
(-0.000537392 0.0121548 0)
(-0.00353384 0.0307195 0)
(-0.00938272 0.0443146 0)
(-0.0167588 0.0538209 0)
(-0.0251371 0.06007 0)
(-0.0341806 0.0637783 0)
(-0.0436452 0.0655189 0)
(-0.0533828 0.06571 0)
(-0.063315 0.0646161 0)
(-0.0734021 0.0623595 0)
(-0.0836156 0.0589375 0)
(-0.0939109 0.0542442 0)
(-0.1042 0.0480952 0)
(-0.11432 0.0402586 0)
(-0.124006 0.0304944 0)
(-0.132859 0.0186075 0)
(-0.140336 0.00452054 0)
(-0.145762 -0.0116338 0)
(-0.148356 -0.0294272 0)
(-0.147307 -0.0480289 0)
(-0.141916 -0.0661677 0)
(-0.131743 -0.0821594 0)
(-0.116797 -0.0940557 0)
(-0.0977089 -0.0999383 0)
(-0.0758438 -0.0983528 0)
(-0.053268 -0.0888135 0)
(-0.0324583 -0.072208 0)
(-0.0156983 -0.05085 0)
(-0.00453624 -0.0280219 0)
(-0.00025112 -0.00732449 0)
(-0.000557816 0.0140868 0)
(-0.00368353 0.0354641 0)
(-0.00979287 0.0510315 0)
(-0.0174985 0.0618701 0)
(-0.0262517 0.0689913 0)
(-0.0357082 0.0732638 0)
(-0.0456307 0.0753809 0)
(-0.0558923 0.0758492 0)
(-0.0664479 0.0749908 0)
(-0.0773001 0.0729563 0)
(-0.0884682 0.0697424 0)
(-0.0999571 0.0652118 0)
(-0.111723 0.0591166 0)
(-0.123636 0.051127 0)
(-0.135439 0.0408718 0)
(-0.146711 0.0279988 0)
(-0.156837 0.0122626 0)
(-0.16502 -0.00635888 0)
(-0.170292 -0.0275124 0)
(-0.1716 -0.0503624 0)
(-0.167948 -0.0734723 0)
(-0.158565 -0.0948 0)
(-0.143136 -0.111827 0)
(-0.122048 -0.121874 0)
(-0.0966251 -0.122639 0)
(-0.06922 -0.112919 0)
(-0.0429962 -0.0933313 0)
(-0.0211906 -0.0666224 0)
(-0.00627373 -0.0371558 0)
(-0.000398126 -0.00988176 0)
(-0.000574225 0.0160919 0)
(-0.00381383 0.040401 0)
(-0.010155 0.0580238 0)
(-0.0181484 0.0702473 0)
(-0.0272188 0.0782764 0)
(-0.0370127 0.083148 0)
(-0.0472992 0.0856916 0)
(-0.0579739 0.0865157 0)
(-0.069027 0.0860111 0)
(-0.0805063 0.084365 0)
(-0.0924836 0.0815771 0)
(-0.105019 0.0774785 0)
(-0.118123 0.0717502 0)
(-0.131708 0.0639478 0)
(-0.145544 0.0535424 0)
(-0.159209 0.0399867 0)
(-0.172052 0.0228203 0)
(-0.183174 0.00181594 0)
(-0.191471 -0.022829 0)
(-0.195684 -0.0503257 0)
(-0.194524 -0.0791351 0)
(-0.186851 -0.106897 0)
(-0.171919 -0.130509 0)
(-0.149692 -0.146413 0)
(-0.121206 -0.151188 0)
(-0.0888824 -0.142491 0)
(-0.0565099 -0.120216 0)
(-0.0284911 -0.0873223 0)
(-0.00866738 -0.0494632 0)
(-0.00062314 -0.0134545 0)
(-0.00058734 0.0181599 0)
(-0.00392983 0.0455092 0)
(-0.0104801 0.0652572 0)
(-0.0187204 0.0789004 0)
(-0.0280421 0.0878516 0)
(-0.0380776 0.0933335 0)
(-0.0486 0.0963287 0)
(-0.0595253 0.0975625 0)
(-0.0708777 0.0975064 0)
(-0.0827491 0.0963923 0)
(-0.0952626 0.0942291 0)
(-0.108534 0.0908174 0)
(-0.12263 0.0857626 0)
(-0.137517 0.0784953 0)
(-0.153007 0.0683095 0)
(-0.168706 0.0544357 0)
(-0.183969 0.0361627 0)
(-0.197873 0.0130116 0)
(-0.209237 -0.0150445 0)
(-0.216672 -0.0473292 0)
(-0.218671 -0.082299 0)
(-0.213743 -0.117381 0)
(-0.200645 -0.148963 0)
(-0.178729 -0.17259 0)
(-0.148429 -0.183505 0)
(-0.11185 -0.177731 0)
(-0.0731263 -0.153739 0)
(-0.0378906 -0.114143 0)
(-0.0118811 -0.0659239 0)
(-0.00095603 -0.0184216 0)
(-0.000599093 0.0202846 0)
(-0.00404274 0.0507755 0)
(-0.0107921 0.0727031 0)
(-0.0192445 0.0877754 0)
(-0.0287462 0.0976295 0)
(-0.0389081 0.103694 0)
(-0.0495018 0.107124 0)
(-0.0604595 0.108777 0)
(-0.0718343 0.109215 0)
(-0.0837559 0.108724 0)
(-0.0963915 0.107329 0)
(-0.109907 0.104801 0)
(-0.12442 0.100672 0)
(-0.139955 0.0942448 0)
(-0.156383 0.0846299 0)
(-0.173371 0.0708253 0)
(-0.190335 0.0518532 0)
(-0.206412 0.0269591 0)
(-0.220446 -0.00414236 0)
(-0.231047 -0.0410007 0)
(-0.236618 -0.0821538 0)
(-0.235405 -0.124992 0)
(-0.22568 -0.165587 0)
(-0.20605 -0.198718 0)
(-0.176025 -0.218225 0)
(-0.136876 -0.21804 0)
(-0.0925189 -0.194291 0)
(-0.0495588 -0.148184 0)
(-0.0160917 -0.0876448 0)
(-0.00143929 -0.0252565 0)
(-0.000613409 0.022468 0)
(-0.00417354 0.056203 0)
(-0.0111358 0.0803464 0)
(-0.0197801 0.0968212 0)
(-0.0293909 0.107511 0)
(-0.0395471 0.114077 0)
(-0.0500127 0.117864 0)
(-0.0607303 0.119878 0)
(-0.0717741 0.120782 0)
(-0.0833011 0.120922 0)
(-0.0955103 0.120343 0)
(-0.108604 0.118794 0)
(-0.122743 0.115739 0)
(-0.138008 0.110359 0)
(-0.15434 0.101594 0)
(-0.171499 0.0882217 0)
(-0.189022 0.06901 0)
(-0.206197 0.0429325 0)
(-0.222042 0.00942632 0)
(-0.235284 -0.0313357 0)
(-0.244394 -0.0781141 0)
(-0.247554 -0.128479 0)
(-0.242655 -0.178478 0)
(-0.227551 -0.222442 0)
(-0.200588 -0.252979 0)
(-0.161663 -0.261685 0)
(-0.113654 -0.241363 0)
(-0.0634008 -0.190171 0)
(-0.0214684 -0.115775 0)
(-0.0021331 -0.0345363 0)
(-0.000637371 0.024727 0)
(-0.00435798 0.0618228 0)
(-0.0115862 0.0881966 0)
(-0.0204289 0.105999 0)
(-0.0300851 0.117394 0)
(-0.0400916 0.124304 0)
(-0.0501999 0.128292 0)
(-0.060358 0.130522 0)
(-0.070653 0.131766 0)
(-0.0812575 0.132436 0)
(-0.092387 0.132597 0)
(-0.104264 0.131985 0)
(-0.117082 0.130005 0)
(-0.130968 0.125739 0)
(-0.145947 0.117984 0)
(-0.161901 0.105334 0)
(-0.178542 0.0863459 0)
(-0.19539 0.0597571 0)
(-0.211741 0.0247464 0)
(-0.226598 -0.0187994 0)
(-0.2387 -0.0700289 0)
(-0.246356 -0.126887 0)
(-0.247296 -0.185765 0)
(-0.238775 -0.241026 0)
(-0.21794 -0.284522 0)
(-0.182905 -0.305649 0)
(-0.134606 -0.293135 0)
(-0.0788756 -0.240041 0)
(-0.0281344 -0.151339 0)
(-0.00312233 -0.0469406 0)
(-0.000683226 0.0271034 0)
(-0.00465406 0.0677119 0)
(-0.0122614 0.0963037 0)
(-0.0213489 0.115291 0)
(-0.0310016 0.127173 0)
(-0.0407072 0.13418 0)
(-0.0502047 0.138117 0)
(-0.0594477 0.140317 0)
(-0.0685323 0.141667 0)
(-0.0776368 0.142639 0)
(-0.0869796 0.143325 0)
(-0.0967894 0.143453 0)
(-0.107279 0.142387 0)
(-0.118622 0.139141 0)
(-0.130928 0.13241 0)
(-0.144224 0.120669 0)
(-0.158435 0.102326 0)
(-0.173368 0.075951 0)
(-0.188683 0.040519 0)
(-0.203787 -0.00436999 0)
(-0.217828 -0.058358 0)
(-0.229435 -0.119895 0)
(-0.236477 -0.186085 0)
(-0.23592 -0.251908 0)
(-0.223931 -0.309207 0)
(-0.196739 -0.345823 0)
(-0.15261 -0.346252 0)
(-0.0948433 -0.296475 0)
(-0.0361189 -0.194968 0)
(-0.00452766 -0.0632362 0)
(-0.000772201 0.0296798 0)
(-0.00515396 0.074017 0)
(-0.0133402 0.104776 0)
(-0.0227724 0.124712 0)
(-0.03239 0.136752 0)
(-0.0416347 0.143496 0)
(-0.0502454 0.14702 0)
(-0.0581919 0.148841 0)
(-0.0655831 0.14995 0)
(-0.0725999 0.150879 0)
(-0.0794569 0.151743 0)
(-0.0863802 0.15227 0)
(-0.0935953 0.151808 0)
(-0.101319 0.149338 0)
(-0.109753 0.143511 0)
(-0.119079 0.132749 0)
(-0.129451 0.115394 0)
(-0.140985 0.089922 0)
(-0.153725 0.0551633 0)
(-0.167604 0.0104706 0)
(-0.182203 -0.0441991 0)
(-0.196598 -0.108001 0)
(-0.209124 -0.179005 0)
(-0.216858 -0.253346 0)
(-0.215453 -0.323757 0)
(-0.199553 -0.377651 0)
(-0.164461 -0.396015 0)
(-0.109542 -0.35654 0)
(-0.0453046 -0.246529 0)
(-0.00652356 -0.0842484 0)
(-0.000942451 0.0326052 0)
(-0.00600517 0.0809886 0)
(-0.0150884 0.113803 0)
(-0.0250247 0.134313 0)
(-0.0345828 0.146034 0)
(-0.0431835 0.152022 0)
(-0.0505989 0.154663 0)
(-0.0568418 0.155652 0)
(-0.0620502 0.156081 0)
(-0.0664153 0.156524 0)
(-0.0701496 0.15712 0)
(-0.0734772 0.157603 0)
(-0.0766362 0.157329 0)
(-0.0798882 0.155287 0)
(-0.0835284 0.150145 0)
(-0.0878945 0.14034 0)
(-0.0933689 0.124227 0)
(-0.100366 0.100268 0)
(-0.109305 0.067212 0)
(-0.12054 0.0242258 0)
(-0.134171 -0.0290321 0)
(-0.149849 -0.0924671 0)
(-0.166481 -0.165206 0)
(-0.181676 -0.244909 0)
(-0.191204 -0.32605 0)
(-0.188812 -0.397058 0)
(-0.167138 -0.437057 0)
(-0.120764 -0.41569 0)
(-0.0553686 -0.304729 0)
(-0.0093569 -0.110826 0)
(-0.00126619 0.0361399 0)
(-0.00744892 0.0890267 0)
(-0.0178969 0.123665 0)
(-0.0285432 0.144174 0)
(-0.0379868 0.154903 0)
(-0.0456949 0.159493 0)
(-0.0515384 0.160668 0)
(-0.0556226 0.160296 0)
(-0.0581463 0.15954 0)
(-0.0593301 0.159005 0)
(-0.0593963 0.158839 0)
(-0.0585746 0.158792 0)
(-0.0571214 0.158248 0)
(-0.0553451 0.156248 0)
(-0.0536307 0.151527 0)
(-0.0524584 0.142604 0)
(-0.0524116 0.127912 0)
(-0.0541661 0.105968 0)
(-0.0584555 0.0755108 0)
(-0.0659917 0.0355846 0)
(-0.0773249 -0.0144521 0)
(-0.0926444 -0.0750542 0)
(-0.111516 -0.146338 0)
(-0.132379 -0.22759 0)
(-0.151759 -0.315612 0)
(-0.163459 -0.401299 0)
(-0.158341 -0.464287 0)
(-0.126167 -0.468213 0)
(-0.0656939 -0.366813 0)
(-0.01334 -0.143799 0)
(-0.00188675 0.0407381 0)
(-0.00989098 0.0987416 0)
(-0.0223348 0.134738 0)
(-0.0338811 0.154352 0)
(-0.0430292 0.163164 0)
(-0.0494336 0.165545 0)
(-0.0531773 0.164577 0)
(-0.0545337 0.162268 0)
(-0.0538097 0.159815 0)
(-0.051285 0.157814 0)
(-0.0472106 0.156413 0)
(-0.0418342 0.155378 0)
(-0.035436 0.154142 0)
(-0.0283682 0.151825 0)
(-0.0210913 0.147278 0)
(-0.014199 0.139149 0)
(-0.00842821 0.126001 0)
(-0.0046494 0.10644 0)
(-0.00383849 0.079237 0)
(-0.00698389 0.0433744 0)
(-0.0149768 -0.00199503 0)
(-0.0284339 -0.05769 0)
(-0.0475594 -0.124623 0)
(-0.0717592 -0.203499 0)
(-0.0988116 -0.293592 0)
(-0.123595 -0.389379 0)
(-0.136564 -0.4737 0)
(-0.123468 -0.507972 0)
(-0.0752051 -0.42845 0)
(-0.0187572 -0.183864 0)
(-0.00309666 0.0472048 0)
(-0.0140263 0.111021 0)
(-0.0292028 0.147433 0)
(-0.0416434 0.164768 0)
(-0.0499735 0.170404 0)
(-0.0542974 0.169592 0)
(-0.0550851 0.165746 0)
(-0.0528817 0.160936 0)
(-0.0481629 0.156322 0)
(-0.0413029 0.152452 0)
(-0.0326036 0.149441 0)
(-0.0223404 0.147067 0)
(-0.0108158 0.14482 0)
(0.00158918 0.141919 0)
(0.0143695 0.137356 0)
(0.0268628 0.129942 0)
(0.0382357 0.118402 0)
(0.0474946 0.101466 0)
(0.0535238 0.0779628 0)
(0.0551622 0.0468627 0)
(0.0512958 0.00720219 0)
(0.0409398 -0.0420686 0)
(0.0233248 -0.102338 0)
(-0.00185772 -0.175289 0)
(-0.0338772 -0.262314 0)
(-0.0695519 -0.361945 0)
(-0.100601 -0.462728 0)
(-0.110289 -0.528988 0)
(-0.0820597 -0.4837 0)
(-0.025586 -0.231254 0)
(-0.00549206 0.0570061 0)
(-0.0210335 0.127064 0)
(-0.0394971 0.161987 0)
(-0.0521654 0.174907 0)
(-0.0583415 0.1757 0)
(-0.0590264 0.170563 0)
(-0.0553239 0.163111 0)
(-0.0481787 0.155334 0)
(-0.0383006 0.14825 0)
(-0.0261917 0.142285 0)
(-0.0122177 0.137484 0)
(0.00332087 0.133617 0)
(0.0201161 0.130221 0)
(0.0377893 0.126619 0)
(0.0558402 0.121952 0)
(0.0736042 0.115209 0)
(0.0902325 0.105295 0)
(0.104698 0.0910938 0)
(0.11583 0.0715376 0)
(0.122373 0.0456212 0)
(0.12304 0.0123404 0)
(0.116572 -0.0294784 0)
(0.101755 -0.0813693 0)
(0.0774981 -0.145478 0)
(0.0431015 -0.224578 0)
(-0.000688332 -0.320885 0)
(-0.0486127 -0.430254 0)
(-0.0834885 -0.525586 0)
(-0.0831889 -0.524865 0)
(-0.0329805 -0.285187 0)
(-0.0102453 0.0729185 0)
(-0.0327805 0.148252 0)
(-0.0538995 0.177898 0)
(-0.064285 0.183166 0)
(-0.0651396 0.177018 0)
(-0.0590463 0.166392 0)
(-0.0480486 0.154779 0)
(-0.0336099 0.143845 0)
(-0.0167086 0.134302 0)
(0.00203116 0.126354 0)
(0.0222077 0.119918 0)
(0.0435326 0.114717 0)
(0.0657412 0.110312 0)
(0.0885187 0.10612 0)
(0.111439 0.101426 0)
(0.133914 0.0953998 0)
(0.155169 0.0871352 0)
(0.174235 0.075695 0)
(0.189966 0.0601482 0)
(0.201077 0.0395782 0)
(0.206156 0.0130344 0)
(0.203719 -0.0206295 0)
(0.192184 -0.0628773 0)
(0.169822 -0.115858 0)
(0.134801 -0.18287 0)
(0.0856093 -0.2687 0)
(0.0231335 -0.376641 0)
(-0.0378712 -0.492589 0)
(-0.0738059 -0.542546 0)
(-0.0386704 -0.343626 0)
(-0.0194136 0.0999106 0)
(-0.0514529 0.174878 0)
(-0.0700978 0.192332 0)
(-0.0709628 0.185407 0)
(-0.059579 0.170071 0)
(-0.0408824 0.153215 0)
(-0.0180067 0.137524 0)
(0.00714811 0.123923 0)
(0.0334841 0.112583 0)
(0.060413 0.103362 0)
(0.0876374 0.0959762 0)
(0.115005 0.0900602 0)
(0.1424 0.0851797 0)
(0.169666 0.0808286 0)
(0.196536 0.0764257 0)
(0.222585 0.0713201 0)
(0.247191 0.0648067 0)
(0.269522 0.0561489 0)
(0.288533 0.0445972 0)
(0.302983 0.0293928 0)
(0.311375 0.00974512 0)
(0.312074 -0.0152972 0)
(0.303194 -0.0469383 0)
(0.282506 -0.0870441 0)
(0.24731 -0.138672 0)
(0.194468 -0.207584 0)
(0.121106 -0.302902 0)
(0.035652 -0.426807 0)
(-0.0464571 -0.526962 0)
(-0.037919 -0.40155 0)
(-0.0346774 0.143884 0)
(-0.0738243 0.199659 0)
(-0.0700394 0.194075 0)
(-0.0446775 0.170629 0)
(-0.00912873 0.145711 0)
(0.0300436 0.124007 0)
(0.0695756 0.106238 0)
(0.107999 0.0920337 0)
(0.144747 0.0808104 0)
(0.179731 0.0720079 0)
(0.213083 0.0651314 0)
(0.245011 0.0597353 0)
(0.275704 0.0553982 0)
(0.30527 0.051699 0)
(0.33368 0.0481991 0)
(0.36073 0.0444353 0)
(0.386001 0.039921 0)
(0.408843 0.0341535 0)
(0.428361 0.02662 0)
(0.443438 0.0167899 0)
(0.452598 0.00406929 0)
(0.454223 -0.0120805 0)
(0.446207 -0.0324852 0)
(0.426033 -0.0585216 0)
(0.390414 -0.0925015 0)
(0.33549 -0.13952 0)
(0.254994 -0.21075 0)
(0.151016 -0.325353 0)
(0.0141989 -0.466025 0)
(-0.0174553 -0.44151 0)
(-0.0375585 0.235966 0)
(-0.0477227 0.20363 0)
(0.0275227 0.153077 0)
(0.0993822 0.117229 0)
(0.166382 0.0906068 0)
(0.2265 0.0710563 0)
(0.279433 0.0569529 0)
(0.325925 0.0467346 0)
(0.367008 0.0392321 0)
(0.403686 0.0336656 0)
(0.436829 0.0295047 0)
(0.467156 0.0263585 0)
(0.495224 0.0239128 0)
(0.521414 0.0218944 0)
(0.545924 0.0200476 0)
(0.568743 0.0181216 0)
(0.589645 0.0158661 0)
(0.608165 0.0130322 0)
(0.623594 0.00937799 0)
(0.634948 0.00467098 0)
(0.641062 -0.00132215 0)
(0.640572 -0.00887679 0)
(0.631403 -0.018446 0)
(0.611285 -0.030654 0)
(0.576724 -0.0466725 0)
(0.524052 -0.069777 0)
(0.44351 -0.108092 0)
(0.333804 -0.188597 0)
(0.143289 -0.336111 0)
(0.0605575 -0.412886 0)
(0.231285 0.158595 0)
(0.291395 0.117082 0)
(0.440823 0.0758886 0)
(0.53956 0.0505551 0)
(0.606464 0.0342265 0)
(0.655836 0.0234772 0)
(0.693829 0.0164992 0)
(0.723795 0.0119874 0)
(0.748074 0.00903701 0)
(0.768317 0.00707825 0)
(0.785658 0.00576017 0)
(0.800875 0.00485768 0)
(0.814498 0.00421728 0)
(0.826868 0.00372648 0)
(0.838157 0.00329578 0)
(0.848385 0.00284812 0)
(0.857422 0.00231386 0)
(0.864993 0.00162824 0)
(0.870683 0.000736796 0)
(0.873953 -0.000408474 0)
(0.874098 -0.00178513 0)
(0.870261 -0.0035086 0)
(0.861365 -0.00572543 0)
(0.846364 -0.00853933 0)
(0.822821 -0.0121681 0)
(0.789021 -0.0176258 0)
(0.733355 -0.027076 0)
(0.656126 -0.0490583 0)
(0.454189 -0.110074 0)
(0.313188 -0.17749 0)
)
;

boundaryField
{
    movingWall
    {
        type            fixedValue;
        value           uniform (1 0 0);
    }
    fixedWalls
    {
        type            noSlip;
    }
    frontAndBack
    {
        type            empty;
    }
}


// ************************************************************************* //
