/*--------------------------------*- C++ -*----------------------------------*\
  =========                 |
  \\      /  F ield         | OpenFOAM: The Open Source CFD Toolbox
   \\    /   O peration     | Website:  https://openfoam.org
    \\  /    A nd           | Version:  7
     \\/     M anipulation  |
\*---------------------------------------------------------------------------*/
FoamFile
{
    version     2.0;
    format      ascii;
    class       volVectorField;
    location    "0.94";
    object      U;
}
// * * * * * * * * * * * * * * * * * * * * * * * * * * * * * * * * * * * * * //

dimensions      [0 1 -1 0 0 0 0];

internalField   nonuniform List<vector> 
1936
(
(-15.366 3.65401 0)
(-73.4751 179.284 0)
(-36.6546 427.042 0)
(-8.31685 480.893 0)
(-9.38846 468.653 0)
(1.40969 473.674 0)
(15.4634 450.04 0)
(23.1614 389.825 0)
(21.1901 326.048 0)
(8.4735 292.718 0)
(-7.66395 290.143 0)
(-19.9201 320.751 0)
(-34.5903 440.415 0)
(-8.06235 541.981 0)
(27.4818 450.422 0)
(10.9825 313.23 0)
(-8.63791 280.671 0)
(-23.5801 297.122 0)
(-43.4414 427.258 0)
(1.90518 551.078 0)
(36.6846 452.718 0)
(17.3352 319.32 0)
(6.77139 290.316 0)
(-9.35443 298.18 0)
(-32.6042 396.394 0)
(-18.9314 527.454 0)
(23.741 480.647 0)
(20.8091 335.735 0)
(-3.8822 287.265 0)
(-14.8138 297.035 0)
(-38.5326 401.863 0)
(-8.61521 542.778 0)
(36.0808 480.349 0)
(23.4629 332.768 0)
(8.79755 287.819 0)
(-5.19648 288.189 0)
(-29.9595 367.549 0)
(-21.3866 511.647 0)
(20.8198 503.555 0)
(22.0345 361.853 0)
(-2.95421 295.734 0)
(-13.2289 293.105 0)
(-34.2477 357.588 0)
(-29.8 510.891 0)
(-16.1727 8.68126 0)
(-79.8706 1.12651 0)
(-40.7902 -4.13914 0)
(-10.3946 -3.20341 0)
(-10.6969 -1.91529 0)
(0.558994 -2.32874 0)
(15.2743 -1.94254 0)
(22.3102 -0.48147 0)
(18.3006 1.31181 0)
(5.6287 2.80936 0)
(-5.62363 3.0747 0)
(-16.6314 1.72096 0)
(-35.1388 -1.61803 0)
(-8.25442 -4.16005 0)
(28.5008 -1.8559 0)
(7.68678 2.30132 0)
(-9.56527 4.04727 0)
(-17.492 2.22078 0)
(-41.6568 -3.1108 0)
(2.12243 -5.37168 0)
(38.007 -1.78227 0)
(13.0125 1.77613 0)
(3.90792 3.32686 0)
(-5.7457 3.16431 0)
(-32.0781 -0.00909383 0)
(-19.6378 -3.76069 0)
(24.5623 -3.19474 0)
(17.6277 1.27075 0)
(-5.53048 3.86742 0)
(-9.42021 2.77502 0)
(-36.2385 -1.72803 0)
(-9.04553 -5.11222 0)
(37.4634 -2.70757 0)
(19.8735 1.2572 0)
(4.89876 3.34513 0)
(-1.62484 3.45483 0)
(-28.0782 0.341591 0)
(-22.2804 -3.53364 0)
(21.9973 -3.1048 0)
(20.6467 0.955216 0)
(-5.38472 3.50845 0)
(-8.1105 3.184 0)
(-29.9477 -0.112987 0)
(-31.0579 -4.66269 0)
(-5.71933 17.8466 0)
(-73.222 3.08583 0)
(-42.7499 -8.81178 0)
(-12.3424 -6.82374 0)
(-9.95686 -3.9594 0)
(0.449052 -4.87538 0)
(14.7576 -4.06322 0)
(22.1673 -0.867821 0)
(18.1609 2.89156 0)
(4.65013 5.59018 0)
(-6.46607 6.0265 0)
(-18.1436 3.88753 0)
(-36.3904 -3.19677 0)
(-6.9727 -9.25654 0)
(31.9674 -3.82109 0)
(12.1907 4.94611 0)
(-3.29779 7.724 0)
(-11.018 5.02054 0)
(-42.9073 -5.56954 0)
(-2.56381 -11.5763 0)
(37.9936 -3.57458 0)
(13.5422 4.24281 0)
(0.312592 6.55533 0)
(-9.13602 6.42849 0)
(-34.1923 0.143161 0)
(-17.5642 -8.36578 0)
(28.4527 -6.6351 0)
(19.8387 3.02334 0)
(-2.21396 7.47485 0)
(-5.98525 5.84794 0)
(-37.0305 -2.77375 0)
(-12.8116 -10.9438 0)
(37.1339 -5.66856 0)
(20.5799 3.22717 0)
(2.22766 6.61803 0)
(-4.10157 6.91253 0)
(-30.4375 1.10628 0)
(-23.5656 -7.71258 0)
(23.5791 -6.82836 0)
(24.2681 2.22321 0)
(0.367187 6.82512 0)
(-2.27455 6.41577 0)
(-27.8888 0.681303 0)
(-31.8695 -9.66965 0)
(3.98489 24.9184 0)
(-59.7782 5.8263 0)
(-36.8038 -11.9917 0)
(-14.353 -10.2762 0)
(-10.5157 -6.1925 0)
(-1.49396 -7.1511 0)
(9.64015 -5.88337 0)
(14.7774 -1.1366 0)
(11.1358 4.34055 0)
(0.594642 7.93151 0)
(-4.76231 8.44206 0)
(-11.5171 5.63383 0)
(-27.4513 -4.6878 0)
(-5.1248 -13.6774 0)
(24.9668 -5.62889 0)
(7.64892 6.76788 0)
(0.115011 10.4172 0)
(1.58926 7.80727 0)
(-31.3568 -6.61065 0)
(-5.36535 -16.5125 0)
(27.7463 -5.31447 0)
(6.20806 6.50064 0)
(-3.87194 9.423 0)
(-5.51181 8.87301 0)
(-25.4598 -0.190401 0)
(-11.7713 -12.4472 0)
(23.2677 -9.35228 0)
(11.9993 4.41657 0)
(-1.54228 10.1667 0)
(2.62518 8.56719 0)
(-25.5617 -3.02035 0)
(-12.3702 -15.5354 0)
(27.4433 -8.2801 0)
(12.0376 5.0017 0)
(-2.88601 9.46058 0)
(-1.38293 9.60838 0)
(-21.7217 1.60894 0)
(-18.6278 -11.3043 0)
(18.5795 -10.1579 0)
(17.6407 2.84742 0)
(1.20861 9.21705 0)
(5.63025 9.23274 0)
(-15.2339 1.86052 0)
(-25.2463 -13.413 0)
(12.5572 30.3494 0)
(-47.42 9.01708 0)
(-30.5221 -13.6452 0)
(-15.2159 -13.2706 0)
(-11.1371 -8.69085 0)
(-3.96421 -9.20073 0)
(3.93454 -7.2976 0)
(7.30914 -1.2736 0)
(4.83363 5.48778 0)
(-2.50416 9.57245 0)
(-2.88846 10.026 0)
(-6.24594 6.6763 0)
(-19.4083 -5.8631 0)
(-3.43138 -16.6842 0)
(18.685 -6.99147 0)
(4.54234 7.6407 0)
(0.835095 11.769 0)
(9.44743 9.81185 0)
(-20.7617 -6.3511 0)
(-7.49893 -19.3596 0)
(18.5866 -6.66353 0)
(1.11405 8.07471 0)
(-5.72362 11.386 0)
(-1.24329 10.1714 0)
(-17.6807 -0.78555 0)
(-6.58416 -15.2475 0)
(18.2272 -10.9203 0)
(5.93273 5.26004 0)
(-1.95672 11.5324 0)
(7.87078 10.2968 0)
(-15.7139 -2.63221 0)
(-11.439 -18.1469 0)
(18.623 -10.0857 0)
(5.78162 6.26131 0)
(-5.972 11.3643 0)
(1.61452 11.1414 0)
(-14.3288 1.84333 0)
(-13.8981 -13.6765 0)
(13.9073 -12.485 0)
(12.1288 2.88304 0)
(0.15623 10.4018 0)
(9.49081 11.0392 0)
(-6.04537 3.02222 0)
(-19.0317 -15.3657 0)
(19.3687 33.8582 0)
(-34.2885 12.4573 0)
(-23.6079 -13.7223 0)
(-14.3862 -15.4713 0)
(-11.5189 -11.1244 0)
(-6.59027 -10.8664 0)
(-1.75189 -8.25239 0)
(0.292444 -1.38903 0)
(-0.736337 6.14498 0)
(-4.66337 10.3085 0)
(-1.0609 10.6832 0)
(-1.7207 7.01587 0)
(-12.4886 -6.62128 0)
(-2.17992 -18.1962 0)
(12.8815 -7.82521 0)
(1.38458 7.75957 0)
(-0.40128 11.9927 0)
(12.6317 10.74 0)
(-11.7483 -5.1215 0)
(-8.39648 -20.0105 0)
(10.7596 -7.58555 0)
(-2.62874 8.7146 0)
(-5.60744 12.2271 0)
(3.6353 10.4067 0)
(-10.8428 -1.3873 0)
(-2.66051 -16.614 0)
(13.2556 -11.3332 0)
(1.02231 5.63651 0)
(-3.11047 11.7304 0)
(10.0853 10.8774 0)
(-7.87037 -1.82068 0)
(-9.78229 -18.7448 0)
(11.0655 -11.0292 0)
(0.995195 6.82567 0)
(-6.96957 12.1828 0)
(4.77992 11.562 0)
(-7.91372 1.9376 0)
(-9.52288 -14.7606 0)
(9.59882 -13.7062 0)
(7.0594 2.6137 0)
(-2.65848 10.5765 0)
(9.92936 11.6808 0)
(-0.0144921 3.85781 0)
(-13.398 -15.6377 0)
(22.7771 34.9922 0)
(-19.5104 15.7536 0)
(-15.5336 -12.1422 0)
(-11.6832 -16.4795 0)
(-11.0474 -13.0335 0)
(-8.6654 -11.976 0)
(-6.51653 -8.72553 0)
(-5.48869 -1.56043 0)
(-5.19433 6.14007 0)
(-5.80062 10.022 0)
(0.125722 10.3544 0)
(1.84147 6.68981 0)
(-6.88627 -6.84769 0)
(-1.47455 -18.1853 0)
(7.49455 -8.01383 0)
(-1.96764 7.27643 0)
(-1.88431 11.2969 0)
(12.1119 10.5146 0)
(-4.89258 -3.45113 0)
(-7.77914 -18.6623 0)
(4.55516 -7.9513 0)
(-5.11486 8.31909 0)
(-4.29241 11.8012 0)
(7.1012 9.75536 0)
(-5.26033 -1.77165 0)
(-0.219605 -16.4613 0)
(8.39052 -10.6653 0)
(-2.80483 5.57331 0)
(-3.78587 10.9606 0)
(9.79796 10.3534 0)
(-2.25662 -0.909309 0)
(-7.38274 -17.5452 0)
(5.06217 -11.0137 0)
(-2.53033 6.57319 0)
(-6.22782 11.837 0)
(6.61857 11.0236 0)
(-2.5344 1.94149 0)
(-5.59348 -14.5112 0)
(5.69365 -13.714 0)
(2.44907 2.24706 0)
(-4.91812 9.95692 0)
(8.26294 11.1319 0)
(3.51333 4.11174 0)
(-8.38281 -14.4776 0)
(21.93 33.439 0)
(-4.3459 18.1882 0)
(-6.31641 -8.94605 0)
(-7.20567 -15.8976 0)
(-9.16236 -13.935 0)
(-9.38066 -12.3516 0)
(-9.4351 -8.71501 0)
(-9.21722 -1.83062 0)
(-8.03715 5.35929 0)
(-6.05912 8.83567 0)
(0.580682 9.1486 0)
(4.09374 5.80644 0)
(-2.70214 -6.55999 0)
(-1.18907 -16.7248 0)
(2.73463 -7.55512 0)
(-4.91116 6.35042 0)
(-2.79013 9.83621 0)
(9.5732 9.29733 0)
(-0.360272 -1.86756 0)
(-5.8641 -15.7807 0)
(0.171804 -7.6042 0)
(-6.38218 7.03005 0)
(-2.89926 10.2618 0)
(8.01559 8.438 0)
(-1.03375 -1.9048 0)
(0.897823 -14.8732 0)
(3.85724 -9.14515 0)
(-5.37777 5.08966 0)
(-3.59304 9.42373 0)
(8.10046 8.94959 0)
(1.27098 -0.202244 0)
(-4.54387 -14.9411 0)
(0.769869 -10.0199 0)
(-4.81361 5.61216 0)
(-4.79886 10.4337 0)
(6.64874 9.7203 0)
(1.64835 1.78587 0)
(-2.28141 -12.9963 0)
(2.40087 -12.5014 0)
(-1.38315 1.79082 0)
(-5.46618 8.71091 0)
(6.08659 9.60044 0)
(5.25573 3.75519 0)
(-4.10566 -12.2303 0)
(17.1467 29.396 0)
(7.81161 18.9471 0)
(2.75517 -4.62667 0)
(-1.55223 -13.5497 0)
(-5.79767 -13.4569 0)
(-8.30796 -11.848 0)
(-10.0337 -8.23475 0)
(-10.4729 -2.17452 0)
(-8.95722 3.94276 0)
(-5.64063 6.99296 0)
(0.606249 7.31965 0)
(4.93468 4.48747 0)
(0.0943637 -5.83114 0)
(-1.0616 -14.0689 0)
(-0.852129 -6.51912 0)
(-6.60409 5.01901 0)
(-3.12274 7.87284 0)
(6.59144 7.44612 0)
(2.12878 -0.762426 0)
(-3.42091 -12.0229 0)
(-2.34416 -6.52605 0)
(-6.48892 5.17911 0)
(-2.03283 8.01276 0)
(6.95596 6.68624 0)
(1.8491 -1.85539 0)
(1.07262 -12.1365 0)
(0.283012 -7.12779 0)
(-6.36168 4.16448 0)
(-2.93649 7.40791 0)
(6.08075 7.06757 0)
(3.14724 0.115046 0)
(-1.92181 -11.5027 0)
(-1.7875 -8.18765 0)
(-5.81574 4.1867 0)
(-3.5218 8.33143 0)
(5.55291 7.86336 0)
(4.306 1.40279 0)
(0.115763 -10.5019 0)
(0.0641621 -10.2766 0)
(-3.88854 1.1948 0)
(-4.80772 6.98054 0)
(4.28414 7.50645 0)
(5.71778 2.94043 0)
(-0.928061 -9.31127 0)
(10.679 23.8112 0)
(13.3761 17.6145 0)
(9.15239 -0.314572 0)
(3.85941 -9.8156 0)
(-1.66231 -11.5205 0)
(-5.70719 -10.4271 0)
(-8.50231 -7.32148 0)
(-9.45735 -2.47842 0)
(-8.14235 2.27338 0)
(-4.74148 4.80476 0)
(0.476755 5.17449 0)
(4.58506 2.93672 0)
(1.64587 -4.76378 0)
(-0.981552 -10.6998 0)
(-2.98818 -5.11462 0)
(-6.70576 3.43494 0)
(-3.06976 5.71681 0)
(4.00904 5.36136 0)
(2.92045 -0.232747 0)
(-1.45662 -8.14317 0)
(-3.1685 -4.93495 0)
(-5.57872 3.21355 0)
(-1.55378 5.56053 0)
(5.13405 4.68051 0)
(3.21924 -1.62634 0)
(0.750163 -8.77179 0)
(-1.84404 -5.00781 0)
(-5.83041 2.92018 0)
(-2.26595 5.2643 0)
(4.20169 5.06314 0)
(3.62801 0.109666 0)
(-0.262184 -7.89163 0)
(-2.73787 -5.8897 0)
(-5.49444 2.65203 0)
(-2.52726 5.96146 0)
(4.13489 5.68434 0)
(5.08564 0.880361 0)
(1.38836 -7.51928 0)
(-1.12924 -7.48565 0)
(-4.64495 0.563858 0)
(-3.75318 4.95908 0)
(2.8685 5.27407 0)
(5.06744 1.93956 0)
(0.770006 -6.23506 0)
(5.72196 17.9688 0)
(12.7017 14.6933 0)
(11.4517 2.73794 0)
(7.31058 -5.69165 0)
(1.97727 -8.51798 0)
(-2.47192 -8.24588 0)
(-5.64966 -6.03697 0)
(-6.98895 -2.591 0)
(-6.25576 0.755615 0)
(-3.60514 2.6762 0)
(0.272729 3.0397 0)
(3.46766 1.45451 0)
(2.06024 -3.56131 0)
(-0.904371 -7.24403 0)
(-3.68805 -3.62451 0)
(-5.63628 1.94076 0)
(-2.72761 3.62469 0)
(1.97936 3.37293 0)
(2.40833 -0.0895725 0)
(-0.469421 -4.8259 0)
(-2.87704 -3.25001 0)
(-4.10826 1.58525 0)
(-1.16243 3.31179 0)
(3.27051 2.75073 0)
(3.0338 -1.26053 0)
(0.320068 -5.48635 0)
(-2.49866 -3.13466 0)
(-4.41518 1.69184 0)
(-1.67945 3.29788 0)
(2.55307 3.16684 0)
(3.01507 0.0121432 0)
(0.330139 -4.71019 0)
(-2.56727 -3.65702 0)
(-4.20149 1.37699 0)
(-1.66489 3.69794 0)
(2.74765 3.53763 0)
(4.23946 0.391922 0)
(1.66666 -4.67721 0)
(-1.36785 -4.73928 0)
(-3.92838 0.0788038 0)
(-2.64838 2.99937 0)
(1.69444 3.22502 0)
(3.65086 1.06715 0)
(1.19219 -3.55571 0)
(3.21613 12.8534 0)
(9.10559 11.2542 0)
(10.2113 4.08021 0)
(7.95483 -2.25392 0)
(3.97099 -5.24736 0)
(0.218997 -5.70387 0)
(-2.67848 -4.50478 0)
(-4.18616 -2.39755 0)
(-4.09257 -0.313332 0)
(-2.45313 0.962204 0)
(0.064902 1.24819 0)
(2.1255 0.284889 0)
(1.55562 -2.44726 0)
(-0.875361 -4.30675 0)
(-3.30831 -2.30988 0)
(-4.17611 0.795895 0)
(-2.27647 1.89938 0)
(0.487148 1.7477 0)
(1.22287 -0.118961 0)
(-0.319119 -2.49215 0)
(-2.16075 -1.88432 0)
(-2.69192 0.483664 0)
(-0.876545 1.54674 0)
(1.64782 1.24254 0)
(1.88164 -0.8656 0)
(-0.0521427 -2.91818 0)
(-2.15185 -1.7314 0)
(-2.89883 0.75239 0)
(-1.19609 1.74501 0)
(1.23317 1.65429 0)
(1.82991 -0.0536582 0)
(0.248166 -2.38121 0)
(-1.85861 -1.94095 0)
(-2.64439 0.51377 0)
(-0.974713 1.88708 0)
(1.54389 1.81294 0)
(2.66595 0.0650839 0)
(1.27002 -2.48763 0)
(-1.06632 -2.56529 0)
(-2.60085 -0.178905 0)
(-1.65501 1.46228 0)
(0.807358 1.63173 0)
(2.08825 0.476675 0)
(0.913064 -1.65709 0)
(2.0678 9.02125 0)
(5.37533 8.14961 0)
(7.05881 4.09912 0)
(6.30796 -0.00151783 0)
(4.01185 -2.48496 0)
(1.50934 -3.32095 0)
(-0.65539 -2.95013 0)
(-1.98742 -1.93337 0)
(-2.24908 -0.868508 0)
(-1.43836 -0.176495 0)
(-0.0533116 0.0117707 0)
(1.0105 -0.432848 0)
(0.696475 -1.57203 0)
(-0.874002 -2.24963 0)
(-2.458 -1.32577 0)
(-2.8537 0.109084 0)
(-1.83046 0.721163 0)
(-0.413315 0.636376 0)
(0.124982 -0.201853 0)
(-0.532339 -1.17971 0)
(-1.51186 -1.03494 0)
(-1.69157 -0.127329 0)
(-0.748424 0.403507 0)
(0.459201 0.298407 0)
(0.645908 -0.559264 0)
(-0.364746 -1.33328 0)
(-1.52195 -0.857326 0)
(-1.76556 0.185587 0)
(-0.863462 0.703112 0)
(0.341976 0.666493 0)
(0.722305 -0.0768997 0)
(-0.0424811 -1.00595 0)
(-1.14546 -0.900512 0)
(-1.42937 0.0404246 0)
(-0.54491 0.698012 0)
(0.656944 0.689984 0)
(1.24782 -0.0858451 0)
(0.641263 -1.13384 0)
(-0.664183 -1.1868 0)
(-1.43771 -0.246459 0)
(-0.929327 0.494742 0)
(0.255222 0.612911 0)
(0.910945 0.148201 0)
(0.479124 -0.597425 0)
(1.27406 6.47109 0)
(2.79656 5.88481 0)
(3.96197 3.5435 0)
(3.91518 1.12715 0)
(2.86082 -0.613119 0)
(1.48355 -1.49468 0)
(0.160668 -1.64324 0)
(-0.746184 -1.38041 0)
(-1.03963 -1.03317 0)
(-0.724045 -0.782096 0)
(-0.131959 -0.660892 0)
(0.237998 -0.727801 0)
(-0.0257625 -0.978198 0)
(-0.852673 -1.07112 0)
(-1.64389 -0.709965 0)
(-1.82264 -0.201493 0)
(-1.36503 0.0442234 0)
(-0.741507 0.00162052 0)
(-0.466187 -0.29131 0)
(-0.684066 -0.616675 0)
(-1.05652 -0.638716 0)
(-1.09272 -0.402345 0)
(-0.695579 -0.195423 0)
(-0.224486 -0.171999 0)
(-0.151755 -0.386626 0)
(-0.563031 -0.578825 0)
(-1.03322 -0.427461 0)
(-1.08303 -0.090936 0)
(-0.663281 0.120375 0)
(-0.145151 0.133006 0)
(0.0335514 -0.0960148 0)
(-0.251421 -0.389193 0)
(-0.667678 -0.415283 0)
(-0.721221 -0.16582 0)
(-0.338491 0.0676016 0)
(0.123418 0.0948938 0)
(0.35389 -0.147409 0)
(0.148269 -0.465403 0)
(-0.386055 -0.490695 0)
(-0.714937 -0.22649 0)
(-0.507369 0.0101756 0)
(-0.0220118 0.0821137 0)
(0.260281 -0.0200121 0)
(0.174071 -0.170033 0)
(0.757613 4.79716 0)
(1.56549 4.48425 0)
(2.13927 3.04957 0)
(2.21714 1.58956 0)
(1.76433 0.430474 0)
(1.03895 -0.328115 0)
(0.321923 -0.727117 0)
(-0.205233 -0.893934 0)
(-0.438129 -0.956748 0)
(-0.394519 -0.958396 0)
(-0.245672 -0.879712 0)
(-0.212205 -0.750178 0)
(-0.40795 -0.63821 0)
(-0.759273 -0.534658 0)
(-1.0497 -0.413845 0)
(-1.09701 -0.312182 0)
(-0.91583 -0.280069 0)
(-0.684115 -0.304715 0)
(-0.580342 -0.370197 0)
(-0.636979 -0.454926 0)
(-0.735438 -0.506146 0)
(-0.730915 -0.494238 0)
(-0.602445 -0.433492 0)
(-0.469999 -0.355448 0)
(-0.465756 -0.320467 0)
(-0.591447 -0.311653 0)
(-0.713683 -0.273773 0)
(-0.691177 -0.209186 0)
(-0.516657 -0.148128 0)
(-0.323399 -0.114109 0)
(-0.253205 -0.135408 0)
(-0.320872 -0.202562 0)
(-0.405801 -0.254808 0)
(-0.377988 -0.244326 0)
(-0.241699 -0.193009 0)
(-0.108148 -0.15588 0)
(-0.0441181 -0.174009 0)
(-0.0883564 -0.212396 0)
(-0.239063 -0.222309 0)
(-0.347587 -0.203563 0)
(-0.280337 -0.17846 0)
(-0.111385 -0.146265 0)
(-0.000862163 -0.116869 0)
(0.0320665 -0.0818324 0)
(0.462013 3.63745 0)
(1.06955 3.57817 0)
(1.42547 2.7099 0)
(1.47567 1.80677 0)
(1.28315 0.990609 0)
(0.900647 0.347977 0)
(0.461703 -0.131477 0)
(0.112028 -0.485619 0)
(-0.116936 -0.729277 0)
(-0.235034 -0.841691 0)
(-0.295571 -0.802344 0)
(-0.37468 -0.65198 0)
(-0.488258 -0.480951 0)
(-0.598274 -0.365419 0)
(-0.654124 -0.331922 0)
(-0.629724 -0.357445 0)
(-0.549485 -0.397865 0)
(-0.471263 -0.4182 0)
(-0.44268 -0.42477 0)
(-0.458458 -0.442582 0)
(-0.477425 -0.47885 0)
(-0.472156 -0.503539 0)
(-0.44493 -0.478492 0)
(-0.426227 -0.40133 0)
(-0.438578 -0.314097 0)
(-0.46673 -0.261914 0)
(-0.473867 -0.253789 0)
(-0.434666 -0.263201 0)
(-0.362344 -0.254466 0)
(-0.298863 -0.221904 0)
(-0.272808 -0.191197 0)
(-0.271408 -0.194777 0)
(-0.258162 -0.23361 0)
(-0.215876 -0.271014 0)
(-0.16853 -0.267807 0)
(-0.147036 -0.23313 0)
(-0.138176 -0.192466 0)
(-0.132424 -0.163627 0)
(-0.14675 -0.165228 0)
(-0.164839 -0.19897 0)
(-0.146537 -0.230991 0)
(-0.0955946 -0.225152 0)
(-0.0510556 -0.181282 0)
(-0.00694424 -0.116993 0)
(0.277527 2.77487 0)
(0.761263 2.88179 0)
(1.07071 2.39182 0)
(1.18881 1.83457 0)
(1.13814 1.28072 0)
(0.962201 0.752984 0)
(0.704553 0.28676 0)
(0.427983 -0.107826 0)
(0.188627 -0.40526 0)
(-0.000231128 -0.570883 0)
(-0.143409 -0.594149 0)
(-0.25351 -0.515594 0)
(-0.328054 -0.410056 0)
(-0.359785 -0.346282 0)
(-0.352399 -0.347094 0)
(-0.316795 -0.390349 0)
(-0.274029 -0.433571 0)
(-0.247652 -0.451434 0)
(-0.244521 -0.452354 0)
(-0.25306 -0.45695 0)
(-0.258702 -0.473629 0)
(-0.257845 -0.483727 0)
(-0.256536 -0.459512 0)
(-0.262013 -0.399039 0)
(-0.27248 -0.329988 0)
(-0.27664 -0.287986 0)
(-0.264083 -0.282763 0)
(-0.235215 -0.294142 0)
(-0.20237 -0.293241 0)
(-0.180257 -0.269659 0)
(-0.171172 -0.242016 0)
(-0.163071 -0.237018 0)
(-0.143143 -0.257804 0)
(-0.113706 -0.280368 0)
(-0.0946432 -0.277374 0)
(-0.0964805 -0.248501 0)
(-0.0986656 -0.210113 0)
(-0.0863802 -0.181312 0)
(-0.0708183 -0.180191 0)
(-0.062897 -0.207747 0)
(-0.058016 -0.238339 0)
(-0.0471399 -0.243551 0)
(-0.0316703 -0.220956 0)
(-0.00864472 -0.170172 0)
(0.156837 2.12703 0)
(0.509485 2.30092 0)
(0.760785 2.04161 0)
(0.925401 1.7121 0)
(0.984157 1.34584 0)
(0.943219 0.962431 0)
(0.824752 0.576275 0)
(0.656396 0.22287 0)
(0.472484 -0.0652444 0)
(0.302303 -0.257812 0)
(0.158892 -0.347668 0)
(0.046829 -0.360891 0)
(-0.0261594 -0.344668 0)
(-0.0601367 -0.341485 0)
(-0.0674191 -0.365729 0)
(-0.0586081 -0.404836 0)
(-0.0468371 -0.437852 0)
(-0.044527 -0.453039 0)
(-0.0532789 -0.455585 0)
(-0.0660452 -0.457349 0)
(-0.0755059 -0.461399 0)
(-0.0798809 -0.457671 0)
(-0.0831562 -0.434012 0)
(-0.0888585 -0.391231 0)
(-0.0952089 -0.345942 0)
(-0.0969957 -0.317084 0)
(-0.0900912 -0.309259 0)
(-0.0759785 -0.310632 0)
(-0.0618017 -0.305406 0)
(-0.0543696 -0.289252 0)
(-0.0538042 -0.272367 0)
(-0.053079 -0.268101 0)
(-0.0458355 -0.275842 0)
(-0.0338938 -0.282051 0)
(-0.0267532 -0.273517 0)
(-0.0293335 -0.250982 0)
(-0.0312871 -0.224755 0)
(-0.024383 -0.206514 0)
(-0.0126648 -0.204252 0)
(-0.00489254 -0.217975 0)
(-0.00498422 -0.235534 0)
(-0.00726728 -0.242709 0)
(-0.00629369 -0.236695 0)
(-0.00310044 -0.19822 0)
(0.0844839 1.64843 0)
(0.329109 1.82765 0)
(0.509184 1.68955 0)
(0.663106 1.49716 0)
(0.763544 1.26321 0)
(0.803168 0.999437 0)
(0.78448 0.719343 0)
(0.718606 0.442917 0)
(0.623791 0.198051 0)
(0.520355 0.00667333 0)
(0.423254 -0.123273 0)
(0.338942 -0.202393 0)
(0.271747 -0.253146 0)
(0.224303 -0.296438 0)
(0.192541 -0.341091 0)
(0.171642 -0.382089 0)
(0.15629 -0.412165 0)
(0.139499 -0.428277 0)
(0.119324 -0.434428 0)
(0.0984515 -0.436547 0)
(0.0808618 -0.435887 0)
(0.0684002 -0.4281 0)
(0.0594333 -0.40889 0)
(0.0518528 -0.380244 0)
(0.0451786 -0.351004 0)
(0.0401183 -0.330164 0)
(0.0381673 -0.319725 0)
(0.0394345 -0.313987 0)
(0.0412605 -0.305847 0)
(0.0403137 -0.293753 0)
(0.0358503 -0.282562 0)
(0.030452 -0.277524 0)
(0.0271944 -0.277542 0)
(0.0265889 -0.275557 0)
(0.0257578 -0.265835 0)
(0.0224148 -0.249428 0)
(0.0193923 -0.232298 0)
(0.0199034 -0.220726 0)
(0.0227288 -0.217154 0)
(0.0237404 -0.221225 0)
(0.0203571 -0.228331 0)
(0.0140949 -0.232998 0)
(0.00829872 -0.233237 0)
(0.00102413 -0.20133 0)
(0.0473298 1.28933 0)
(0.221569 1.44795 0)
(0.347875 1.36811 0)
(0.472436 1.25093 0)
(0.570793 1.10118 0)
(0.637541 0.92517 0)
(0.669796 0.731215 0)
(0.669912 0.531429 0)
(0.644331 0.341314 0)
(0.602152 0.174793 0)
(0.552456 0.0394539 0)
(0.50224 -0.0658615 0)
(0.454785 -0.148599 0)
(0.411432 -0.21684 0)
(0.373452 -0.275112 0)
(0.340573 -0.321864 0)
(0.311306 -0.355696 0)
(0.28353 -0.37688 0)
(0.256067 -0.388445 0)
(0.229539 -0.393888 0)
(0.205725 -0.394492 0)
(0.186007 -0.389102 0)
(0.170237 -0.376634 0)
(0.157153 -0.358668 0)
(0.14553 -0.33956 0)
(0.13489 -0.323654 0)
(0.125541 -0.312269 0)
(0.117749 -0.303383 0)
(0.110861 -0.294214 0)
(0.103604 -0.284203 0)
(0.0949886 -0.275189 0)
(0.0853869 -0.269069 0)
(0.0763056 -0.265138 0)
(0.0687348 -0.260278 0)
(0.062284 -0.251959 0)
(0.0559942 -0.240635 0)
(0.0500361 -0.229131 0)
(0.0451891 -0.220323 0)
(0.0411643 -0.215532 0)
(0.0365544 -0.214442 0)
(0.030206 -0.215485 0)
(0.0222352 -0.216833 0)
(0.0138743 -0.217454 0)
(0.00318209 -0.188548 0)
(0.0308583 1.00335 0)
(0.161262 1.13397 0)
(0.255479 1.08312 0)
(0.354667 1.00729 0)
(0.438785 0.908797 0)
(0.506118 0.791247 0)
(0.554224 0.659419 0)
(0.582365 0.51981 0)
(0.592033 0.380268 0)
(0.586585 0.248862 0)
(0.570136 0.131118 0)
(0.546256 0.0293193 0)
(0.518019 -0.0573407 0)
(0.487752 -0.130787 0)
(0.456566 -0.192317 0)
(0.425675 -0.241978 0)
(0.395708 -0.279658 0)
(0.366688 -0.306182 0)
(0.338534 -0.323484 0)
(0.311555 -0.333767 0)
(0.286453 -0.338399 0)
(0.263915 -0.337718 0)
(0.244132 -0.331902 0)
(0.226682 -0.322004 0)
(0.210875 -0.310113 0)
(0.196196 -0.298428 0)
(0.182481 -0.288091 0)
(0.169742 -0.278883 0)
(0.157811 -0.270038 0)
(0.14623 -0.261336 0)
(0.134519 -0.253418 0)
(0.122542 -0.246879 0)
(0.110678 -0.241383 0)
(0.0994714 -0.235803 0)
(0.0890748 -0.229045 0)
(0.0792755 -0.221085 0)
(0.0699432 -0.212942 0)
(0.0611149 -0.205859 0)
(0.0526547 -0.200576 0)
(0.044121 -0.197145 0)
(0.0350718 -0.195153 0)
(0.025453 -0.194049 0)
(0.0156683 -0.193419 0)
(0.00398735 -0.167024 0)
(0.0237129 0.760368 0)
(0.122076 0.862259 0)
(0.196022 0.828286 0)
(0.275061 0.777652 0)
(0.344069 0.711858 0)
(0.403137 0.633135 0)
(0.45099 0.544276 0)
(0.486693 0.448758 0)
(0.510353 0.350634 0)
(0.522494 0.254086 0)
(0.524584 0.162893 0)
(0.518677 0.0793433 0)
(0.50631 0.0046206 0)
(0.489149 -0.0608912 0)
(0.468645 -0.117095 0)
(0.445937 -0.163884 0)
(0.422058 -0.20131 0)
(0.397798 -0.22987 0)
(0.373664 -0.250569 0)
(0.350025 -0.264645 0)
(0.327307 -0.273145 0)
(0.305878 -0.276795 0)
(0.285946 -0.27618 0)
(0.267491 -0.272076 0)
(0.250307 -0.265578 0)
(0.234145 -0.257872 0)
(0.218816 -0.249851 0)
(0.204208 -0.241921 0)
(0.190193 -0.234152 0)
(0.176565 -0.226606 0)
(0.163127 -0.219488 0)
(0.149903 -0.213019 0)
(0.136769 -0.207178 0)
(0.123695 -0.201549 0)
(0.110931 -0.195727 0)
(0.0985208 -0.189593 0)
(0.0864288 -0.183411 0)
(0.074626 -0.17763 0)
(0.063052 -0.172628 0)
(0.0515804 -0.168574 0)
(0.040061 -0.16545 0)
(0.0284235 -0.163141 0)
(0.0171609 -0.161584 0)
(0.00431085 -0.13885 0)
(0.0197893 0.557523 0)
(0.0936753 0.632891 0)
(0.15343 0.609804 0)
(0.217187 0.575553 0)
(0.273549 0.531257 0)
(0.323533 0.47839 0)
(0.366617 0.41865 0)
(0.40193 0.354003 0)
(0.429153 0.286639 0)
(0.448698 0.218817 0)
(0.46066 0.152783 0)
(0.465421 0.090194 0)
(0.464155 0.0323887 0)
(0.457909 -0.0197728 0)
(0.447652 -0.0657478 0)
(0.434263 -0.105218 0)
(0.418597 -0.138079 0)
(0.401398 -0.164476 0)
(0.383255 -0.184841 0)
(0.364686 -0.199762 0)
(0.346076 -0.209882 0)
(0.327695 -0.2158 0)
(0.309785 -0.218069 0)
(0.292475 -0.217287 0)
(0.275783 -0.214128 0)
(0.259656 -0.209303 0)
(0.244021 -0.203451 0)
(0.228807 -0.19705 0)
(0.213942 -0.190414 0)
(0.199322 -0.183759 0)
(0.184806 -0.177261 0)
(0.170228 -0.171036 0)
(0.155747 -0.165198 0)
(0.141468 -0.159604 0)
(0.127272 -0.154166 0)
(0.113192 -0.148829 0)
(0.0992585 -0.143644 0)
(0.0854787 -0.138753 0)
(0.0718513 -0.13432 0)
(0.0583583 -0.13047 0)
(0.0449367 -0.127269 0)
(0.0314152 -0.124729 0)
(0.0187534 -0.122921 0)
(0.00448287 -0.105314 0)
(0.0180479 0.404516 0)
(0.0761519 0.458536 0)
(0.127698 0.442102 0)
(0.18189 0.418031 0)
(0.229871 0.387236 0)
(0.273358 0.350686 0)
(0.312165 0.309426 0)
(0.345541 0.264654 0)
(0.37307 0.217694 0)
(0.394674 0.169924 0)
(0.410348 0.122546 0)
(0.420443 0.0768932 0)
(0.425503 0.0339428 0)
(0.425944 -0.00553766 0)
(0.422426 -0.0409893 0)
(0.415668 -0.0720455 0)
(0.406243 -0.0985119 0)
(0.394707 -0.120365 0)
(0.381573 -0.137743 0)
(0.367289 -0.150908 0)
(0.352229 -0.160229 0)
(0.336721 -0.166092 0)
(0.321011 -0.168959 0)
(0.305256 -0.169175 0)
(0.289564 -0.167254 0)
(0.273996 -0.163677 0)
(0.258561 -0.158903 0)
(0.243248 -0.153338 0)
(0.228034 -0.147311 0)
(0.212874 -0.141078 0)
(0.197719 -0.134842 0)
(0.182535 -0.128756 0)
(0.167392 -0.122859 0)
(0.152248 -0.117233 0)
(0.137049 -0.11189 0)
(0.121886 -0.106835 0)
(0.106803 -0.102093 0)
(0.0918305 -0.0977217 0)
(0.0769964 -0.0937935 0)
(0.0623264 -0.0903787 0)
(0.0477801 -0.0875285 0)
(0.0330337 -0.0852675 0)
(0.0195899 -0.0836577 0)
(0.0043941 -0.0715947 0)
(0.0176791 0.292781 0)
(0.0655645 0.330875 0)
(0.112208 0.318654 0)
(0.159558 0.301136 0)
(0.201581 0.279054 0)
(0.240175 0.252966 0)
(0.275206 0.223518 0)
(0.306002 0.191499 0)
(0.332179 0.157785 0)
(0.353592 0.123286 0)
(0.370266 0.0888799 0)
(0.382351 0.055456 0)
(0.390095 0.0237105 0)
(0.393804 -0.00575019 0)
(0.393903 -0.0324636 0)
(0.390865 -0.0560965 0)
(0.385116 -0.0764413 0)
(0.377088 -0.0934096 0)
(0.367204 -0.107025 0)
(0.355852 -0.11741 0)
(0.343356 -0.124762 0)
(0.329927 -0.129333 0)
(0.31601 -0.131411 0)
(0.301791 -0.131317 0)
(0.287225 -0.129381 0)
(0.272506 -0.125952 0)
(0.257711 -0.121377 0)
(0.242866 -0.115985 0)
(0.227983 -0.110065 0)
(0.213061 -0.103863 0)
(0.198099 -0.0975838 0)
(0.183091 -0.0913882 0)
(0.168051 -0.0853542 0)
(0.152933 -0.0796465 0)
(0.137715 -0.0742924 0)
(0.122474 -0.0693326 0)
(0.107271 -0.0648042 0)
(0.0921481 -0.0607468 0)
(0.0771518 -0.0572043 0)
(0.06233 -0.0542203 0)
(0.0476617 -0.0518304 0)
(0.0327643 -0.0500529 0)
(0.0193541 -0.0488756 0)
(0.00417893 -0.0418409 0)
(0.0170891 0.208193 0)
(0.0570215 0.234379 0)
(0.0990125 0.225273 0)
(0.140011 0.212492 0)
(0.176754 0.196557 0)
(0.210806 0.177729 0)
(0.241968 0.156425 0)
(0.269647 0.13321 0)
(0.293526 0.108722 0)
(0.313475 0.083609 0)
(0.329515 0.0584109 0)
(0.341707 0.0339371 0)
(0.350127 0.010628 0)
(0.355019 -0.0110762 0)
(0.356697 -0.030811 0)
(0.355453 -0.0483033 0)
(0.351617 -0.0633678 0)
(0.345536 -0.0759047 0)
(0.337559 -0.0858954 0)
(0.328018 -0.0933939 0)
(0.317215 -0.0985178 0)
(0.305417 -0.101432 0)
(0.292885 -0.102284 0)
(0.279823 -0.1014 0)
(0.266377 -0.0989748 0)
(0.252681 -0.0952695 0)
(0.238827 -0.0905527 0)
(0.224882 -0.0850845 0)
(0.210892 -0.0791081 0)
(0.196884 -0.0728407 0)
(0.182886 -0.0664826 0)
(0.168907 -0.0601075 0)
(0.154838 -0.0539377 0)
(0.140671 -0.0481804 0)
(0.126511 -0.0428238 0)
(0.112392 -0.0379256 0)
(0.0983557 -0.033542 0)
(0.0844285 -0.0297203 0)
(0.0706273 -0.0264993 0)
(0.056994 -0.0239121 0)
(0.043536 -0.021989 0)
(0.029946 -0.020746 0)
(0.0177011 -0.0200789 0)
(0.00381503 -0.0172348 0)
(0.0156747 0.144314 0)
(0.0486845 0.161745 0)
(0.0852842 0.155057 0)
(0.119867 0.145804 0)
(0.151274 0.134305 0)
(0.180536 0.120665 0)
(0.207373 0.105149 0)
(0.231313 0.0881783 0)
(0.252086 0.0702502 0)
(0.269506 0.0518731 0)
(0.28376 0.0336518 0)
(0.29469 0.0159009 0)
(0.302153 -0.00100469 0)
(0.30652 -0.016731 0)
(0.30801 -0.0309939 0)
(0.306864 -0.0435789 0)
(0.303359 -0.0543351 0)
(0.29779 -0.0631729 0)
(0.290459 -0.0700619 0)
(0.281664 -0.0750254 0)
(0.271686 -0.0781343 0)
(0.260782 -0.0794986 0)
(0.249185 -0.0792576 0)
(0.237102 -0.0775852 0)
(0.224702 -0.0746617 0)
(0.212125 -0.0706839 0)
(0.19948 -0.0658558 0)
(0.186867 -0.0603828 0)
(0.174366 -0.0544596 0)
(0.161999 -0.0482016 0)
(0.149807 -0.0418157 0)
(0.137669 -0.0355602 0)
(0.125412 -0.0295826 0)
(0.113307 -0.0239093 0)
(0.101502 -0.0186543 0)
(0.089866 -0.0139022 0)
(0.0784235 -0.00971551 0)
(0.0671798 -0.00614989 0)
(0.056072 -0.00324906 0)
(0.0451152 -0.00104625 0)
(0.0343713 0.000429772 0)
(0.0237039 0.0011647 0)
(0.0141231 0.00132737 0)
(0.00301786 0.00107113 0)
(0.0134501 0.0972722 0)
(0.0401847 0.108408 0)
(0.0707188 0.103504 0)
(0.0989536 0.0967793 0)
(0.124856 0.0883794 0)
(0.148924 0.0783864 0)
(0.17083 0.0671074 0)
(0.190298 0.0548896 0)
(0.20722 0.0420529 0)
(0.221448 0.0289257 0)
(0.232593 0.0159652 0)
(0.240443 0.00326417 0)
(0.245378 -0.0088002 0)
(0.247676 -0.0199657 0)
(0.247425 -0.0300281 0)
(0.244852 -0.0388256 0)
(0.240224 -0.0462423 0)
(0.233817 -0.0522066 0)
(0.225918 -0.0566883 0)
(0.21681 -0.0596971 0)
(0.206761 -0.0612795 0)
(0.196024 -0.0615132 0)
(0.184832 -0.0605013 0)
(0.173398 -0.0583673 0)
(0.161904 -0.0552474 0)
(0.150503 -0.051289 0)
(0.13932 -0.0466349 0)
(0.128474 -0.0414266 0)
(0.118095 -0.0358133 0)
(0.108058 -0.0300325 0)
(0.0981782 -0.0241426 0)
(0.0886288 -0.0183875 0)
(0.0796314 -0.0128203 0)
(0.0712132 -0.00746923 0)
(0.063216 -0.00252422 0)
(0.0553897 0.00191296 0)
(0.0476698 0.00576468 0)
(0.0401743 0.00897394 0)
(0.0330157 0.0114934 0)
(0.0262208 0.0132855 0)
(0.0197643 0.0143203 0)
(0.0136095 0.014581 0)
(0.00834825 0.0142476 0)
(0.00156861 0.0120899 0)
(0.0106882 0.064173 0)
(0.0315194 0.0709769 0)
(0.055615 0.0673673 0)
(0.0775362 0.062521 0)
(0.0977876 0.0564885 0)
(0.116666 0.0493391 0)
(0.13371 0.0413211 0)
(0.148327 0.0327076 0)
(0.160297 0.0237343 0)
(0.169615 0.0146188 0)
(0.176177 0.00546564 0)
(0.180181 -0.00341912 0)
(0.181768 -0.0118181 0)
(0.180893 -0.0195554 0)
(0.177823 -0.0264777 0)
(0.172814 -0.0324662 0)
(0.166119 -0.0374336 0)
(0.157998 -0.0413229 0)
(0.14872 -0.044108 0)
(0.138557 -0.0457932 0)
(0.127774 -0.0464119 0)
(0.116629 -0.0460222 0)
(0.105361 -0.0447021 0)
(0.0941927 -0.042542 0)
(0.0833188 -0.0396398 0)
(0.0729298 -0.0361347 0)
(0.0631768 -0.0320973 0)
(0.0541149 -0.0276401 0)
(0.0457206 -0.0228775 0)
(0.0381397 -0.0179965 0)
(0.0314625 -0.0130652 0)
(0.0256334 -0.00809748 0)
(0.0207053 -0.00322631 0)
(0.016494 0.00140447 0)
(0.0127891 0.00569192 0)
(0.00966791 0.00954364 0)
(0.00710641 0.012867 0)
(0.0049653 0.0155887 0)
(0.00320604 0.0176476 0)
(0.00182746 0.018991 0)
(0.0008286 0.0195722 0)
(0.00028053 0.0193615 0)
(0.000625701 0.0185359 0)
(-0.000544569 0.0156062 0)
(0.00779277 0.042442 0)
(0.0230548 0.0464395 0)
(0.0406797 0.0437351 0)
(0.0564382 0.0403192 0)
(0.0708525 0.0361807 0)
(0.0838432 0.031338 0)
(0.0949747 0.0258704 0)
(0.103904 0.0199405 0)
(0.110507 0.0137437 0)
(0.114813 0.00746856 0)
(0.116947 0.00123335 0)
(0.116947 -0.00480528 0)
(0.114825 -0.0105097 0)
(0.11071 -0.0157491 0)
(0.104814 -0.0204074 0)
(0.0973747 -0.024395 0)
(0.0886096 -0.0276483 0)
(0.0787495 -0.0301233 0)
(0.0680397 -0.0317998 0)
(0.0567302 -0.0326845 0)
(0.0450752 -0.032807 0)
(0.0333259 -0.032217 0)
(0.0217285 -0.0309792 0)
(0.0105074 -0.0291699 0)
(-0.000150808 -0.026883 0)
(-0.0100079 -0.0241445 0)
(-0.0188705 -0.0210884 0)
(-0.0266443 -0.0177881 0)
(-0.0332342 -0.0143126 0)
(-0.038518 -0.0106495 0)
(-0.0424259 -0.0069426 0)
(-0.0449907 -0.0032414 0)
(-0.0462879 0.000383775 0)