/*--------------------------------*- C++ -*----------------------------------*\
  =========                 |
  \\      /  F ield         | OpenFOAM: The Open Source CFD Toolbox
   \\    /   O peration     | Website:  https://openfoam.org
    \\  /    A nd           | Version:  7
     \\/     M anipulation  |
\*---------------------------------------------------------------------------*/
FoamFile
{
    version     2.0;
    format      ascii;
    class       volScalarField;
    location    "8";
    object      p;
}
// * * * * * * * * * * * * * * * * * * * * * * * * * * * * * * * * * * * * * //

dimensions      [0 2 -2 0 0 0 0];

internalField   nonuniform List<scalar> 
900
(
8.45279e-07
-0.000144511
-0.000324796
-0.000483852
-0.000588738
-0.000620861
-0.000573423
-0.000445102
-0.000236283
5.2379e-05
0.000420014
0.00086471
0.00138223
0.00196454
0.00259848
0.00326478
0.00393795
0.00458699
0.00517759
0.00567538
0.00605018
0.00628063
0.00635831
0.00629042
0.00610076
0.00582817
0.00551664
0.00523218
0.00502908
0.00496655
0.000145333
-3.65402e-06
-0.00013066
-0.000232499
-0.000289852
-0.000288748
-0.000223227
-9.09544e-05
0.000109011
0.000376888
0.000712135
0.00111286
0.00157491
0.00209078
0.00264859
0.0032312
0.0038175
0.00438086
0.00489264
0.00532456
0.00565218
0.00585883
0.0059389
0.00589984
0.00576243
0.00555885
0.00532825
0.00511355
0.00495741
0.00490124
0.000334495
0.000118812
-1.14781e-05
-9.89882e-05
-0.000139966
-0.000125538
-5.27376e-05
7.94275e-05
0.000271692
0.000524619
0.000838278
0.00121159
0.00164142
0.00212149
0.00264141
0.00318631
0.00373607
0.00426594
0.00474881
0.00515741
0.005468
0.00566417
0.00574031
0.00570356
0.00557381
0.00538134
0.00516273
0.00495646
0.00479706
0.0047093
0.000505456
0.00021035
5.83844e-05
-3.12205e-05
-6.82125e-05
-4.90687e-05
2.54076e-05
0.000154111
0.000337103
0.000575194
0.000869315
0.00121969
0.00162479
0.00208019
0.00257734
0.00310274
0.00363758
0.00415749
0.00463488
0.00504119
0.0053507
0.00554492
0.00561646
0.00557143
0.0054295
0.00522113
0.00498318
0.00475443
0.00456622
0.00442495
0.000612322
0.00023714
5.81871e-05
-4.06574e-05
-8.05846e-05
-6.26955e-05
8.61556e-06
0.000130159
0.000301331
0.000523289
0.000798047
0.00112748
0.00151212
0.00194978
0.002434
0.00295275
0.00348871
0.00401681
0.00450785
0.00493024
0.0052543
0.00545728
0.00552822
0.00547113
0.00530544
0.00506316
0.00478394
0.0045104
0.00427411
0.00406779
0.000616481
0.000165852
-4.1802e-05
-0.000154161
-0.000202169
-0.000190794
-0.00012754
-1.7375e-05
0.000138629
0.000342162
0.000596566
0.000905686
0.00127251
0.00169754
0.00217684
0.00270007
0.00325232
0.00380671
0.0043317
0.0047913
0.00514973
0.00537754
0.00545774
0.00539043
0.0051942
0.00490345
0.00456312
0.00422353
0.00392107
0.00363903
0.000487823
-3.13971e-05
-0.000267286
-0.000395458
-0.000455315
-0.000455107
-0.000404949
-0.000311218
-0.000175198
5.53263e-06
0.000235861
0.000521905
0.000869533
0.00128254
0.00176024
0.00229488
0.00287494
0.00347189
0.00405166
0.00457277
0.00499122
0.00526777
0.00537592
0.00530874
0.00508214
0.00473302
0.00431391
0.00388698
0.00349797
0.00312113
0.000201358
-0.000379054
-0.000641689
-0.000786973
-0.000861875
-0.000877534
-0.000846284
-0.00077562
-0.000666862
-0.00051674
-0.000318687
-6.40574e-05
0.000256363
0.000650453
0.00112266
0.00167141
0.00228095
0.00293199
0.00358673
0.00419733
0.0047095
0.00507038
0.00523883
0.00519559
0.00494989
0.00453971
0.00402688
0.0034903
0.00299003
0.00249035
-0.000264593
-0.000898819
-0.00118653
-0.00135016
-0.00144361
-0.00148072
-0.00147582
-0.00143742
-0.00136689
-0.00126019
-0.00110916
-0.000902517
-0.000627261
-0.000270422
0.000178692
0.000724943
0.00136058
0.00207042
0.00281705
0.00354813
0.00419774
0.00469491
0.00497663
0.00500267
0.00476783
0.0043066
0.00369063
0.00302117
0.00237885
0.00171475
-0.000928847
-0.00160949
-0.00192079
-0.00210452
-0.00222098
-0.00228668
-0.00231799
-0.00232457
-0.00230815
-0.00226438
-0.00218389
-0.00205304
-0.00185476
-0.00156996
-0.00117953
-0.000668514
-3.31951e-05
0.000723786
0.00156941
0.00245086
0.00329124
0.00399718
0.00447429
0.00464811
0.00448514
0.00400622
0.00328995
0.00246617
0.00164468
0.000758725
-0.00180708
-0.00252652
-0.00286029
-0.00306662
-0.0032118
-0.00331519
-0.00339545
-0.00346387
-0.0035233
-0.00356997
-0.00359428
-0.003581
-0.00350931
-0.00335322
-0.00308294
-0.00266839
-0.00208648
-0.00132297
-0.00039275
0.000658559
0.00174741
0.00275578
0.00354718
0.00399434
0.0040129
0.00359012
0.00280158
0.00181067
0.000768405
-0.000414485
-0.00291115
-0.00366147
-0.00401686
-0.00424905
-0.00442984
-0.00458186
-0.0047266
-0.00487785
-0.00504078
-0.00521372
-0.00538857
-0.00555013
-0.0056749
-0.00572998
-0.00567284
-0.00545257
-0.0050158
-0.00432853
-0.00336487
-0.0021501
-0.000763724
0.000654675
0.00191764
0.00282267
0.00320147
0.00297299
0.00218634
0.0010374
-0.000266469
-0.00184006
-0.00424815
-0.00502118
-0.00539756
-0.0056592
-0.00588315
-0.00609578
-0.00632232
-0.00658032
-0.00687901
-0.00722097
-0.00760216
-0.00801002
-0.00842064
-0.00879519
-0.0090771
-0.00919125
-0.00904885
-0.00856399
-0.00766886
-0.00634281
-0.00464058
-0.00271057
-0.000792447
0.000814961
0.00181789
0.00201325
0.00137801
0.000124013
-0.00147091
-0.00354731
-0.00581953
-0.00660727
-0.00700387
-0.00729822
-0.00757222
-0.00785683
-0.00818216
-0.00857118
-0.0090393
-0.00959613
-0.0102449
-0.0109793
-0.0117784
-0.0125998
-0.013373
-0.0139954
-0.0143341
-0.0142399
-0.0135788
-0.0122588
-0.0102815
-0.00777891
-0.00502905
-0.00243662
-0.000462344
0.000497766
0.000271687
-0.000959084
-0.00284499
-0.00555168
-0.00762047
-0.00841579
-0.0088314
-0.0091601
-0.00948849
-0.00985317
-0.0102906
-0.010831
-0.0114984
-0.0123126
-0.0132875
-0.0144273
-0.0157182
-0.0171177
-0.0185434
-0.0198635
-0.0208963
-0.0214203
-0.0212086
-0.020084
-0.0179566
-0.0149037
-0.0112077
-0.00736436
-0.00402513
-0.00185368
-0.00128104
-0.00224792
-0.00436798
-0.00784058
-0.00963978
-0.0104377
-0.0108701
-0.0112315
-0.0116133
-0.0120593
-0.0126138
-0.0133165
-0.0142024
-0.0153041
-0.01665
-0.0182583
-0.0201267
-0.0222167
-0.0244367
-0.0266278
-0.0285576
-0.0299276
-0.0304035
-0.0297178
-0.0276497
-0.0241807
-0.0195468
-0.0142858
-0.00922355
-0.00534119
-0.00345538
-0.00377572
-0.00598139
-0.0103498
-0.0118608
-0.0126603
-0.0131055
-0.0134924
-0.013918
-0.014435
-0.015098
-0.0159581
-0.0170633
-0.0184612
-0.0201969
-0.0223058
-0.0247997
-0.0276476
-0.0307523
-0.0339305
-0.036903
-0.0393002
-0.0406904
-0.0406817
-0.0389315
-0.035288
-0.0298812
-0.0232138
-0.0162157
-0.0101759
-0.00639603
-0.00554627
-0.00756229
-0.0129283
-0.0142635
-0.0150699
-0.0155214
-0.015918
-0.0163648
-0.0169263
-0.0176702
-0.0186609
-0.019961
-0.0216341
-0.023743
-0.0263408
-0.0294548
-0.0330625
-0.0370642
-0.0412567
-0.0453204
-0.0488289
-0.0512819
-0.0521218
-0.0509348
-0.0474153
-0.0415399
-0.0336889
-0.0247804
-0.0163188
-0.0101123
-0.0074783
-0.0088837
-0.0152892
-0.0168283
-0.017657
-0.0181036
-0.0184816
-0.0189092
-0.0194672
-0.0202404
-0.0213087
-0.0227501
-0.0246439
-0.0270695
-0.0300966
-0.033766
-0.0380634
-0.0428871
-0.0480185
-0.0531068
-0.0576779
-0.0611667
-0.0629523
-0.0624976
-0.0593721
-0.0533871
-0.0447354
-0.0341946
-0.0233222
-0.0143393
-0.00931354
-0.00955976
-0.0169452
-0.0195425
-0.0204227
-0.0208458
-0.0211588
-0.0215028
-0.021983
-0.0227067
-0.0237719
-0.025272
-0.0273005
-0.0299507
-0.0333051
-0.0374146
-0.0422697
-0.0477658
-0.0536724
-0.0596164
-0.0650901
-0.0694861
-0.072145
-0.0724466
-0.0698645
-0.0640596
-0.0550156
-0.0432727
-0.0302588
-0.0184087
-0.0105029
-0.00897573
-0.0171233
-0.022411
-0.0233904
-0.0237575
-0.0239316
-0.0240964
-0.0243941
-0.0249613
-0.0259172
-0.0273696
-0.0294239
-0.0321828
-0.0357364
-0.0401401
-0.0453846
-0.0513605
-0.0578265
-0.0643937
-0.0705334
-0.0756148
-0.0789604
-0.0798885
-0.0778239
-0.0723101
-0.0631414
-0.0505884
-0.0358078
-0.0212065
-0.0101006
-0.00620415
-0.0146559
-0.0254745
-0.0266221
-0.0268734
-0.0267932
-0.0266428
-0.026619
-0.026897
-0.0276184
-0.0289038
-0.0308658
-0.0336114
-0.0372319
-0.0417804
-0.0472431
-0.0535012
-0.0603037
-0.0672496
-0.0737972
-0.0792994
-0.0830601
-0.084384
-0.0826404
-0.0772978
-0.068004
-0.0547893
-0.0384819
-0.0212622
-0.00672848
8.40451e-05
-0.00784932
-0.0288464
-0.030245
-0.0302664
-0.0297513
-0.0290971
-0.0285779
-0.028414
-0.028768
-0.0297681
-0.0315279
-0.0341519
-0.0377253
-0.0422917
-0.0478298
-0.0542042
-0.0611529
-0.0682613
-0.0749764
-0.0806394
-0.084536
-0.0859507
-0.0842058
-0.0787016
-0.0689688
-0.054859
-0.0368957
-0.0169416
0.00135966
0.0117102
0.0056676
-0.0327899
-0.0344955
-0.0340629
-0.0328294
-0.0314165
-0.030195
-0.0294276
-0.0292884
-0.0299027
-0.0313757
-0.0338006
-0.0372494
-0.041751
-0.0472625
-0.0536361
-0.060591
-0.0676986
-0.074392
-0.0799945
-0.0837642
-0.0849464
-0.0827861
-0.0766177
-0.0658744
-0.0502348
-0.0299945
-0.00668647
0.0161835
0.0311073
0.0290922
-0.0378879
-0.0397894
-0.0384573
-0.0360636
-0.0335572
-0.0314012
-0.0298754
-0.0291418
-0.0293043
-0.0304454
-0.0326365
-0.035928
-0.0403257
-0.0457628
-0.0520691
-0.0589426
-0.0659363
-0.0724638
-0.0778206
-0.0812217
-0.0818499
-0.078842
-0.0714264
-0.0588976
-0.0407949
-0.0172281
0.0106627
0.0399457
0.0613928
0.0664256
-0.045442
-0.0468308
-0.0437019
-0.0394766
-0.0354545
-0.0321198
-0.029706
-0.0283192
-0.0280124
-0.0288268
-0.0307983
-0.033945
-0.0382428
-0.0435959
-0.0498053
-0.056544
-0.063342
-0.0695868
-0.0745377
-0.0773496
-0.0771056
-0.0728512
-0.0636071
-0.0484801
-0.0267971
0.00153234
0.0355238
0.0743773
0.105765
0.122243
-0.0586259
-0.0568055
-0.0500515
-0.043
-0.0369453
-0.0321909
-0.0288054
-0.0267711
-0.0260465
-0.0266037
-0.0284251
-0.0314857
-0.0357236
-0.0410084
-0.0471105
-0.0536752
-0.0602067
-0.0660637
-0.0704666
-0.0725131
-0.0712024
-0.0653381
-0.0537974
-0.0353939
-0.00910886
0.0256193
0.0685158
0.118636
0.165463
0.203346
-0.0854927
-0.0711673
-0.0577006
-0.0463673
-0.037622
-0.031248
-0.0269128
-0.0243542
-0.0233712
-0.0238287
-0.0256369
-0.0287176
-0.0329676
-0.0382225
-0.0442241
-0.0505939
-0.0568135
-0.0622145
-0.0659748
-0.0671271
-0.0645796
-0.0570944
-0.0431771
-0.0212873
0.0101101
0.0524347
0.106449
0.172488
0.241062
0.323404
-0.137706
-0.0865455
-0.0645157
-0.0473012
-0.035441
-0.0277243
-0.0229372
-0.0203352
-0.0194939
-0.0201669
-0.0222004
-0.0254748
-0.0298591
-0.0351696
-0.0411347
-0.0473672
-0.0533436
-0.0583896
-0.0616678
-0.0621621
-0.0586535
-0.0499522
-0.034335
-0.00984558
0.025738
0.0753112
0.141974
0.23084
0.33862
0.508325
-0.310467
-0.0963524
-0.0473887
-0.028751
-0.0182681
-0.0127318
-0.0103577
-0.00987239
-0.0107002
-0.0126504
-0.0156528
-0.0196532
-0.0245698
-0.0302597
-0.0364864
-0.0428945
-0.0489895
-0.0541256
-0.0574998
-0.0581563
-0.054975
-0.0464164
-0.0308874
-0.00639183
0.0297272
0.0818339
0.156574
0.271659
0.446698
0.790472
)
;

boundaryField
{
    movingWall
    {
        type            zeroGradient;
    }
    fixedWalls
    {
        type            zeroGradient;
    }
    frontAndBack
    {
        type            empty;
    }
}


// ************************************************************************* //
