/*--------------------------------*- C++ -*----------------------------------*\
  =========                 |
  \\      /  F ield         | OpenFOAM: The Open Source CFD Toolbox
   \\    /   O peration     | Website:  https://openfoam.org
    \\  /    A nd           | Version:  7
     \\/     M anipulation  |
\*---------------------------------------------------------------------------*/
FoamFile
{
    version     2.0;
    format      ascii;
    class       volVectorField;
    location    "8";
    object      U;
}
// * * * * * * * * * * * * * * * * * * * * * * * * * * * * * * * * * * * * * //

dimensions      [0 1 -1 0 0 0 0];

internalField   nonuniform List<vector> 
900
(
(8.68692e-05 -8.57231e-05 0)
(8.10158e-05 -1.89347e-06 0)
(-0.000257353 0.000102905 0)
(-0.000862695 0.000182726 0)
(-0.00166016 0.000233096 0)
(-0.00258141 0.000260302 0)
(-0.00356948 0.000272023 0)
(-0.0045817 0.00027384 0)
(-0.00558559 0.000268676 0)
(-0.00655334 0.000257305 0)
(-0.00745742 0.000239025 0)
(-0.00826782 0.000212292 0)
(-0.00895075 0.000175328 0)
(-0.0094692 0.000126713 0)
(-0.00978505 6.59904e-05 0)
(-0.00986289 -5.81598e-06 0)
(-0.0096746 -8.62744e-05 0)
(-0.00920521 -0.000170274 0)
(-0.00845874 -0.000251013 0)
(-0.00746223 -0.000320419 0)
(-0.00626762 -0.000370115 0)
(-0.00495027 -0.000392767 0)
(-0.0036034 -0.000383467 0)
(-0.00232897 -0.000340864 0)
(-0.00122568 -0.000267691 0)
(-0.000374351 -0.000171211 0)
(0.000164623 -6.50051e-05 0)
(0.000373784 3.93854e-05 0)
(0.000299119 0.000112331 0)
(0.000100047 0.00010023 0)
(4.73995e-06 -8.4097e-05 0)
(-0.000398312 0.00039315 0)
(-0.00152076 0.000916446 0)
(-0.00319319 0.00133524 0)
(-0.00528544 0.00162524 0)
(-0.00766476 0.00180068 0)
(-0.0102081 0.00188569 0)
(-0.0128126 0.00190079 0)
(-0.0153916 0.00185829 0)
(-0.0178668 0.00176251 0)
(-0.0201614 0.00161165 0)
(-0.0221953 0.00140048 0)
(-0.0238836 0.00112324 0)
(-0.025138 0.000776696 0)
(-0.0258722 0.000362912 0)
(-0.0260105 -0.000108417 0)
(-0.0254966 -0.000617817 0)
(-0.024306 -0.00113561 0)
(-0.0224574 -0.0016236 0)
(-0.0200201 -0.00203815 0)
(-0.0171164 -0.00233545 0)
(-0.0139177 -0.00247811 0)
(-0.0106328 -0.00244199 0)
(-0.00748808 -0.00222197 0)
(-0.00470269 -0.00183509 0)
(-0.00246022 -0.00132185 0)
(-0.000883938 -0.000747907 0)
(-9.6507e-06 -0.000194095 0)
(0.000242356 0.000216507 0)
(0.000115336 0.0002953 0)
(-0.000110262 0.000261829 0)
(-0.000986564 0.00153163 0)
(-0.00293358 0.00279132 0)
(-0.00561519 0.00380672 0)
(-0.00885225 0.00453066 0)
(-0.0124742 0.00498345 0)
(-0.0163166 0.00520747 0)
(-0.0202357 0.00524202 0)
(-0.0241052 0.00511245 0)
(-0.027808 0.00482858 0)
(-0.0312281 0.00438787 0)
(-0.0342464 0.00378098 0)
(-0.0367391 0.00299842 0)
(-0.0385807 0.00203754 0)
(-0.0396511 0.000909173 0)
(-0.0398464 -0.000356944 0)
(-0.0390916 -0.00170797 0)
(-0.0373566 -0.00306811 0)
(-0.0346703 -0.00434192 0)
(-0.0311296 -0.0054223 0)
(-0.0269037 -0.00620285 0)
(-0.0222293 -0.00659334 0)
(-0.0173949 -0.00653592 0)
(-0.0127153 -0.0060189 0)
(-0.00849763 -0.00508529 0)
(-0.00500335 -0.00383515 0)
(-0.00241058 -0.00242384 0)
(-0.000779332 -0.00105719 0)
(-2.74278e-05 2.51916e-06 0)
(7.41189e-05 0.000405942 0)
(-0.000216012 0.000933493 0)
(-0.00155061 0.00334451 0)
(-0.00429921 0.00554674 0)
(-0.00793351 0.00729326 0)
(-0.0122147 0.00853964 0)
(-0.016939 0.00932264 0)
(-0.0219121 0.00970628 0)
(-0.0269628 0.00974921 0)
(-0.0319377 0.00948953 0)
(-0.0366922 0.00894212 0)
(-0.0410822 0.00810332 0)
(-0.0449593 0.00695962 0)
(-0.0481703 0.00549856 0)
(-0.05056 0.00372016 0)
(-0.0519804 0.00164797 0)
(-0.0523025 -0.000661965 0)
(-0.0514313 -0.00311626 0)
(-0.0493237 -0.00558144 0)
(-0.0460066 -0.00789136 0)
(-0.0415885 -0.00986012 0)
(-0.0362667 -0.0113025 0)
(-0.030324 -0.0120601 0)
(-0.0241121 -0.0120293 0)
(-0.0180226 -0.0111858 0)
(-0.0124452 -0.00960099 0)
(-0.00771962 -0.00744647 0)
(-0.00408717 -0.00498825 0)
(-0.00164622 -0.00257478 0)
(-0.000332205 -0.00062552 0)
(3.05808e-05 0.000352178 0)
(-0.00030562 0.00189868 0)
(-0.00205911 0.00579617 0)
(-0.00555742 0.009136 0)
(-0.010079 0.0117236 0)
(-0.0153208 0.0135534 0)
(-0.0210462 0.0146966 0)
(-0.0270364 0.0152464 0)
(-0.0331015 0.0152832 0)
(-0.0390713 0.0148578 0)
(-0.044784 0.0139892 0)
(-0.0500767 0.0126714 0)
(-0.0547807 0.0108854 0)
(-0.0587194 0.00861496 0)
(-0.0617125 0.00586228 0)
(-0.0635841 0.00266392 0)
(-0.0641763 -0.000896502 0)
(-0.0633642 -0.00468131 0)
(-0.061077 -0.00849268 0)
(-0.0573218 -0.0120838 0)
(-0.0521988 -0.0151759 0)
(-0.0459149 -0.0174874 0)
(-0.0387851 -0.0187723 0)
(-0.0312189 -0.0188625 0)
(-0.0236883 -0.0177083 0)
(-0.0166782 -0.0154049 0)
(-0.0106263 -0.0122024 0)
(-0.00585941 -0.0084943 0)
(-0.00253454 -0.0047917 0)
(-0.000620078 -0.00168985 0)
(-2.46753e-07 0.000139092 0)
(-0.000381063 0.00312484 0)
(-0.00250949 0.00883624 0)
(-0.00669417 0.0135055 0)
(-0.0120335 0.0170398 0)
(-0.0181618 0.0195074 0)
(-0.0248105 0.0210355 0)
(-0.0317406 0.0217578 0)
(-0.0387502 0.0217812 0)
(-0.0456611 0.0211703 0)
(-0.052303 0.0199474 0)
(-0.0585036 0.0181019 0)
(-0.0640807 0.0156066 0)
(-0.0688399 0.0124376 0)
(-0.0725765 0.00859485 0)
(-0.0750834 0.00412335 0)
(-0.0761654 -0.000869214 0)
(-0.075652 -0.00620124 0)
(-0.0734239 -0.0116093 0)
(-0.0694442 -0.0167575 0)
(-0.0637798 -0.021259 0)
(-0.0566253 -0.0247129 0)
(-0.048314 -0.0267569 0)
(-0.0393111 -0.0271293 0)
(-0.0301814 -0.0257296 0)
(-0.0215316 -0.022664 0)
(-0.0139332 -0.0182634 0)
(-0.0078363 -0.013068 0)
(-0.0034865 -0.00778155 0)
(-0.000900573 -0.00320801 0)
(-1.8815e-05 -0.000212728 0)
(-0.000445743 0.00458019 0)
(-0.00290778 0.0124065 0)
(-0.00771351 0.0185877 0)
(-0.013801 0.0231715 0)
(-0.0207475 0.0263319 0)
(-0.0282558 0.0282736 0)
(-0.0360717 0.0291839 0)
(-0.0439879 0.0292027 0)
(-0.0518256 0.0284113 0)
(-0.0594155 0.0268342 0)
(-0.0665835 0.0244537 0)
(-0.0731415 0.0212292 0)
(-0.0788815 0.0171216 0)
(-0.0835749 0.0121201 0)
(-0.0869778 0.00626744 0)
(-0.088845 -0.000314809 0)
(-0.0889429 -0.00740434 0)
(-0.0870786 -0.0146796 0)
(-0.0831404 -0.0217094 0)
(-0.0771303 -0.0279811 0)
(-0.0692015 -0.0329456 0)
(-0.0596859 -0.0360849 0)
(-0.0490991 -0.0369982 0)
(-0.0381131 -0.0354923 0)
(-0.0274919 -0.0316566 0)
(-0.0179914 -0.025899 0)
(-0.0102405 -0.0189287 0)
(-0.00461882 -0.0116864 0)
(-0.00121476 -0.00523863 0)
(-3.08256e-05 -0.000700692 0)
(-0.000502026 0.00623751 0)
(-0.00325974 0.0164514 0)
(-0.00862242 0.0243156 0)
(-0.0153893 0.0300505 0)
(-0.0230884 0.0339635 0)
(-0.0313998 0.0363576 0)
(-0.0400597 0.0374874 0)
(-0.0488621 0.0375343 0)
(-0.057636 0.0365989 0)
(-0.0662213 0.0347084 0)
(-0.0744513 0.0318336 0)
(-0.082139 0.0279136 0)
(-0.0890677 0.022884 0)
(-0.094986 0.0167089 0)
(-0.0996082 0.00941314 0)
(-0.102622 0.00111545 0)
(-0.103716 -0.00794107 0)
(-0.102599 -0.0173811 0)
(-0.0990448 -0.0266765 0)
(-0.0929525 -0.0351732 0)
(-0.0843966 -0.0421396 0)
(-0.0736761 -0.0468501 0)
(-0.061341 -0.0487003 0)
(-0.0481787 -0.0473394 0)
(-0.035147 -0.0427896 0)
(-0.0232502 -0.035518 0)
(-0.0133728 -0.0264268 0)
(-0.00609676 -0.0167547 0)
(-0.0016241 -0.00791227 0)
(-4.6113e-05 -0.00135292 0)
(-0.000550878 0.0080726 0)
(-0.00356787 0.0209181 0)
(-0.00942375 0.0306239 0)
(-0.0168003 0.0376103 0)
(-0.0251856 0.0423424 0)
(-0.0342435 0.0452409 0)
(-0.0437071 0.0466418 0)
(-0.0533791 0.0467765 0)
(-0.0631041 0.0457698 0)
(-0.0727403 0.043651 0)
(-0.0821373 0.0403758 0)
(-0.0911176 0.0358535 0)
(-0.0994614 0.0299808 0)
(-0.106896 0.0226783 0)
(-0.113092 0.0139305 0)
(-0.117665 0.00382849 0)
(-0.120201 -0.00739103 0)
(-0.120284 -0.0193115 0)
(-0.117542 -0.0313135 0)
(-0.111727 -0.0425894 0)
(-0.102787 -0.0521892 0)
(-0.0909419 -0.059118 0)
(-0.0767414 -0.0624839 0)
(-0.0610777 -0.061683 0)
(-0.0451294 -0.0565871 0)
(-0.0302189 -0.0476773 0)
(-0.0175867 -0.0360654 0)
(-0.0081177 -0.0233661 0)
(-0.00220047 -0.0114498 0)
(-7.48996e-05 -0.0022319 0)
(-0.000592171 0.0100618 0)
(-0.00383118 0.0257535 0)
(-0.0101142 0.0374456 0)
(-0.0180266 0.0457815 0)
(-0.0270259 0.0514053 0)
(-0.0367659 0.0548732 0)
(-0.0469836 0.0566166 0)
(-0.0574968 0.0569265 0)
(-0.0681737 0.055957 0)
(-0.0788995 0.0537403 0)
(-0.0895493 0.050212 0)
(-0.0999638 0.0452423 0)
(-0.109928 0.0386719 0)
(-0.119153 0.0303552 0)
(-0.127266 0.0202077 0)
(-0.133806 0.0082602 0)
(-0.13825 -0.00528437 0)
(-0.140032 -0.0199951 0)
(-0.138606 -0.0351798 0)
(-0.133538 -0.0498725 0)
(-0.124595 -0.0628742 0)
(-0.111856 -0.0728565 0)
(-0.095806 -0.07854 0)
(-0.0774009 -0.0789402 0)
(-0.0580394 -0.0736477 0)
(-0.0394224 -0.0630661 0)
(-0.0232667 -0.0485065 0)
(-0.0109023 -0.0320481 0)
(-0.00302367 -0.0161765 0)
(-0.000127717 -0.00344052 0)
(-0.000625053 0.0121801 0)
(-0.00404592 0.0309017 0)
(-0.0106848 0.0447091 0)
(-0.0190517 0.0544877 0)
(-0.0285814 0.0610787 0)
(-0.0389236 0.0651907 0)
(-0.0498242 0.0673638 0)
(-0.0611223 0.0679591 0)
(-0.072716 0.0671659 0)
(-0.0845252 0.0650208 0)
(-0.0964587 0.0614355 0)
(-0.108385 0.0562299 0)
(-0.120101 0.0491716 0)
(-0.131313 0.0400236 0)
(-0.14161 0.0286004 0)
(-0.15046 0.0148358 0)
(-0.157226 -0.00113953 0)
(-0.161195 -0.018912 0)
(-0.161632 -0.0377483 0)
(-0.157882 -0.0565346 0)
(-0.149482 -0.0738079 0)
(-0.136294 -0.0878534 0)
(-0.118649 -0.0969011 0)
(-0.0974756 -0.0994306 0)
(-0.0743387 -0.0945633 0)
(-0.0513431 -0.0824591 0)
(-0.0308048 -0.0645583 0)
(-0.0146887 -0.0434821 0)
(-0.00418157 -0.0225316 0)
(-0.000215898 -0.00512525 0)
(-0.000648307 0.0143995 0)
(-0.00420691 0.0363013 0)
(-0.0111236 0.0523347 0)
(-0.019853 0.0636408 0)
(-0.0298136 0.0712726 0)
(-0.0406549 0.076106 0)
(-0.0521347 0.0788036 0)
(-0.0641169 0.0798072 0)
(-0.0765339 0.0793484 0)
(-0.0893453 0.0774707 0)
(-0.1025 0.0740583 0)
(-0.115902 0.0688715 0)
(-0.129372 0.0615877 0)
(-0.142618 0.0518537 0)
(-0.155209 0.0393522 0)
(-0.166558 0.0238838 0)
(-0.175928 0.00546594 0)
(-0.182475 -0.0155597 0)
(-0.185291 -0.0384445 0)
(-0.18349 -0.0619616 0)
(-0.176341 -0.0843986 0)
(-0.163413 -0.103631 0)
(-0.144771 -0.117316 0)
(-0.121166 -0.12323 0)
(-0.0942018 -0.119784 0)
(-0.0663332 -0.106621 0)
(-0.0405658 -0.0851301 0)
(-0.0197269 -0.0584973 0)
(-0.00577199 -0.0310764 0)
(-0.000352706 -0.00748068 0)
(-0.000660757 0.0166891 0)
(-0.00430932 0.0418851 0)
(-0.011419 0.0602337 0)
(-0.0204075 0.073138 0)
(-0.030681 0.0818744 0)
(-0.041889 0.0874994 0)
(-0.053802 0.0908111 0)
(-0.066309 0.0923432 0)
(-0.0793774 0.0923772 0)
(-0.0930079 0.0909669 0)
(-0.107193 0.0879678 0)
(-0.121876 0.0830726 0)
(-0.13691 0.0758544 0)
(-0.152021 0.0658236 0)
(-0.166776 0.052504 0)
(-0.180563 0.0355318 0)
(-0.19259 0.0147726 0)
(-0.201916 -0.00955101 0)
(-0.207495 -0.0367227 0)
(-0.208246 -0.0654571 0)
(-0.203163 -0.0938458 0)
(-0.191472 -0.119384 0)
(-0.172838 -0.139121 0)
(-0.147651 -0.149996 0)
(-0.117322 -0.149424 0)
(-0.0844851 -0.136147 0)
(-0.0528276 -0.111141 0)
(-0.0262653 -0.078042 0)
(-0.00790489 -0.0424969 0)
(-0.000555075 -0.0107557 0)
(-0.000661759 0.0190153 0)
(-0.00435108 0.0475813 0)
(-0.0115653 0.0683087 0)
(-0.0207001 0.0828614 0)
(-0.0311495 0.0927466 0)
(-0.0425604 0.0992128 0)
(-0.054713 0.103206 0)
(-0.0675176 0.105364 0)
(-0.0809731 0.106024 0)
(-0.0951182 0.105257 0)
(-0.109987 0.102889 0)
(-0.125565 0.098542 0)
(-0.141744 0.0916751 0)
(-0.158283 0.0816502 0)
(-0.174773 0.0678156 0)
(-0.190617 0.0496205 0)
(-0.205026 0.0267521 0)
(-0.217028 -0.000715831 0)
(-0.225512 -0.0321683 0)
(-0.229272 -0.0663288 0)
(-0.227072 -0.101192 0)
(-0.217775 -0.13397 0)
(-0.200553 -0.161157 0)
(-0.175221 -0.178791 0)
(-0.142693 -0.183033 0)
(-0.105452 -0.171235 0)
(-0.0676807 -0.143359 0)
(-0.03452 -0.103118 0)
(-0.0107017 -0.0575974 0)
(-0.000845623 -0.0152613 0)
(-0.00065178 0.0213447 0)
(-0.00433575 0.0533178 0)
(-0.0115692 0.0764582 0)
(-0.020734 0.0926806 0)
(-0.0312076 0.103727 0)
(-0.0426281 0.111048 0)
(-0.0547784 0.115749 0)
(-0.0675835 0.118581 0)
(-0.0810658 0.119951 0)
(-0.0952951 0.119945 0)
(-0.110341 0.118367 0)
(-0.126228 0.114767 0)
(-0.142892 0.108491 0)
(-0.16014 0.0987515 0)
(-0.177617 0.0847186 0)
(-0.194788 0.0656514 0)
(-0.210931 0.0410486 0)
(-0.225137 0.0108101 0)
(-0.236322 -0.0246028 0)
(-0.243262 -0.0640085 0)
(-0.244595 -0.105441 0)
(-0.238865 -0.145995 0)
(-0.224713 -0.181774 0)
(-0.201211 -0.207982 0)
(-0.168434 -0.219376 0)
(-0.128241 -0.211401 0)
(-0.0848791 -0.182166 0)
(-0.0446163 -0.134655 0)
(-0.0142881 -0.0772738 0)
(-0.00125438 -0.021377 0)
(-0.000633073 0.0236474 0)
(-0.00427603 0.0590298 0)
(-0.0114576 0.0845844 0)
(-0.0205425 0.10246 0)
(-0.0308822 0.114633 0)
(-0.0420961 0.122768 0)
(-0.053961 0.128143 0)
(-0.0664071 0.131629 0)
(-0.0794704 0.133707 0)
(-0.0932406 0.134493 0)
(-0.107814 0.133769 0)
(-0.123251 0.13102 0)
(-0.139532 0.125491 0)
(-0.156526 0.116253 0)
(-0.173962 0.102318 0)
(-0.191416 0.0827694 0)
(-0.208302 0.0569298 0)
(-0.223863 0.0245226 0)
(-0.23715 -0.0141777 0)
(-0.247054 -0.0581993 0)
(-0.252224 -0.105739 0)
(-0.251007 -0.154004 0)
(-0.241573 -0.198982 0)
(-0.222177 -0.235285 0)
(-0.191776 -0.25631 0)
(-0.151067 -0.25521 0)
(-0.103666 -0.227236 0)
(-0.0564943 -0.173309 0)
(-0.0187775 -0.10245 0)
(-0.0018205 -0.0295534 0)
(-0.000610498 0.0259037 0)
(-0.00419779 0.0646722 0)
(-0.0112863 0.0926065 0)
(-0.0202028 0.112068 0)
(-0.0302564 0.125275 0)
(-0.0410364 0.134113 0)
(-0.0523043 0.140043 0)
(-0.0639862 0.14407 0)
(-0.0761218 0.146757 0)
(-0.0888109 0.148252 0)
(-0.102167 0.148325 0)
(-0.11628 0.146412 0)
(-0.131178 0.14167 0)
(-0.146806 0.13306 0)
(-0.163002 0.119463 0)
(-0.179492 0.0998268 0)
(-0.195882 0.0733279 0)
(-0.21165 0.039534 0)
(-0.226098 -0.00147643 0)
(-0.23834 -0.0490303 0)
(-0.247172 -0.101608 0)
(-0.250947 -0.156778 0)
(-0.247524 -0.210769 0)
(-0.234421 -0.258022 0)
(-0.209345 -0.290888 0)
(-0.171372 -0.300131 0)
(-0.122645 -0.277222 0)
(-0.0697953 -0.219173 0)
(-0.0242471 -0.133969 0)
(-0.00259469 -0.0403057 0)
(-0.000592649 0.0281122 0)
(-0.00414522 0.0702353 0)
(-0.0111505 0.100478 0)
(-0.0198493 0.121397 0)
(-0.029486 0.135464 0)
(-0.039608 0.144805 0)
(-0.0499554 0.151078 0)
(-0.0604455 0.15543 0)
(-0.071116 0.158511 0)
(-0.0820697 0.16051 0)
(-0.0934323 0.161196 0)
(-0.10532 0.159971 0)
(-0.117814 0.155936 0)
(-0.130944 0.147976 0)
(-0.144681 0.134887 0)
(-0.158926 0.115526 0)
(-0.173516 0.0889706 0)
(-0.188208 0.0546625 0)
(-0.202653 0.0124997 0)
(-0.216256 -0.0371181 0)
(-0.228086 -0.093122 0)
(-0.236713 -0.153648 0)
(-0.239934 -0.215538 0)
(-0.234763 -0.273594 0)
(-0.217763 -0.319729 0)
(-0.186147 -0.342661 0)
(-0.139802 -0.329549 0)
(-0.0837687 -0.271446 0)
(-0.030714 -0.172418 0)
(-0.00364476 -0.0541982 0)
(-0.000593748 0.0303021 0)
(-0.00418812 0.0757672 0)
(-0.0111975 0.108206 0)
(-0.0196893 0.130377 0)
(-0.0288143 0.145033 0)
(-0.0380707 0.154573 0)
(-0.0471787 0.16087 0)
(-0.0560511 0.165221 0)
(-0.064726 0.168371 0)
(-0.0733105 0.170553 0)
(-0.0819429 0.17155 0)
(-0.0907692 0.170755 0)
(-0.0999294 0.16724 0)
(-0.10955 0.159861 0)
(-0.119745 0.147377 0)
(-0.130612 0.128609 0)
(-0.142232 0.102584 0)
(-0.154656 0.0686623 0)
(-0.16787 0.026594 0)
(-0.181646 -0.0234598 0)
(-0.195446 -0.0809484 0)
(-0.208175 -0.144706 0)
(-0.217845 -0.212498 0)
(-0.22133 -0.280051 0)
(-0.214395 -0.339647 0)
(-0.19249 -0.378793 0)
(-0.152754 -0.380498 0)
(-0.0972549 -0.32816 0)
(-0.0381189 -0.21791 0)
(-0.00506772 -0.0718258 0)
(-0.000637429 0.0325504 0)
(-0.0044338 0.0814023 0)
(-0.0116444 0.115882 0)
(-0.0200195 0.138993 0)
(-0.0285835 0.153847 0)
(-0.0367894 0.163162 0)
(-0.0443535 0.169052 0)
(-0.0512017 0.172976 0)
(-0.0573874 0.175772 0)
(-0.063033 0.177727 0)
(-0.0682986 0.17865 0)
(-0.0733688 0.177944 0)
(-0.0784502 0.174694 0)
(-0.083775 0.167765 0)
(-0.0896054 0.155932 0)
(-0.0962351 0.138026 0)
(-0.103984 0.113075 0)
(-0.11318 0.0804008 0)
(-0.12411 0.0396469 0)
(-0.13691 -0.00926204 0)
(-0.151448 -0.0662289 0)
(-0.167055 -0.130813 0)
(-0.182189 -0.201881 0)
(-0.193987 -0.276541 0)
(-0.197946 -0.348311 0)
(-0.188218 -0.404714 0)
(-0.15916 -0.425634 0)
(-0.108775 -0.386088 0)
(-0.046322 -0.269839 0)
(-0.00701187 -0.0938032 0)
(-0.000764869 0.0350095 0)
(-0.00504869 0.0873999 0)
(-0.0128043 0.123699 0)
(-0.0212454 0.1473 0)
(-0.0292413 0.161806 0)
(-0.0362257 0.170335 0)
(-0.0419503 0.175279 0)
(-0.0463905 0.178261 0)
(-0.049644 0.180215 0)
(-0.0518702 0.18148 0)
(-0.0532671 0.1819 0)
(-0.0540701 0.180914 0)
(-0.0545607 0.177648 0)
(-0.05508 0.17102 0)
(-0.0560352 0.159857 0)
(-0.0579013 0.143045 0)
(-0.0612115 0.119645 0)
(-0.0665268 0.0889708 0)
(-0.0743885 0.0505878 0)
(-0.0852445 0.00422791 0)
(-0.0992988 -0.0503599 0)
(-0.116323 -0.113405 0)
(-0.135364 -0.184868 0)
(-0.15417 -0.263473 0)
(-0.168584 -0.3447 0)
(-0.172209 -0.417504 0)
(-0.157111 -0.460464 0)
(-0.116703 -0.440951 0)
(-0.0550883 -0.326652 0)
(-0.00970237 -0.120772 0)
(-0.00105262 0.0379543 0)
(-0.00629858 0.0941951 0)
(-0.0151277 0.131983 0)
(-0.0239031 0.155414 0)
(-0.0313338 0.168827 0)
(-0.036903 0.175859 0)
(-0.0404703 0.179214 0)
(-0.0421204 0.180681 0)
(-0.0420381 0.181275 0)
(-0.0404498 0.181379 0)
(-0.0376114 0.180877 0)
(-0.0338211 0.179259 0)
(-0.0294375 0.175717 0)
(-0.0249084 0.169258 0)
(-0.0207704 0.158787 0)
(-0.0176492 0.143272 0)
(-0.0162527 0.121827 0)
(-0.0173263 0.0937705 0)
(-0.0216016 0.0586132 0)
(-0.029734 0.0159426 0)
(-0.0422003 -0.0347409 0)
(-0.0591757 -0.0941969 0)
(-0.0802973 -0.163299 0)
(-0.10415 -0.242346 0)
(-0.127484 -0.3292 0)
(-0.144274 -0.415559 0)
(-0.145246 -0.481078 0)
(-0.119395 -0.487837 0)
(-0.0640132 -0.385704 0)
(-0.0134451 -0.153414 0)
(-0.00165114 0.0418696 0)
(-0.00862284 0.102466 0)
(-0.0192597 0.141191 0)
(-0.0286681 0.163478 0)
(-0.0354589 0.174793 0)
(-0.0393078 0.179452 0)
(-0.0403024 0.180492 0)
(-0.0387204 0.179845 0)
(-0.0348885 0.178575 0)
(-0.0291326 0.17709 0)
(-0.021786 0.175306 0)
(-0.0132155 0.172768 0)
(-0.00384721 0.168753 0)
(0.00577476 0.16236 0)
(0.0150111 0.152616 0)
(0.0231325 0.138574 0)
(0.0293048 0.119408 0)
(0.0326589 0.0944509 0)
(0.0323381 0.063167 0)
(0.0275512 0.0250378 0)
(0.0176227 -0.0206249 0)
(0.00206223 -0.0749071 0)
(-0.0193062 -0.139297 0)
(-0.0459733 -0.215357 0)
(-0.0759829 -0.303345 0)
(-0.10459 -0.398635 0)
(-0.122491 -0.484528 0)
(-0.115125 -0.521661 0)
(-0.0723156 -0.443172 0)
(-0.0185468 -0.192402 0)
(-0.00286479 0.0476134 0)
(-0.0127633 0.113211 0)
(-0.0260977 0.151865 0)
(-0.0362964 0.171546 0)
(-0.0420902 0.179429 0)
(-0.0436128 0.180667 0)
(-0.041359 0.178618 0)
(-0.0359067 0.175287 0)
(-0.0277832 0.171722 0)
(-0.0174444 0.168315 0)
(-0.00531088 0.164991 0)
(0.00818753 0.161347 0)
(0.0225633 0.156741 0)
(0.0372251 0.150374 0)
(0.0514781 0.141399 0)
(0.0645247 0.128964 0)
(0.075473 0.112306 0)
(0.0833887 0.0907737 0)
(0.0873426 0.0637942 0)
(0.0864532 0.0307692 0)
(0.0798891 -0.00910292 0)
(0.0669327 -0.0570584 0)
(0.0469629 -0.114886 0)
(0.0196214 -0.184927 0)
(-0.0145771 -0.269376 0)
(-0.0528879 -0.367607 0)
(-0.0875177 -0.468867 0)
(-0.10174 -0.537382 0)
(-0.0784312 -0.493875 0)
(-0.0250449 -0.238084 0)
(-0.00530676 0.0567378 0)
(-0.0199574 0.127792 0)
(-0.0367501 0.164432 0)
(-0.0472965 0.179304 0)
(-0.0509927 0.182019 0)
(-0.0488794 0.178652 0)
(-0.0421053 0.172758 0)
(-0.0316702 0.166276 0)
(-0.0183571 0.160136 0)
(-0.00276861 0.154641 0)
(0.0145952 0.149686 0)
(0.0332611 0.144892 0)
(0.0527202 0.139688 0)
(0.0723822 0.133382 0)
(0.0915547 0.125231 0)
(0.10944 0.11449 0)
(0.125149 0.100461 0)
(0.137737 0.0825167 0)
(0.146244 0.0600689 0)
(0.149723 0.0324761 0)
(0.147207 -0.00110362 0)
(0.137774 -0.0418966 0)
(0.120418 -0.0917403 0)
(0.0940837 -0.153243 0)
(0.0579574 -0.229766 0)
(0.012392 -0.324215 0)
(-0.0379698 -0.433132 0)
(-0.0759869 -0.529846 0)
(-0.0794532 -0.530844 0)
(-0.0321871 -0.289947 0)
(-0.0101646 0.0721456 0)
(-0.0321233 0.147808 0)
(-0.0519887 0.17864 0)
(-0.0606463 0.185417 0)
(-0.0593747 0.180811 0)
(-0.0508033 0.171633 0)
(-0.0370305 0.161319 0)
(-0.0195833 0.151492 0)
(0.00048395 0.142796 0)
(0.022448 0.135342 0)
(0.0457753 0.128932 0)
(0.0700107 0.123171 0)
(0.0946945 0.117539 0)
(0.119306 0.111432 0)
(0.143229 0.10421 0)
(0.165742 0.0952269 0)
(0.186024 0.0838674 0)
(0.203174 0.0695514 0)
(0.216233 0.0517119 0)
(0.224203 0.0297281 0)
(0.225992 0.00280999 0)
(0.220466 -0.0301917 0)
(0.206262 -0.0709146 0)
(0.181777 -0.121815 0)
(0.145169 -0.186599 0)
(0.0947226 -0.270586 0)
(0.0306327 -0.377609 0)
(-0.0322818 -0.493912 0)
(-0.0706317 -0.545195 0)
(-0.0378286 -0.346345 0)
(-0.0194849 0.0989508 0)
(-0.0514191 0.173787 0)
(-0.0694517 0.191913 0)
(-0.069241 0.186026 0)
(-0.0563746 0.17182 0)
(-0.0358259 0.156063 0)
(-0.0107766 0.14139 0)
(0.0168173 0.128682 0)
(0.0457941 0.118061 0)
(0.0754811 0.109315 0)
(0.105467 0.102079 0)
(0.135452 0.0959067 0)
(0.165144 0.0903009 0)
(0.194192 0.0847347 0)
(0.22215 0.0786693 0)
(0.24845 0.0715713 0)
(0.272401 0.0629263 0)
(0.293199 0.0522398 0)
(0.309935 0.0390167 0)
(0.321601 0.0227177 0)
(0.326944 0.00268115 0)
(0.324687 -0.0219596 0)
(0.313175 -0.0525523 0)
(0.29035 -0.0911518 0)
(0.25358 -0.14108 0)
(0.199657 -0.208472 0)
(0.125431 -0.302893 0)
(0.0390611 -0.426592 0)
(-0.0444626 -0.527519 0)
(-0.0373365 -0.402645 0)
(-0.0348738 0.143121 0)
(-0.0743903 0.198553 0)
(-0.0706806 0.193155 0)
(-0.044987 0.170305 0)
(-0.00874335 0.146111 0)
(0.0314988 0.125147 0)
(0.0724502 0.108083 0)
(0.112598 0.0945119 0)
(0.151329 0.0838127 0)
(0.188486 0.075382 0)
(0.224109 0.0686756 0)
(0.258279 0.0631989 0)
(0.291031 0.0584916 0)
(0.322303 0.054118 0)
(0.351896 0.0496618 0)
(0.379461 0.0447268 0)
(0.404491 0.0389385 0)
(0.426322 0.03194 0)
(0.444136 0.023376 0)
(0.456965 0.0128566 0)
(0.463605 -0.00012356 0)
(0.46269 -0.0160197 0)
(0.452282 -0.035756 0)
(0.430135 -0.0608157 0)
(0.393091 -0.0936711 0)
(0.337308 -0.139644 0)
(0.256416 -0.210179 0)
(0.152294 -0.324647 0)
(0.0150061 -0.465733 0)
(-0.0172359 -0.441602 0)
(-0.0377012 0.235647 0)
(-0.0484097 0.20293 0)
(0.0263074 0.152363 0)
(0.0979636 0.116751 0)
(0.164997 0.090474 0)
(0.225487 0.0713019 0)
(0.279141 0.0575625 0)
(0.326672 0.0476691 0)
(0.369071 0.0404324 0)
(0.407285 0.0350527 0)
(0.442104 0.0309787 0)
(0.474144 0.0277993 0)
(0.503832 0.0251852 0)
(0.531412 0.0228589 0)
(0.556935 0.0205775 0)
(0.58027 0.0181233 0)
(0.601103 0.0152998 0)
(0.618944 0.0119273 0)
(0.633135 0.00784104 0)
(0.64279 0.00287126 0)
(0.646984 -0.00313265 0)
(0.644506 -0.0105347 0)
(0.633496 -0.0197343 0)
(0.61191 -0.0314177 0)
(0.57639 -0.0468618 0)
(0.523302 -0.0694612 0)
(0.442818 -0.107476 0)
(0.333471 -0.188004 0)
(0.143252 -0.335789 0)
(0.0605756 -0.412723 0)
(0.231249 0.158597 0)
(0.291116 0.116912 0)
(0.440134 0.0757033 0)
(0.538523 0.0503958 0)
(0.605229 0.0341366 0)
(0.654619 0.0234788 0)
(0.692857 0.0165939 0)
(0.723277 0.0121651 0)
(0.748184 0.00928008 0)
(0.769186 0.00736362 0)
(0.787361 0.00606023 0)
(0.80342 0.00514108 0)
(0.817819 0.00445043 0)
(0.830816 0.00387644 0)
(0.842507 0.00333443 0)
(0.85285 0.00275719 0)
(0.861677 0.00209014 0)
(0.868715 0.00128597 0)
(0.873597 0.000312386 0)
(0.875872 -0.000870436 0)
(0.874948 -0.00219623 0)
(0.870082 -0.00385943 0)
(0.860384 -0.00595359 0)
(0.844864 -0.00860492 0)
(0.821139 -0.0120717 0)
(0.787489 -0.0174027 0)
(0.732226 -0.0267903 0)
(0.655508 -0.0488002 0)
(0.453974 -0.109919 0)
(0.313147 -0.177426 0)
)
;

boundaryField
{
    movingWall
    {
        type            fixedValue;
        value           uniform (1 0 0);
    }
    fixedWalls
    {
        type            noSlip;
    }
    frontAndBack
    {
        type            empty;
    }
}


// ************************************************************************* //
