/*--------------------------------*- C++ -*----------------------------------*\
  =========                 |
  \\      /  F ield         | OpenFOAM: The Open Source CFD Toolbox
   \\    /   O peration     | Website:  https://openfoam.org
    \\  /    A nd           | Version:  7
     \\/     M anipulation  |
\*---------------------------------------------------------------------------*/
FoamFile
{
    version     2.0;
    format      ascii;
    class       volScalarField;
    location    "9.1";
    object      p;
}
// * * * * * * * * * * * * * * * * * * * * * * * * * * * * * * * * * * * * * //

dimensions      [0 2 -2 0 0 0 0];

internalField   nonuniform List<scalar> 
900
(
6.55939e-07
-0.000152218
-0.000351874
-0.000533417
-0.000663323
-0.000721447
-0.000700206
-0.000597735
-0.000413705
-0.000147793
0.000200246
0.000629544
0.00113652
0.00171312
0.00234522
0.00301159
0.00368373
0.00432692
0.00490296
0.00537418
0.00570842
0.00588436
0.00589609
0.00575563
0.00549326
0.00515422
0.00479287
0.00447662
0.00426497
0.00421649
0.000151903
-5.10785e-06
-0.000146662
-0.000267024
-0.000345432
-0.000367057
-0.000325456
-0.000217837
-4.26173e-05
0.000201264
0.000514208
0.000895207
0.00134071
0.00184331
0.00239052
0.00296365
0.00353961
0.00408892
0.00457999
0.00498208
0.00526936
0.0054254
0.00544678
0.00534496
0.00514596
0.0048878
0.00461562
0.00437055
0.00420673
0.00416509
0.000361685
0.000131052
-1.4329e-05
-0.000119252
-0.000179801
-0.000186821
-0.000137274
-2.99364e-05
0.000136452
0.000363249
0.00065149
0.00100108
0.00140966
0.00187129
0.00237528
0.00290595
0.00344114
0.00395363
0.00441355
0.00479128
0.0050616
0.00520829
0.00522772
0.00513078
0.00494224
0.00469772
0.00443864
0.00420556
0.00403647
0.00396496
0.00055724
0.000239586
7.03774e-05
-3.68707e-05
-9.31174e-05
-9.51996e-05
-4.43426e-05
5.82621e-05
0.00021307
0.000421696
0.000686164
0.00100792
0.00138657
0.00181842
0.00229504
0.00280233
0.00331998
0.00382106
0.00427514
0.00465097
0.00492105
0.00506665
0.0050821
0.00497707
0.00477605
0.00451476
0.00423467
0.00397728
0.00377728
0.00365051
0.000689883
0.000282993
8.38581e-05
-3.36157e-05
-9.33286e-05
-9.74148e-05
-5.12166e-05
4.16672e-05
0.000180901
0.00036849
0.000607751
0.000902124
0.00125373
0.00166169
0.00212022
0.00261703
0.00313374
0.0036427
0.00411165
0.00450583
0.00479305
0.00494966
0.00496581
0.0048487
0.00462252
0.00432458
0.00399931
0.00369253
0.0034395
0.00324057
0.000715714
0.00022374
-7.43207e-06
-0.000139996
-0.000209165
-0.000221631
-0.000186378
-0.000109103
9.28658e-06
0.000171405
0.000382151
0.000647372
0.000972258
0.00135942
0.00180618
0.00230222
0.00283341
0.00336937
0.00387544
0.00431183
0.00463929
0.00482627
0.00485578
0.00473027
0.00447268
0.00412279
0.00373071
0.0033508
0.00302309
0.0027349
0.000599443
2.95383e-05
-0.000233291
-0.000383699
-0.000466961
-0.000493759
-0.000476216
-0.000421753
-0.000331604
-0.000202345
-2.72435e-05
0.00020234
0.000495232
0.000858249
0.00129225
0.00178741
0.00234788
0.00292825
0.00349437
0.00400109
0.00439965
0.00464688
0.00471429
0.00459559
0.00430993
0.00389933
0.00342207
0.00294574
0.00252038
0.00212246
0.000311067
-0.000328455
-0.000621325
-0.000791306
-0.000892836
-0.000940231
-0.000948376
-0.000926152
-0.000874991
-0.000790585
-0.000664234
-0.000484178
-0.000237342
8.84334e-05
0.000502667
0.00101034
0.00158325
0.00221534
0.00286309
0.00347282
0.00398367
0.00433612
0.00448377
0.00440482
0.00410937
0.00363944
0.00306325
0.00246713
0.00191679
0.00137503
-0.000175809
-0.000876073
-0.00119704
-0.00138832
-0.00151282
-0.00158832
-0.00163232
-0.00165511
-0.00165846
-0.00163737
-0.00158134
-0.00147542
-0.00130163
-0.00104112
-0.00067652
-0.000196291
0.000393508
0.00108164
0.00182902
0.00257813
0.00325472
0.00377758
0.00407356
0.00409456
0.00383174
0.00332114
0.00264084
0.00190241
0.00119472
0.000464015
-0.000884111
-0.00163564
-0.00198287
-0.00219779
-0.00235114
-0.00246424
-0.00255725
-0.00264218
-0.00272163
-0.00279055
-0.00283724
-0.00284381
-0.002787
-0.00263965
-0.00237314
-0.00196254
-0.0013963
-0.000671341
0.000181024
0.00110383
0.00201028
0.0027925
0.00333929
0.00356033
0.00341086
0.00290798
0.00213555
0.00123704
0.000334849
-0.000645089
-0.00183264
-0.0026252
-0.00299707
-0.00323882
-0.00342839
-0.00359084
-0.00374939
-0.00391842
-0.00410234
-0.00429728
-0.00449153
-0.00466521
-0.00478991
-0.00482903
-0.00473938
-0.00447623
-0.00400318
-0.00329144
-0.00235352
-0.00123582
-3.23295e-05
0.00112019
0.00206051
0.00263479
0.00273581
0.00233773
0.00151721
0.000454146
-0.000681586
-0.00198751
-0.00303496
-0.00385745
-0.00425255
-0.00452505
-0.00475947
-0.00498498
-0.00522852
-0.00550794
-0.00583099
-0.00619679
-0.00659567
-0.00700752
-0.0073998
-0.0077259
-0.00792522
-0.00792557
-0.00765126
-0.00705225
-0.00608935
-0.00478581
-0.00323134
-0.00158747
-7.41095e-05
0.00106742
0.00163079
0.00150697
0.00073691
-0.00046673
-0.00187031
-0.00359565
-0.00449806
-0.00533873
-0.00575562
-0.00606303
-0.00635129
-0.0066543
-0.00700367
-0.00742219
-0.00792291
-0.0085105
-0.00918006
-0.009914
-0.0106776
-0.0114149
-0.0120454
-0.0124659
-0.0125572
-0.012206
-0.0113299
-0.0098998
-0.00797883
-0.0057385
-0.00345624
-0.00148043
-0.000159447
0.000255784
-0.000282418
-0.00155114
-0.00324011
-0.00549356
-0.00622117
-0.00706812
-0.00750502
-0.00785069
-0.00820058
-0.00859403
-0.00906856
-0.00965361
-0.0103699
-0.0112306
-0.0122388
-0.013383
-0.0146292
-0.0159134
-0.017135
-0.0181549
-0.0188009
-0.018886
-0.0182727
-0.0168425
-0.0146066
-0.01172
-0.00849943
-0.00540416
-0.00296211
-0.00163823
-0.00165318
-0.00282973
-0.00478598
-0.00768717
-0.00819493
-0.00903708
-0.00949139
-0.00987644
-0.0102921
-0.0107841
-0.0113974
-0.0121698
-0.0131322
-0.0143092
-0.0157153
-0.0173486
-0.0191793
-0.0211382
-0.0231052
-0.0249042
-0.0263092
-0.0270647
-0.0269063
-0.0256612
-0.0232463
-0.0197597
-0.015518
-0.0110663
-0.00712478
-0.00444033
-0.00351951
-0.00433373
-0.00647718
-0.0101481
-0.0104015
-0.0112301
-0.0116978
-0.012119
-0.0125978
-0.0131876
-0.0139419
-0.0149094
-0.0161331
-0.0176513
-0.0194929
-0.0216686
-0.0241558
-0.026883
-0.0297131
-0.0324347
-0.0347668
-0.0363744
-0.0368987
-0.0360703
-0.0336918
-0.029768
-0.0245618
-0.0186473
-0.0129045
-0.00839495
-0.00602902
-0.00608044
-0.00823859
-0.0127891
-0.0128156
-0.0136262
-0.0141012
-0.0145488
-0.0150776
-0.0157502
-0.0166312
-0.0177816
-0.0192581
-0.0211145
-0.0233957
-0.0261262
-0.0292928
-0.0328238
-0.0365681
-0.0402836
-0.0436389
-0.0462278
-0.0475999
-0.0474121
-0.0453245
-0.0412246
-0.035269
-0.0279792
-0.0203118
-0.0136102
-0.00926611
-0.00804127
-0.00992284
-0.015429
-0.0154075
-0.0162028
-0.0166759
-0.0171304
-0.017681
-0.0184026
-0.0193737
-0.020669
-0.0223605
-0.0245176
-0.0272008
-0.0304489
-0.0342577
-0.0385561
-0.0431822
-0.0478677
-0.05224
-0.0558458
-0.0581916
-0.0587509
-0.0571679
-0.053187
-0.0468144
-0.0384362
-0.0289644
-0.0199142
-0.0131497
-0.0100831
-0.0112711
-0.0177482
-0.018147
-0.0189407
-0.019398
-0.0198261
-0.0203506
-0.0210638
-0.0220616
-0.0234353
-0.0252722
-0.0276566
-0.0306633
-0.0343426
-0.0386976
-0.0436573
-0.0490507
-0.0545896
-0.0598708
-0.0644009
-0.067639
-0.0690188
-0.068079
-0.0644635
-0.0580272
-0.048967
-0.038031
-0.0267402
-0.0173146
-0.0118826
-0.0118618
-0.0192292
-0.0210109
-0.021832
-0.022252
-0.0226011
-0.0230264
-0.0236454
-0.0245782
-0.0259351
-0.027819
-0.0303272
-0.0335456
-0.0375324
-0.0422945
-0.047759
-0.0537462
-0.0599535
-0.0659576
-0.0712382
-0.075224
-0.0773353
-0.0770341
-0.0738998
-0.0676545
-0.0582957
-0.0463288
-0.0331123
-0.0210203
-0.01283
-0.0110471
-0.0190807
-0.0239936
-0.0248914
-0.0252388
-0.0254283
-0.0256485
-0.0260564
-0.0268043
-0.0280252
-0.029837
-0.0323473
-0.0356484
-0.0398018
-0.0448136
-0.0506055
-0.0569888
-0.0636494
-0.0701536
-0.0759647
-0.0804914
-0.0831597
-0.0833531
-0.0806488
-0.074661
-0.0652143
-0.0525552
-0.0377644
-0.0231484
-0.0119492
-0.00787975
-0.0161376
-0.0271258
-0.0281727
-0.0283851
-0.0282921
-0.0281605
-0.0282067
-0.0286259
-0.0295762
-0.0311889
-0.0335774
-0.0368351
-0.0410207
-0.0461337
-0.0520867
-0.0586795
-0.0655874
-0.0723811
-0.0785062
-0.0833318
-0.086263
-0.0867833
-0.0843146
-0.0784348
-0.0688386
-0.0555552
-0.039353
-0.0223046
-0.00788423
-0.00103501
-0.00873441
-0.0305109
-0.0317956
-0.0317562
-0.0311919
-0.0305094
-0.0300101
-0.0299404
-0.0304831
-0.0317776
-0.0339366
-0.0370475
-0.0411589
-0.0462598
-0.0522495
-0.0589158
-0.0659209
-0.0728095
-0.0790253
-0.0839518
-0.086969
-0.0874897
-0.0849318
-0.0788236
-0.0687205
-0.0545081
-0.0366715
-0.0169895
0.00103382
0.0112715
0.0054473
-0.0344021
-0.0359889
-0.0354704
-0.0341426
-0.0326453
-0.0313874
-0.0306653
-0.030677
-0.0315593
-0.0334136
-0.0363122
-0.0402863
-0.0453052
-0.0512509
-0.0578943
-0.0648835
-0.0717477
-0.0779182
-0.0827625
-0.0856254
-0.0858642
-0.0828433
-0.0759896
-0.0647963
-0.0489873
-0.0288212
-0.00578904
0.0167165
0.0314047
0.0295373
-0.0393742
-0.0411615
-0.0397145
-0.0371737
-0.0345217
-0.0322725
-0.0307481
-0.0301372
-0.0305533
-0.0320719
-0.0347392
-0.0385588
-0.0434747
-0.049345
-0.0559198
-0.0628295
-0.0695862
-0.0756005
-0.0802084
-0.0827038
-0.0823692
-0.0784717
-0.0703176
-0.0572715
-0.0389115
-0.015353
0.0123416
0.0412513
0.0623935
0.0674667
-0.0467281
-0.0480166
-0.0447405
-0.0403118
-0.0360849
-0.0326082
-0.0301644
-0.028887
-0.0288331
-0.0300365
-0.0324985
-0.0361882
-0.0410168
-0.0468134
-0.053303
-0.0600942
-0.066678
-0.0724384
-0.0766715
-0.0786066
-0.0774295
-0.0722568
-0.062242
-0.0465503
-0.0245445
0.00386252
0.037726
0.0762454
0.107341
0.123756
-0.0596592
-0.0577635
-0.0508312
-0.0435257
-0.0372185
-0.0322888
-0.0288582
-0.026933
-0.0264742
-0.0274364
-0.0297659
-0.0333851
-0.0381664
-0.0439059
-0.0503017
-0.0569391
-0.0632859
-0.0686973
-0.072426
-0.0736352
-0.0714045
-0.0646598
-0.0523501
-0.033363
-0.00672171
0.0281312
0.0709507
0.120818
0.16741
0.205193
-0.0862965
-0.0719359
-0.0582608
-0.046637
-0.0376083
-0.0310401
-0.0266561
-0.0242122
-0.0235045
-0.0243766
-0.0266998
-0.0303424
-0.0351366
-0.0408475
-0.0471496
-0.0536087
-0.0596735
-0.064672
-0.0678108
-0.068184
-0.0647773
-0.0564461
-0.0417809
-0.019315
0.0124441
0.0549111
0.108882
0.174751
0.243118
0.325423
-0.138405
-0.0872831
-0.0649791
-0.0474594
-0.0352959
-0.0273717
-0.0225271
-0.020034
-0.0194621
-0.0205415
-0.0230788
-0.0269023
-0.0318187
-0.0375781
-0.0438459
-0.0501838
-0.0560372
-0.0607284
-0.0634458
-0.0632295
-0.0589211
-0.0494196
-0.0330834
-0.00803419
0.0279093
0.0776356
0.144277
0.233023
0.340665
0.510322
-0.311289
-0.0971444
-0.0479437
-0.0289666
-0.0181535
-0.0123816
-0.00991779
-0.00950738
-0.0105709
-0.0128959
-0.0163755
-0.0209057
-0.0263456
-0.0324887
-0.0390377
-0.0455863
-0.0516071
-0.056446
-0.0593181
-0.0593165
-0.0554019
-0.0460654
-0.0298411
-0.00478235
0.0317257
0.0840293
0.158793
0.273791
0.448718
0.792448
)
;

boundaryField
{
    movingWall
    {
        type            zeroGradient;
    }
    fixedWalls
    {
        type            zeroGradient;
    }
    frontAndBack
    {
        type            empty;
    }
}


// ************************************************************************* //
