/*--------------------------------*- C++ -*----------------------------------*\
  =========                 |
  \\      /  F ield         | OpenFOAM: The Open Source CFD Toolbox
   \\    /   O peration     | Website:  https://openfoam.org
    \\  /    A nd           | Version:  7
     \\/     M anipulation  |
\*---------------------------------------------------------------------------*/
FoamFile
{
    version     2.0;
    format      ascii;
    class       volVectorField;
    location    "0.42";
    object      U;
}
// * * * * * * * * * * * * * * * * * * * * * * * * * * * * * * * * * * * * * //

dimensions      [0 1 -1 0 0 0 0];

internalField   nonuniform List<vector> 
1936
(
(-14.5228 3.44895 0)
(-70.5502 176.725 0)
(-34.0219 409.93 0)
(-8.47483 450.531 0)
(-11.5451 435.868 0)
(-4.31711 450.613 0)
(9.6849 444.349 0)
(20.0135 393.918 0)
(19.8912 326.892 0)
(7.46811 286.701 0)
(-8.09265 282.135 0)
(-19.6777 308.463 0)
(-30.9205 415.962 0)
(-2.67843 522.237 0)
(33.4669 456.132 0)
(27.0043 317.068 0)
(12.6276 265.496 0)
(-2.2022 264.233 0)
(-22.4703 314.073 0)
(-32.4794 461.058 0)
(6.74803 526.67 0)
(33.8322 393.473 0)
(11.9463 275.509 0)
(-4.00236 260.911 0)
(-20.3359 289.66 0)
(-39.9817 423.443 0)
(-7.63091 521.77 0)
(27.9409 411.244 0)
(5.88876 287.967 0)
(-10.236 267.921 0)
(-28.6379 305.543 0)
(-37.444 451.634 0)
(10.7032 515.646 0)
(28.6266 381.093 0)
(2.39838 282.072 0)
(-7.47878 268.414 0)
(-30.8739 317.237 0)
(-31.3593 473.996 0)
(22.8076 505.264 0)
(31.8008 356.535 0)
(8.39799 276.832 0)
(0.236452 271.093 0)
(-25.6525 333.432 0)
(-24.9545 478.111 0)
(-15.5528 8.23944 0)
(-76.9569 1.08381 0)
(-38.05 -3.83741 0)
(-10.6358 -2.7747 0)
(-12.7464 -1.39304 0)
(-5.0842 -2.0138 0)
(9.19024 -2.14205 0)
(19.3675 -0.900749 0)
(18.2644 1.07369 0)
(5.22892 2.66517 0)
(-6.81759 2.96473 0)
(-15.9288 1.45743 0)
(-30.2848 -2.25946 0)
(-2.98782 -4.73608 0)
(34.7889 -2.51504 0)
(23.9528 0.951123 0)
(7.18722 3.11221 0)
(-0.167309 3.65166 0)
(-19.8924 1.6142 0)
(-33.626 -2.52109 0)
(7.19168 -4.48767 0)
(33.1882 -1.28169 0)
(7.01641 2.81716 0)
(-3.17836 3.84908 0)
(-16.295 2.3466 0)
(-40.6484 -1.45407 0)
(-7.42393 -4.38793 0)
(27.7668 -1.8631 0)
(2.1287 2.70975 0)
(-8.14028 3.86874 0)
(-23.1826 1.23016 0)
(-37.3797 -3.4053 0)
(11.8019 -4.30321 0)
(28.3524 -0.342024 0)
(-0.960322 3.09015 0)
(-4.59881 3.59422 0)
(-26.1552 0.665335 0)
(-31.7794 -4.15376 0)
(23.8733 -4.2956 0)
(29.6749 -0.0784767 0)
(4.05707 3.01775 0)
(3.02153 3.48163 0)
(-23.1425 0.813683 0)
(-26.2577 -3.46215 0)
(-5.93164 17.0136 0)
(-70.9761 2.9027 0)
(-39.3644 -8.22806 0)
(-12.245 -5.90193 0)
(-12.0332 -2.88189 0)
(-4.82136 -4.22454 0)
(9.48285 -4.49683 0)
(19.6139 -1.82046 0)
(18.542 2.31742 0)
(6.1294 5.31112 0)
(-5.00974 5.77259 0)
(-14.819 3.3461 0)
(-31.7878 -4.18391 0)
(-5.85846 -10.197 0)
(34.631 -5.2699 0)
(25.0528 2.63754 0)
(4.68604 6.3141 0)
(-2.97897 7.13748 0)
(-22.6917 3.67969 0)
(-34.994 -5.34517 0)
(8.55937 -9.83476 0)
(35.376 -2.18307 0)
(7.32296 5.99894 0)
(-3.01468 7.49995 0)
(-17.5784 5.15078 0)
(-41.1334 -2.96995 0)
(-3.51551 -9.69876 0)
(31.5179 -3.52706 0)
(4.9202 5.62921 0)
(-3.4482 7.48767 0)
(-19.9518 3.14622 0)
(-38.9348 -6.75654 0)
(11.8364 -9.44827 0)
(31.15 -0.442344 0)
(3.10976 6.2526 0)
(-0.576361 7.10875 0)
(-24.0182 2.09652 0)
(-34.2221 -8.48294 0)
(23.2472 -9.24631 0)
(30.5333 0.425283 0)
(2.58014 6.15723 0)
(0.619023 6.89273 0)
(-25.5286 2.13002 0)
(-27.5653 -7.51215 0)
(3.32873 23.836 0)
(-58.3583 5.43551 0)
(-33.8743 -11.2193 0)
(-14.344 -8.88574 0)
(-12.054 -4.65722 0)
(-5.1208 -6.27771 0)
(6.24591 -6.52651 0)
(13.338 -2.56364 0)
(12.3106 3.32982 0)
(3.32751 7.36793 0)
(-2.18784 7.99998 0)
(-6.8908 5.08523 0)
(-22.8987 -5.43497 0)
(-6.58043 -14.6894 0)
(25.1892 -7.71386 0)
(16.4362 4.24986 0)
(-1.69658 9.2242 0)
(-2.21844 9.93527 0)
(-15.7416 5.18572 0)
(-26.9091 -7.91597 0)
(6.98279 -14.3279 0)
(25.8377 -2.79053 0)
(0.755434 8.6767 0)
(-1.49919 10.5176 0)
(-10.2236 7.42693 0)
(-30.9108 -4.52603 0)
(-0.0673614 -14.1851 0)
(24.1445 -4.78588 0)
(0.627985 7.78912 0)
(1.61237 10.2458 0)
(-7.80393 5.1351 0)
(-30.0503 -9.0836 0)
(9.11193 -13.7699 0)
(23.1133 -0.865311 0)
(0.857736 8.58665 0)
(4.37062 9.99172 0)
(-11.7814 3.73859 0)
(-27.3787 -11.6112 0)
(17.2549 -13.301 0)
(20.6654 0.904556 0)
(-3.09804 8.8445 0)
(1.93527 9.60466 0)
(-17.0772 3.07128 0)
(-22.056 -10.94 0)
(11.4462 29.1105 0)
(-46.7677 8.41745 0)
(-27.8878 -12.7493 0)
(-14.9404 -11.5032 0)
(-11.9602 -6.83677 0)
(-5.92482 -8.21931 0)
(2.39249 -8.1058 0)
(6.87693 -3.09214 0)
(6.43583 4.00227 0)
(0.667291 8.68171 0)
(-0.337844 9.37108 0)
(-1.19163 6.25617 0)
(-14.9169 -6.01404 0)
(-6.96753 -17.5232 0)
(16.2325 -9.4649 0)
(9.72877 5.5066 0)
(-5.93501 11.3411 0)
(-0.296598 11.687 0)
(-10.0905 5.99682 0)
(-19.4161 -9.7953 0)
(5.43353 -17.2136 0)
(17.6201 -3.06265 0)
(-3.77955 10.3689 0)
(0.208061 12.425 0)
(-4.02651 8.83403 0)
(-21.6353 -5.75837 0)
(3.02325 -17.0393 0)
(17.6577 -5.48573 0)
(-2.25148 8.86106 0)
(4.28684 11.6885 0)
(0.744562 6.68435 0)
(-21.9226 -10.1093 0)
(6.62892 -16.5096 0)
(16.2977 -1.40807 0)
(-1.55399 9.74878 0)
(6.78601 11.6707 0)
(-2.65311 5.12863 0)
(-20.8146 -13.1051 0)
(11.6795 -15.7691 0)
(12.8178 1.26816 0)
(-6.86931 10.5134 0)
(3.65278 11.1328 0)
(-10.2508 3.56406 0)
(-16.9154 -13.108 0)
(17.9367 32.5829 0)
(-34.4611 11.625 0)
(-21.1654 -12.8266 0)
(-13.5943 -13.4546 0)
(-11.5391 -9.09043 0)
(-7.06584 -9.87993 0)
(-1.72817 -9.1552 0)
(0.671838 -3.45198 0)
(0.891614 4.26595 0)
(-2.06502 9.148 0)
(0.497229 9.81107 0)
(2.50864 6.74912 0)
(-8.29812 -5.95144 0)
(-6.7525 -18.5427 0)
(8.28219 -10.4718 0)
(4.16209 6.20515 0)
(-8.012 12.4195 0)
(2.12376 12.4059 0)
(-4.73691 6.21379 0)
(-12.6904 -10.8586 0)
(3.89521 -18.4188 0)
(10.7753 -2.99602 0)
(-6.91711 10.9674 0)
(1.51651 13.1564 0)
(1.49955 9.30298 0)
(-13.6013 -6.56709 0)
(5.01423 -18.1542 0)
(11.944 -5.55274 0)
(-4.89014 8.9793 0)
(4.73421 11.9424 0)
(5.85882 7.53922 0)
(-14.8041 -9.98061 0)
(4.47101 -17.5972 0)
(10.433 -1.86773 0)
(-4.53907 9.86215 0)
(6.91469 12.1078 0)
(3.34336 5.99731 0)
(-14.6963 -13.0401 0)
(6.95522 -16.6093 0)
(6.67862 1.43837 0)
(-8.6544 11.0499 0)
(5.3039 11.5255 0)
(-4.53045 3.6969 0)
(-12.2419 -13.9697 0)
(21.5253 33.8063 0)
(-20.5239 14.6797 0)
(-13.3656 -11.421 0)
(-10.3829 -14.3814 0)
(-10.3326 -10.9483 0)
(-8.00855 -11.0592 0)
(-5.38368 -9.63748 0)
(-4.54983 -3.65803 0)
(-3.85262 4.07767 0)
(-4.36319 8.70286 0)
(0.479735 9.31311 0)
(4.36761 6.52253 0)
(-3.43285 -5.35724 0)
(-5.86803 -17.8257 0)
(1.82429 -10.6227 0)
(-0.448888 6.1499 0)
(-8.10929 12.3317 0)
(3.67073 12.0989 0)
(0.290045 5.92883 0)
(-6.94207 -10.9651 0)
(2.32128 -17.9796 0)
(5.34865 -2.63372 0)
(-8.43047 10.5187 0)
(1.95877 12.656 0)
(5.64673 8.90478 0)
(-7.15601 -6.83325 0)
(5.47157 -17.599 0)
(7.09078 -4.96575 0)
(-6.8972 8.35807 0)
(3.68927 11.1324 0)
(8.11275 7.55658 0)
(-8.75642 -8.99575 0)
(2.68998 -17.0575 0)
(5.57706 -2.09364 0)
(-6.72785 9.15297 0)
(5.49763 11.3498 0)
(6.49146 6.16922 0)
(-9.18076 -11.7144 0)
(3.34356 -15.8801 0)
(2.05742 1.32983 0)
(-8.46459 10.4916 0)
(5.86192 10.9019 0)
(0.102229 3.5287 0)
(-8.06055 -13.537 0)
(21.4376 32.4161 0)
(-5.90401 16.9438 0)
(-4.729 -8.56325 0)
(-5.68626 -13.9244 0)
(-7.91311 -11.9218 0)
(-8.00713 -11.5304 0)
(-7.68817 -9.54588 0)
(-7.98776 -3.7474 0)
(-7.09099 3.37994 0)
(-5.69332 7.48218 0)
(0.00638396 8.04513 0)
(4.78706 5.69048 0)
(-0.310341 -4.52512 0)
(-4.47663 -15.6529 0)
(-2.748 -9.86457 0)
(-3.98353 5.34397 0)
(-7.16429 11.1298 0)
(3.92689 10.8391 0)
(4.30674 5.19395 0)
(-2.45521 -10.069 0)
(0.761247 -16.0607 0)
(1.28659 -2.18885 0)
(-8.35837 9.27601 0)
(1.7674 11.0649 0)
(7.86816 7.80002 0)
(-2.42911 -6.45376 0)
(4.47025 -15.6177 0)
(3.16375 -3.99076 0)
(-7.49062 7.27684 0)
(2.29291 9.48879 0)
(8.44809 6.78238 0)
(-3.82201 -7.5018 0)
(1.3008 -15.0971 0)
(1.79198 -2.08171 0)
(-7.24542 7.87792 0)
(3.68272 9.66342 0)
(7.5055 5.64907 0)
(-4.44607 -9.58641 0)
(0.895826 -13.8201 0)
(-1.17464 0.966383 0)
(-7.13054 9.0639 0)
(5.26459 9.44137 0)
(3.41582 3.09372 0)
(-4.46838 -11.9467 0)
(17.436 28.5317 0)
(6.17 17.6921 0)
(3.52285 -4.64744 0)
(-0.248331 -11.9237 0)
(-4.33991 -11.6516 0)
(-6.63263 -11.1121 0)
(-8.12852 -8.90089 0)
(-9.20199 -3.75411 0)
(-8.33601 2.26825 0)
(-5.89366 5.73879 0)
(-0.47386 6.28796 0)
(4.26395 4.42354 0)
(1.33568 -3.68055 0)
(-3.00501 -12.4982 0)
(-5.25502 -8.29433 0)
(-6.20662 3.99516 0)
(-6.08051 9.09732 0)
(3.19349 8.82371 0)
(6.3405 4.04801 0)
(0.466308 -8.2935 0)
(-0.543749 -13.037 0)
(-1.57106 -1.81091 0)
(-7.30527 7.52318 0)
(1.28352 8.76224 0)
(8.04278 6.17799 0)
(0.652045 -5.44874 0)
(2.71869 -12.5931 0)
(0.146652 -2.99286 0)
(-6.71356 5.88335 0)
(1.32795 7.36671 0)
(7.51247 5.43645 0)
(-0.295616 -5.76672 0)
(0.316344 -12.1089 0)
(-0.955974 -1.92466 0)
(-6.4203 6.24073 0)
(2.24482 7.46522 0)
(6.97216 4.60037 0)
(-0.939848 -7.0898 0)
(-0.481872 -10.8531 0)
(-3.10343 0.46778 0)
(-5.52121 7.11967 0)
(4.12079 7.43286 0)
(5.12208 2.39227 0)
(-1.6633 -9.49774 0)
(11.2784 23.0526 0)
(12.1932 16.5071 0)
(9.27086 -0.650571 0)
(4.62665 -8.68729 0)
(-0.402754 -10.0627 0)
(-4.16291 -9.7817 0)
(-6.83783 -7.77106 0)
(-8.36943 -3.63592 0)
(-7.75393 1.01079 0)
(-5.2271 3.77856 0)
(-0.760083 4.34119 0)
(3.22813 2.9399 0)
(1.8516 -2.85544 0)
(-1.90968 -8.9885 0)
(-5.83258 -6.20898 0)
(-6.87755 2.49331 0)
(-5.05665 6.61735 0)
(2.09825 6.35433 0)
(6.09753 2.71829 0)
(1.85921 -6.0512 0)
(-1.25956 -9.47987 0)
(-3.22487 -1.46724 0)
(-5.8104 5.47553 0)
(0.774657 6.24068 0)
(6.66575 4.30749 0)
(2.30352 -4.05493 0)
(1.17923 -9.07178 0)
(-1.77751 -2.13144 0)
(-5.21138 4.27031 0)
(0.806425 5.17105 0)
(5.82272 3.81631 0)
(1.6334 -4.02273 0)
(-0.22379 -8.65246 0)
(-2.55384 -1.6343 0)
(-4.99035 4.41229 0)
(1.31965 5.2047 0)
(5.44551 3.27651 0)
(1.00204 -4.66553 0)
(-0.96512 -7.54167 0)
(-3.72014 0.0339727 0)
(-3.952 4.99274 0)
(2.961 5.22256 0)
(5.10643 1.54511 0)
(0.106329 -6.67737 0)
(6.1071 17.2814 0)
(12.051 13.8015 0)
(11.1468 2.26664 0)
(7.46311 -5.0652 0)
(2.70149 -7.49248 0)
(-1.43764 -7.71799 0)
(-4.51056 -6.27729 0)
(-6.2345 -3.34117 0)
(-6.06016 -0.0865436 0)
(-4.14599 1.95494 0)
(-0.91831 2.48786 0)
(1.98438 1.54862 0)
(1.56105 -2.08863 0)
(-1.36056 -5.73533 0)
(-5.09742 -4.07504 0)
(-6.097 1.22302 0)
(-3.94835 4.10479 0)
(1.07133 3.89599 0)
(4.36775 1.47653 0)
(1.96908 -3.88747 0)
(-1.39796 -6.039 0)
(-3.58607 -1.12252 0)
(-4.18994 3.40896 0)
(0.351472 3.90139 0)
(4.57391 2.54942 0)
(2.64393 -2.63029 0)
(0.308042 -5.68854 0)
(-2.38119 -1.42472 0)
(-3.54682 2.66231 0)
(0.463366 3.22554 0)
(3.90176 2.25518 0)
(2.12274 -2.50691 0)
(-0.351273 -5.36933 0)
(-2.82632 -1.23618 0)
(-3.43554 2.67235 0)
(0.709849 3.22959 0)
(3.57764 1.98068 0)
(1.53019 -2.68591 0)
(-0.869926 -4.51187 0)
(-3.17641 -0.198042 0)
(-2.5236 3.00187 0)
(1.93373 3.16461 0)
(3.90554 0.792965 0)
(0.870956 -4.05899 0)
(3.30832 12.2503 0)
(8.71699 10.5757 0)
(9.66484 3.64101 0)
(7.63391 -2.00346 0)
(4.08397 -4.63874 0)
(0.615433 -5.33103 0)
(-2.13168 -4.60902 0)
(-3.78218 -2.83756 0)
(-4.04296 -0.812845 0)
(-2.95917 0.55372 0)
(-0.934594 0.985251 0)
(0.903642 0.47128 0)
(0.87534 -1.42847 0)
(-1.11246 -3.20517 0)
(-3.75067 -2.33446 0)
(-4.49207 0.344583 0)
(-2.85434 1.99463 0)
(0.243369 1.88991 0)
(2.3489 0.522224 0)
(1.30072 -2.2185 0)
(-1.18254 -3.30633 0)
(-2.91076 -0.802066 0)
(-2.71608 1.68709 0)
(0.024755 2.01782 0)
(2.55982 1.18171 0)
(1.98139 -1.4954 0)
(-0.0328463 -3.02039 0)
(-1.94555 -0.866321 0)
(-2.12015 1.34817 0)
(0.199488 1.7036 0)
(2.22561 1.05995 0)
(1.64469 -1.37983 0)
(-0.312296 -2.81757 0)
(-2.15583 -0.812818 0)
(-2.07744 1.31324 0)
(0.296052 1.71362 0)
(1.9617 0.996264 0)
(1.1799 -1.32336 0)
(-0.586017 -2.26321 0)
(-2.0728 -0.248211 0)
(-1.40471 1.45721 0)
(1.0797 1.58041 0)
(2.36803 0.28387 0)
(0.875047 -2.07966 0)
(2.03319 8.53902 0)
(5.13006 7.66572 0)
(6.51163 3.77891 0)
(5.78245 0.0445565 0)
(3.74867 -2.1989 0)
(1.46925 -3.12328 0)
(-0.52257 -3.01679 0)
(-1.84048 -2.18812 0)
(-2.27956 -1.13232 0)
(-1.83557 -0.33988 0)
(-0.772625 -0.0210537 0)
(0.209988 -0.198334 0)
(0.228942 -0.923876 0)
(-0.911978 -1.57128 0)
(-2.39173 -1.19229 0)
(-2.85162 -0.14717 0)
(-1.9439 0.573215 0)
(-0.30395 0.529772 0)
(0.823202 -0.0831671 0)
(0.459806 -1.18229 0)
(-0.901617 -1.57892 0)
(-1.90814 -0.56195 0)
(-1.64307 0.531252 0)
(-0.21981 0.727015 0)
(1.0775 0.309443 0)
(0.982352 -0.793003 0)
(-0.173971 -1.34946 0)
(-1.223 -0.48145 0)
(-1.15877 0.48866 0)
(0.00748801 0.68206 0)
(1.03322 0.333178 0)
(0.86622 -0.672517 0)
(-0.25876 -1.23145 0)
(-1.28166 -0.468183 0)
(-1.1242 0.465425 0)
(0.0508472 0.72093 0)
(0.877001 0.395514 0)
(0.606474 -0.544836 0)
(-0.329018 -0.936031 0)
(-1.06697 -0.209037 0)
(-0.688171 0.499489 0)
(0.480166 0.577144 0)
(1.13946 0.0235292 0)
(0.546213 -0.880488 0)
(1.24642 6.11844 0)
(2.69154 5.56459 0)
(3.64204 3.34655 0)
(3.50799 1.09845 0)
(2.56823 -0.532926 0)
(1.34664 -1.45444 0)
(0.152329 -1.72684 0)
(-0.713626 -1.54019 0)
(-1.09509 -1.14314 0)
(-0.98753 -0.793774 0)
(-0.563884 -0.574595 0)
(-0.170888 -0.516442 0)
(-0.18253 -0.610369 0)
(-0.695489 -0.714264 0)
(-1.34751 -0.595838 0)
(-1.59766 -0.362162 0)
(-1.24099 -0.193858 0)
(-0.528359 -0.226635 0)
(-0.0105763 -0.395973 0)
(-0.105401 -0.676887 0)
(-0.678428 -0.744677 0)
(-1.12544 -0.433999 0)
(-0.983933 -0.0873856 0)
(-0.363379 -0.00518194 0)
(0.200788 -0.135589 0)
(0.219333 -0.439492 0)
(-0.263258 -0.550677 0)
(-0.708116 -0.272654 0)
(-0.63939 0.0408336 0)
(-0.130764 0.111115 0)
(0.310753 -0.0151459 0)
(0.257595 -0.31256 0)
(-0.241554 -0.466029 0)
(-0.678508 -0.256027 0)
(-0.578042 0.0492932 0)
(-0.0707259 0.178453 0)
(0.281796 0.0904005 0)
(0.196723 -0.197812 0)
(-0.170306 -0.332434 0)
(-0.448814 -0.1576 0)
(-0.298934 0.0366029 0)
(0.150335 0.0656214 0)
(0.417995 -0.0899882 0)
(0.240396 -0.317587 0)
(0.755427 4.53379 0)
(1.55566 4.26569 0)
(2.05569 2.93043 0)
(2.05863 1.53861 0)
(1.63954 0.402173 0)
(1.00389 -0.387374 0)
(0.347156 -0.828884 0)
(-0.172671 -0.990593 0)
(-0.458324 -0.982225 0)
(-0.527609 -0.900895 0)
(-0.447127 -0.777433 0)
(-0.349378 -0.612412 0)
(-0.356215 -0.470207 0)
(-0.502114 -0.384192 0)
(-0.705241 -0.374862 0)
(-0.808906 -0.436518 0)
(-0.713715 -0.511599 0)
(-0.478265 -0.544718 0)
(-0.300654 -0.525366 0)
(-0.319111 -0.493531 0)
(-0.498398 -0.450438 0)
(-0.645478 -0.387691 0)
(-0.592276 -0.343095 0)
(-0.372584 -0.329796 0)
(-0.16959 -0.312718 0)
(-0.147969 -0.298752 0)
(-0.294385 -0.268083 0)
(-0.431481 -0.197773 0)
(-0.393891 -0.148618 0)
(-0.203963 -0.14142 0)
(-0.0436279 -0.144287 0)
(-0.0561278 -0.167585 0)
(-0.220488 -0.183994 0)
(-0.359372 -0.160888 0)
(-0.304405 -0.112583 0)
(-0.112605 -0.0642165 0)
(0.0173851 -0.0482389 0)
(0.00734769 -0.0920375 0)
(-0.0838727 -0.130767 0)
(-0.157037 -0.129428 0)
(-0.115526 -0.128946 0)
(0.0181503 -0.130674 0)
(0.102058 -0.133665 0)
(0.0738838 -0.126064 0)
(0.474934 3.41949 0)
(1.08183 3.39542 0)
(1.44542 2.6016 0)
(1.47277 1.73177 0)
(1.28198 0.912499 0)
(0.94708 0.255109 0)
(0.55112 -0.228515 0)
(0.194601 -0.537822 0)
(-0.0747066 -0.71898 0)
(-0.241952 -0.781934 0)
(-0.320102 -0.73166 0)
(-0.34049 -0.59457 0)
(-0.333813 -0.434815 0)
(-0.331886 -0.335775 0)
(-0.350171 -0.351044 0)
(-0.371722 -0.460479 0)
(-0.362848 -0.575281 0)
(-0.318292 -0.612698 0)
(-0.278948 -0.555058 0)
(-0.279629 -0.455148 0)
(-0.318615 -0.391227 0)
(-0.356647 -0.385818 0)
(-0.347203 -0.416137 0)
(-0.287611 -0.421142 0)
(-0.227499 -0.365598 0)
(-0.214044 -0.279889 0)
(-0.243739 -0.215013 0)
(-0.272306 -0.201417 0)
(-0.254452 -0.216668 0)
(-0.193173 -0.218477 0)
(-0.138945 -0.181429 0)
(-0.13437 -0.133576 0)
(-0.172366 -0.119284 0)
(-0.199659 -0.143749 0)
(-0.16683 -0.167548 0)
(-0.0955223 -0.153224 0)
(-0.0482918 -0.113716 0)
(-0.0364995 -0.0894441 0)
(-0.0373504 -0.0963281 0)
(-0.0413075 -0.12738 0)
(-0.0341256 -0.162783 0)
(-0.00959245 -0.172172 0)
(0.00945881 -0.146546 0)
(0.0131806 -0.0970462 0)
(0.294441 2.57908 0)
(0.764615 2.70255 0)
(1.09711 2.2634 0)
(1.21292 1.7306 0)
(1.16485 1.17522 0)
(1.01041 0.647693 0)
(0.784602 0.201082 0)
(0.526662 -0.150051 0)
(0.279348 -0.399245 0)
(0.0786937 -0.540145 0)
(-0.0601879 -0.572898 0)
(-0.135463 -0.518731 0)
(-0.150561 -0.430575 0)
(-0.13342 -0.373756 0)
(-0.117612 -0.39044 0)
(-0.119413 -0.46967 0)
(-0.132445 -0.552879 0)
(-0.142443 -0.579635 0)
(-0.145641 -0.5355 0)
(-0.146884 -0.458933 0)
(-0.152235 -0.407602 0)
(-0.162339 -0.403297 0)
(-0.168837 -0.422601 0)
(-0.163914 -0.418438 0)
(-0.152101 -0.36932 0)
(-0.144464 -0.294528 0)
(-0.145727 -0.239428 0)
(-0.147369 -0.225928 0)
(-0.140024 -0.235004 0)
(-0.123099 -0.229537 0)
(-0.104479 -0.194013 0)
(-0.0953995 -0.151745 0)
(-0.0965698 -0.138147 0)
(-0.0950274 -0.159669 0)
(-0.0778981 -0.184682 0)
(-0.0507888 -0.18009 0)
(-0.0302613 -0.148906 0)
(-0.0183186 -0.121759 0)
(-0.0071014 -0.117703 0)
(0.00115548 -0.135374 0)
(0.00199731 -0.15749 0)
(-0.00154116 -0.163535 0)
(-0.00220363 -0.148354 0)
(-0.00125978 -0.111303 0)
(0.170945 1.94883 0)
(0.500876 2.1226 0)
(0.768286 1.89428 0)
(0.931431 1.58268 0)
(0.990188 1.21987 0)
(0.964767 0.840749 0)
(0.87189 0.478348 0)
(0.729184 0.161684 0)
(0.561215 -0.0915978 0)
(0.39608 -0.268653 0)
(0.261388 -0.369235 0)
(0.170287 -0.400042 0)
(0.122041 -0.393454 0)
(0.103442 -0.38745 0)
(0.09395 -0.409084 0)
(0.0773933 -0.457554 0)
(0.0512481 -0.505851 0)
(0.0253462 -0.522876 0)
(0.00720679 -0.499525 0)
(-0.00287296 -0.455146 0)
(-0.0102933 -0.41983 0)
(-0.0204815 -0.407703 0)
(-0.0328943 -0.407214 0)
(-0.0423022 -0.394018 0)
(-0.0455962 -0.356095 0)
(-0.0447348 -0.304649 0)
(-0.0436014 -0.263154 0)
(-0.0437121 -0.243462 0)
(-0.0435794 -0.237965 0)
(-0.0404726 -0.226254 0)
(-0.0338843 -0.200776 0)
(-0.0269376 -0.173837 0)
(-0.0229908 -0.164161 0)
(-0.0207056 -0.174606 0)
(-0.0155189 -0.187819 0)
(-0.00722868 -0.184831 0)
(0.000344667 -0.166069 0)
(0.00629088 -0.147163 0)
(0.011589 -0.138825 0)
(0.0150393 -0.142134 0)
(0.0139602 -0.149102 0)
(0.00812727 -0.150601 0)
(0.00376273 -0.14409 0)
(-0.000951677 -0.118485 0)
(0.095263 1.48866 0)
(0.315737 1.65658 0)
(0.505456 1.53449 0)
(0.657457 1.35268 0)
(0.755914 1.12291 0)
(0.801932 0.865085 0)
(0.79908 0.600686 0)
(0.752416 0.350855 0)
(0.67415 0.131379 0)
(0.581639 -0.0458621 0)
(0.491173 -0.175127 0)
(0.415185 -0.259352 0)
(0.358248 -0.309228 0)
(0.317149 -0.343256 0)
(0.283057 -0.376402 0)
(0.248472 -0.412592 0)
(0.211973 -0.443521 0)
(0.177577 -0.457247 0)
(0.148974 -0.449476 0)
(0.127105 -0.427886 0)
(0.109397 -0.405779 0)
(0.0922024 -0.390931 0)
(0.07476 -0.38 0)
(0.0593571 -0.363316 0)
(0.0486771 -0.335361 0)
(0.0424148 -0.300578 0)
(0.0379814 -0.269308 0)
(0.0332724 -0.248032 0)
(0.0285391 -0.234171 0)
(0.0257042 -0.219952 0)
(0.0256599 -0.201966 0)
(0.0268695 -0.185145 0)
(0.0267366 -0.177225 0)
(0.0244427 -0.17927 0)
(0.0217387 -0.183452 0)
(0.020196 -0.180615 0)
(0.0195057 -0.169633 0)
(0.0191023 -0.156767 0)
(0.0186891 -0.147764 0)
(0.0176152 -0.143745 0)
(0.0149492 -0.142213 0)
(0.0104148 -0.140212 0)
(0.00620655 -0.13684 0)
(0.000607278 -0.116285 0)
(0.0562122 1.14643 0)
(0.207925 1.2878 0)
(0.339434 1.21442 0)
(0.460637 1.10197 0)
(0.555227 0.954995 0)
(0.621729 0.783508 0)
(0.658583 0.600095 0)
(0.665636 0.417076 0)
(0.647091 0.245632 0)
(0.611205 0.0940015 0)
(0.566384 -0.0321303 0)
(0.519573 -0.131056 0)
(0.475455 -0.204959 0)
(0.435119 -0.260237 0)
(0.396982 -0.303761 0)
(0.359059 -0.33935 0)
(0.321237 -0.366327 0)
(0.285217 -0.381743 0)
(0.252856 -0.384399 0)
(0.224714 -0.377151 0)
(0.199795 -0.365421 0)
(0.176749 -0.353291 0)
(0.155124 -0.340896 0)
(0.135697 -0.325483 0)
(0.119585 -0.305061 0)
(0.106876 -0.281134 0)
(0.0964431 -0.25774 0)
(0.0870233 -0.238149 0)
(0.0783342 -0.222395 0)
(0.0709782 -0.208307 0)
(0.0653539 -0.194616 0)
(0.060737 -0.182739 0)
(0.0557191 -0.17523 0)
(0.0494989 -0.172464 0)
(0.0425723 -0.17141 0)
(0.0359649 -0.16816 0)
(0.0301994 -0.161414 0)
(0.0252848 -0.152982 0)
(0.0210147 -0.145285 0)
(0.017082 -0.139392 0)
(0.0132084 -0.134969 0)
(0.00931526 -0.131346 0)
(0.00577009 -0.128394 0)
(0.00108092 -0.109661 0)
(0.0381661 0.875318 0)
(0.147607 0.987014 0)
(0.242843 0.938028 0)
(0.335712 0.86397 0)
(0.413524 0.767382 0)
(0.475597 0.653321 0)
(0.520348 0.528484 0)
(0.54715 0.399923 0)
(0.556122 0.274454 0)
(0.549836 0.157112 0)
(0.533018 0.0522159 0)
(0.509488 -0.0375813 0)
(0.482045 -0.111558 0)
(0.452614 -0.170851 0)
(0.422018 -0.217798 0)
(0.390574 -0.254487 0)
(0.358814 -0.281912 0)
(0.327666 -0.300152 0)
(0.29813 -0.309438 0)
(0.270758 -0.31108 0)
(0.245478 -0.307335 0)
(0.221932 -0.300328 0)
(0.199962 -0.291042 0)
(0.179824 -0.27933 0)
(0.161898 -0.264916 0)
(0.146253 -0.248398 0)
(0.132555 -0.231361 0)
(0.12041 -0.21541 0)
(0.109477 -0.201289 0)
(0.0995487 -0.188818 0)
(0.090593 -0.17764 0)
(0.0823427 -0.168123 0)
(0.0742184 -0.160925 0)
(0.06577 -0.156114 0)
(0.0570343 -0.152676 0)
(0.0484131 -0.149099 0)
(0.0403028 -0.144494 0)
(0.0329108 -0.139057 0)
(0.0262852 -0.133543 0)
(0.0204126 -0.128546 0)
(0.0151751 -0.124265 0)
(0.0104009 -0.120702 0)
(0.00637797 -0.118029 0)
(0.00123618 -0.100734 0)
(0.0288868 0.648287 0)
(0.108512 0.732653 0)
(0.179969 0.699272 0)
(0.25036 0.649797 0)
(0.311251 0.586056 0)
(0.36247 0.510794 0)
(0.403076 0.427584 0)
(0.432462 0.340307 0)
(0.450263 0.252555 0)
(0.457078 0.167934 0)
(0.454905 0.0889904 0)
(0.445697 0.0178786 0)
(0.431099 -0.0440987 0)
(0.412615 -0.0965235 0)
(0.391448 -0.139724 0)
(0.368509 -0.174393 0)
(0.344557 -0.201215 0)
(0.320322 -0.220722 0)
(0.296473 -0.233447 0)
(0.2735 -0.240166 0)
(0.251661 -0.241944 0)
(0.231029 -0.239908 0)
(0.211635 -0.234935 0)
(0.193572 -0.227547 0)
(0.176958 -0.218097 0)
(0.161839 -0.207065 0)
(0.148112 -0.195183 0)
(0.135525 -0.183273 0)
(0.123958 -0.17201 0)
(0.113548 -0.161717 0)
(0.103974 -0.152562 0)
(0.0947556 -0.144596 0)
(0.085733 -0.138003 0)
(0.0767407 -0.132785 0)
(0.06773 -0.128623 0)
(0.0587988 -0.124991 0)
(0.0501206 -0.121437 0)
(0.0418746 -0.117801 0)
(0.0341178 -0.114181 0)
(0.0268214 -0.110765 0)
(0.0200465 -0.107706 0)
(0.0136414 -0.105102 0)
(0.00833325 -0.103146 0)
(0.00152285 -0.0881245 0)
(0.0230319 0.464351 0)
(0.0814374 0.525364 0)
(0.136767 0.503068 0)
(0.190963 0.470433 0)
(0.238599 0.428783 0)
(0.279816 0.379703 0)
(0.314021 0.325129 0)
(0.340729 0.267182 0)
(0.360204 0.207934 0)
(0.372212 0.149504 0)
(0.376879 0.0935276 0)
(0.375524 0.0414684 0)
(0.36929 -0.00559799 0)
(0.359093 -0.0469878 0)
(0.345819 -0.0824137 0)
(0.330281 -0.1119 0)
(0.313198 -0.13566 0)
(0.295206 -0.153996 0)
(0.27686 -0.167282 0)
(0.258606 -0.17598 0)
(0.240775 -0.180659 0)
(0.223565 -0.181937 0)
(0.207118 -0.18042 0)
(0.191559 -0.176619 0)
(0.176968 -0.170979 0)
(0.163377 -0.163933 0)
(0.150766 -0.155951 0)
(0.139068 -0.147521 0)
(0.128132 -0.139065 0)
(0.117705 -0.130941 0)
(0.107942 -0.123472 0)
(0.098816 -0.116804 0)
(0.0899271 -0.110986 0)
(0.0811773 -0.10605 0)
(0.0725089 -0.101919 0)
(0.0639276 -0.0984261 0)
(0.055437 -0.095381 0)
(0.0470484 -0.0926469 0)
(0.0388819 -0.0901672 0)
(0.0310215 -0.0879484 0)
(0.0234958 -0.0860242 0)
(0.016046 -0.0844356 0)
(0.00981876 -0.083274 0)
(0.00175283 -0.0713821 0)
(0.0194353 0.331158 0)
(0.0641632 0.374527 0)
(0.10926 0.359469 0)
(0.152852 0.337661 0)
(0.191611 0.310027 0)
(0.225835 0.277463 0)
(0.255159 0.241063 0)
(0.279142 0.202075 0)
(0.297684 0.161776 0)
(0.310831 0.121249 0)
(0.318732 0.0818424 0)
(0.321796 0.0444347 0)
(0.32062 0.00982924 0)
(0.315841 -0.0213802 0)
(0.308087 -0.0488146 0)
(0.29796 -0.0722929 0)
(0.286024 -0.0917943 0)
(0.272793 -0.107417 0)
(0.258727 -0.119347 0)
(0.244225 -0.127844 0)
(0.229623 -0.133228 0)
(0.215156 -0.135871 0)
(0.201012 -0.136159 0)
(0.187348 -0.134449 0)
(0.17426 -0.131145 0)
(0.161819 -0.126574 0)
(0.150052 -0.121081 0)
(0.138947 -0.115009 0)
(0.128459 -0.108682 0)
(0.118488 -0.102374 0)
(0.108875 -0.0962538 0)
(0.0996565 -0.090584 0)
(0.0908399 -0.085476 0)
(0.0822547 -0.08098 0)
(0.0737909 -0.0771054 0)
(0.0653697 -0.0738146 0)
(0.0570169 -0.0710404 0)
(0.0487756 -0.0687128 0)
(0.0406528 -0.066777 0)
(0.032676 -0.0652 0)
(0.0248979 -0.0639671 0)
(0.0170535 -0.063078 0)
(0.0104157 -0.0625155 0)
(0.00189414 -0.0538644 0)
(0.017115 0.238479 0)
(0.0528434 0.269414 0)
(0.0910163 0.259026 0)
(0.127135 0.244119 0)
(0.159745 0.225285 0)
(0.189001 0.202993 0)
(0.21462 0.177894 0)
(0.236211 0.150776 0)
(0.25361 0.122469 0)
(0.266886 0.0937807 0)
(0.276086 0.0655221 0)
(0.28136 0.0383541 0)
(0.283099 0.0128644 0)
(0.281695 -0.0104803 0)
(0.27756 -0.0313417 0)
(0.271124 -0.0495073 0)
(0.262808 -0.0648792 0)
(0.253013 -0.0774559 0)
(0.242113 -0.0873144 0)
(0.230445 -0.0945949 0)
(0.218302 -0.0994894 0)
(0.205938 -0.102234 0)
(0.193607 -0.10308 0)
(0.181391 -0.102301 0)
(0.169393 -0.100162 0)
(0.157801 -0.0969307 0)
(0.146663 -0.0928717 0)
(0.135999 -0.0882354 0)
(0.125811 -0.0832665 0)
(0.116077 -0.0781874 0)
(0.106755 -0.0731475 0)
(0.0977741 -0.0683272 0)
(0.0890748 -0.0638651 0)
(0.0805985 -0.0598406 0)
(0.0722928 -0.0563001 0)
(0.0641267 -0.0532587 0)
(0.056066 -0.0507069 0)
(0.0480986 -0.0486193 0)
(0.0402219 -0.046967 0)
(0.0324455 -0.0457254 0)
(0.0248075 -0.0448787 0)
(0.0171212 -0.0444226 0)
(0.0104268 -0.0442682 0)
(0.0020629 -0.0384037 0)
(0.0149645 0.171755 0)
(0.0440238 0.193782 0)
(0.076374 0.186621 0)
(0.106462 0.176348 0)
(0.13409 0.163293 0)
(0.1592 0.147713 0)
(0.181522 0.13004 0)
(0.200689 0.1108 0)
(0.216524 0.0905322 0)
(0.229125 0.0698764 0)
(0.238499 0.0493769 0)
(0.24464 0.0295247 0)
(0.247779 0.0107518 0)
(0.248168 -0.00658837 0)
(0.246094 -0.0222239 0)
(0.241867 -0.0359662 0)
(0.235808 -0.0477056 0)
(0.228235 -0.0574046 0)
(0.219454 -0.0650881 0)
(0.209753 -0.070834 0)
(0.199395 -0.074763 0)
(0.18861 -0.0770279 0)
(0.177606 -0.077805 0)
(0.166554 -0.0773142 0)
(0.155608 -0.0757069 0)
(0.144885 -0.0732148 0)
(0.134461 -0.0700325 0)
(0.124408 -0.066314 0)
(0.11479 -0.0622727 0)
(0.105635 -0.058073 0)
(0.096788 -0.0539126 0)
(0.0882316 -0.0498803 0)
(0.0800432 -0.0460587 0)
(0.0721492 -0.0425627 0)
(0.0645058 -0.0394464 0)
(0.0570748 -0.0367432 0)
(0.0498187 -0.0344692 0)
(0.042707 -0.0326256 0)
(0.0357188 -0.0312054 0)
(0.0288413 -0.0301986 0)
(0.0220946 -0.0295985 0)
(0.0153948 -0.0294055 0)
(0.00942656 -0.0295014 0)
(0.00201893 -0.0258173 0)
(0.012563 0.12382 0)
(0.0359597 0.139472 0)
(0.0626014 0.134523 0)
(0.0871582 0.127351 0)
(0.110027 0.11811 0)
(0.130999 0.106966 0)
(0.14977 0.0942282 0)
(0.165972 0.0803162 0)
(0.179588 0.0657271 0)
(0.190646 0.0507931 0)
(0.198929 0.0358766 0)
(0.204404 0.0213778 0)
(0.207262 0.00761114 0)
(0.207718 -0.00516076 0)
(0.206001 -0.0167292 0)
(0.202361 -0.0269406 0)
(0.197063 -0.0356975 0)
(0.190378 -0.042955 0)
(0.182569 -0.0487168 0)
(0.17389 -0.0530283 0)
(0.164583 -0.0559701 0)
(0.154866 -0.0576529 0)
(0.144929 -0.0582001 0)
(0.134946 -0.0577528 0)
(0.125085 -0.056451 0)
(0.115471 -0.0544448 0)
(0.106222 -0.0518771 0)
(0.0973502 -0.048946 0)
(0.0888089 -0.0457355 0)
(0.0806332 -0.0423752 0)
(0.0729197 -0.0390257 0)
(0.0657232 -0.0357239 0)
(0.0589583 -0.0325864 0)
(0.0525837 -0.0296881 0)
(0.0465721 -0.0270838 0)
(0.0408632 -0.0248124 0)
(0.0354193 -0.022899 0)
(0.0301948 -0.0213575 0)
(0.0251511 -0.0201933 0)
(0.0202571 -0.0194072 0)
(0.0155069 -0.0189999 0)
(0.0109294 -0.0189747 0)
(0.00688499 -0.0192172 0)
(0.00147748 -0.0170101 0)
(0.00990477 0.0904472 0)
(0.0280391 0.101628 0)
(0.0489017 0.0981532 0)
(0.068004 0.0930617 0)
(0.0858846 0.0864195 0)
(0.102202 0.0783631 0)
(0.116738 0.0691388 0)
(0.129345 0.0590648 0)
(0.139725 0.0484996 0)
(0.147645 0.0376743 0)
(0.153153 0.0268264 0)
(0.156317 0.0162593 0)
(0.157274 0.00619633 0)
(0.156202 -0.00317225 0)
(0.153308 -0.0116908 0)
(0.148813 -0.0192427 0)
(0.142947 -0.0257479 0)
(0.135952 -0.0311655 0)
(0.128081 -0.0354896 0)
(0.119553 -0.038747 0)
(0.110609 -0.0409895 0)
(0.101491 -0.04232 0)
(0.0923724 -0.0428021 0)
(0.0834019 -0.0425397 0)
(0.0747025 -0.041645 0)
(0.0663854 -0.0402231 0)
(0.0585093 -0.0383842 0)
(0.051189 -0.0362721 0)
(0.0445215 -0.0339497 0)
(0.0384831 -0.0315116 0)
(0.0330865 -0.0289952 0)
(0.0283239 -0.0265169 0)
(0.0241481 -0.0241585 0)
(0.0205105 -0.0219518 0)
(0.0173468 -0.0199504 0)
(0.0145831 -0.0181934 0)
(0.0121582 -0.0167102 0)
(0.0100121 -0.0155222 0)
(0.00809055 -0.0146458 0)
(0.00634954 -0.014092 0)
(0.00477393 -0.0138689 0)
(0.00347316 -0.013983 0)
(0.00261911 -0.0143386 0)
(0.000345831 -0.0128599 0)
(0.00703064 0.0689068 0)
(0.0198476 0.0771626 0)
(0.0346973 0.074617 0)
(0.0481796 0.070904 0)
(0.0607326 0.066076 0)
(0.0719271 0.0602589 0)
(0.0815162 0.0536454 0)
(0.0893109 0.0464267 0)
(0.0951551 0.0387433 0)
(0.0989686 0.0308701 0)
(0.10078 0.0229831 0)
(0.100639 0.0152579 0)
(0.098686 0.00785498 0)
(0.0951188 0.000913109 0)
(0.0901528 -0.00545358 0)
(0.0839884 -0.0111577 0)
(0.0768052 -0.016136 0)
(0.0688217 -0.0203526 0)
(0.0602786 -0.0238001 0)
(0.0514161 -0.0264972 0)
(0.0424036 -0.0284952 0)
(0.0334695 -0.0297977 0)
(0.0248436 -0.0305195 0)
(0.016649 -0.0307263 0)
(0.00901497 -0.0304964 0)
(0.00206317 -0.0299108 0)
(-0.00411755 -0.0290431 0)
(-0.00944279 -0.0279144 0)
(-0.0138468 -0.0266343 0)
(-0.0173082 -0.0252569 0)
(-0.0198384 -0.0238197 0)
(-0.0214767 -0.0223709 0)
(-0.0222717 -0.0209526 0)
(-0.0222839 -0.0195971 0)
(-0.0216253 -0.0183388 0)
(-0.020425 -0.0172096 0)
(-0.0187843 -0.0162389 0)
(-0.0167965 -0.0154562 0)
(-0.0145439 -0.0148915 0)
(-0.0120966 -0.0145738 0)
(-0.00948227 -0.0145297 0)
(-0.0065343 -0.0147804 0)
(-0.00314265 -0.015261 0)
(-0.00130268 -0.0138086 0)
(0.00413412 0.056699 0)
(0.0116201 0.0632091 0)
(0.0202627 0.0612435 0)
(0.0279221 0.0584904 0)
(0.0348048 0.0549932 0)
(0.0404207 0.0508245 0)
(0.0445662 0.0460901 0)
(0.0471314 0.040905 0)
(0.0481235 0.0353859 0)
(0.0475654 0.0296607 0)
(0.0455054 0.0238485 0)
(0.0420342 0.0180734 0)
(0.0372558 0.0124569 0)
(0.0312977 0.00710726 0)
(0.0243071 0.00211577 0)
(0.0164697 -0.00244394 0)
(0.00800608 -0.00651886 0)
(-0.000890869 -0.0100783 0)
(-0.0100362 -0.0131176 0)
(-0.0192414 -0.0156538 0)
(-0.0282851 -0.0177109 0)
(-0.0370215 -0.0193099 0)
(-0.0453042 -0.0205322 0)
(-0.052929 -0.0214294 0)
(-0.0597545 -0.0220521 0)
(-0.0656575 -0.0224543 0)
(-0.0705321 -0.0226821 0)
(-0.0742858 -0.02277 0)
(-0.0768382 -0.0227607 0)