/*--------------------------------*- C++ -*----------------------------------*\
  =========                 |
  \\      /  F ield         | OpenFOAM: The Open Source CFD Toolbox
   \\    /   O peration     | Website:  https://openfoam.org
    \\  /    A nd           | Version:  7
     \\/     M anipulation  |
\*---------------------------------------------------------------------------*/
FoamFile
{
    version     2.0;
    format      ascii;
    class       volScalarField;
    location    "1.36";
    object      p;
}
// * * * * * * * * * * * * * * * * * * * * * * * * * * * * * * * * * * * * * //

dimensions      [0 2 -2 0 0 0 0];

internalField   nonuniform List<scalar> 
1936
(
-4.93964e-05
-3324.15
-6278.69
-5461.39
-4256.72
-3603.36
-3367.01
-3776.31
-5701.26
-7267.57
-5669.8
-3548.19
-2995.82
-2999.74
-3765.5
-5759.41
-6783.3
-5169.83
-3353.92
-2841.75
-2870.27
-3677.22
-6066.5
-7198.01
-5117.84
-3205.1
-2797.16
-2848.1
-3706.65
-5747.37
-6781.47
-5112.37
-3260.7
-2815.69
-2885.05
-3939.9
-6464.07
-6997.72
-4562
-2922.38
-2713.19
-2862.59
-4222.01
-6567.37
-85.4529
-3274.6
-6215.97
-5456.76
-4277.28
-3642.28
-3410.36
-3784.39
-5656.68
-7193.41
-5619.39
-3555.34
-3046.15
-3054.87
-3785.96
-5731.55
-6735.5
-5153.44
-3385.14
-2899.5
-2915.8
-3671.81
-6003.95
-7121.34
-5078.8
-3220.16
-2848.81
-2902.06
-3726.41
-5720.68
-6731.8
-5093.23
-3293.49
-2875.09
-2927.79
-3925.78
-6394.73
-6924.46
-4533.11
-2949.33
-2770.07
-2911.56
-4225.02
-6523.84
-362.101
-3137.17
-5981.82
-5444.98
-4350.54
-3741.7
-3514.03
-3826.71
-5547.05
-6960.17
-5491.83
-3596.46
-3163.4
-3194.1
-3863.1
-5653.06
-6577.1
-5116.96
-3487.37
-3038.19
-3026.57
-3685.51
-5833.55
-6881.31
-4993.54
-3278.97
-2967.6
-3041.22
-3802.76
-5644.88
-6567.57
-5049.8
-3399.2
-3014.73
-3035.7
-3918.04
-6194.77
-6698.14
-4483.91
-3032.06
-2897.93
-3047.59
-4258.04
-6383.38
-749.221
-2993.47
-5627.59
-5383.99
-4438.54
-3873.03
-3661.4
-3911.04
-5401.22
-6615.74
-5323.39
-3680.37
-3329.71
-3379.73
-3968.54
-5528.04
-6328.18
-5055.46
-3627.07
-3222.17
-3188.61
-3733.37
-5597.93
-6525.24
-4886.01
-3385.8
-3135.38
-3227.33
-3905.97
-5520.6
-6310.56
-4981.57
-3544.88
-3200.42
-3196.42
-3934.91
-5910.47
-6363.1
-4433.04
-3168.35
-3074.43
-3232.85
-4300.41
-6159.32
-1189.49
-2891.95
-5213.51
-5262.62
-4511.45
-4009.67
-3827.73
-4024.99
-5243.6
-6219.75
-5145.29
-3797.5
-3521.55
-3577.42
-4076.41
-5372.97
-6027.76
-4973.26
-3773.22
-3419.64
-3379.39
-3811.22
-5339.12
-6113.84
-4774.46
-3527.85
-3330.03
-3426.42
-4010.19
-5363.11
-6001.31
-4894.8
-3698.76
-3400.07
-3386.86
-3976.59
-5592.3
-5976.7
-4389.9
-3340.83
-3275.01
-3430.81
-4335.75
-5885.79
-1643.97
-2861.37
-4797.53
-5081.1
-4550.3
-4133.42
-3992.18
-4149.7
-5088.93
-5819.36
-4978.08
-3934.67
-3720.7
-3768.28
-4171.98
-5200.37
-5706.91
-4873.41
-3909.13
-3613.55
-3579.7
-3909.94
-5087.94
-5695.73
-4669.8
-3689.58
-3534.06
-3620.29
-4100.4
-5184.66
-5671.99
-4793.78
-3843.66
-3596.17
-3586.17
-4037.67
-5278.81
-5584.37
-4358.61
-3531.08
-3482.43
-3621.79
-4354.07
-5589.67
-2084.46
-2908.17
-4431.1
-4857.78
-4546.48
-4233.98
-4136.63
-4263.94
-4944.24
-5449.03
-4834.28
-4075.29
-3911.5
-3941.26
-4251.31
-5023.41
-5390.49
-4764.79
-4028.59
-3794.25
-3772.48
-4015.99
-4865.02
-5308.21
-4577.86
-3853
-3732.12
-3797.68
-4173.94
-4998.12
-5348.78
-4687.96
-3971.89
-3778.59
-3776.59
-4108.35
-4996.74
-5220.75
-4338.32
-3720.67
-3681.96
-3794.06
-4357.89
-5293.72
-2491.79
-3022.39
-4149.4
-4623.89
-4503.46
-4303.86
-4247.74
-4351.51
-4811.05
-5130.86
-4717.11
-4204.25
-4080.67
-4091.31
-4315.2
-4854.18
-5100.49
-4658.22
-4130.6
-3955.64
-3944.56
-4116.55
-4680.87
-4977.38
-4499.56
-4003.06
-3910.72
-3952.93
-4232.73
-4817.22
-5053.68
-4588.43
-4081.12
-3940.27
-3944.81
-4177.29
-4761.88
-4910.59
-4324.92
-3893.76
-3861.55
-3942.12
-4354.05
-5018.17
-2853.64
-3183.88
-3967
-4412.31
-4431.98
-4337.95
-4318.93
-4405.13
-4691.68
-4876.09
-4624.98
-4309.25
-4218.47
-4215.72
-4362.51
-4704.65
-4854.62
-4563.66
-4214.47
-4093.16
-4086.37
-4201.39
-4539.8
-4718.49
-4436.18
-4127.83
-4060.09
-4084.2
-4276.18
-4655.93
-4804.25
-4502.62
-4170.84
-4076.2
-4081.95
-4235.29
-4581.29
-4667.81
-4314.67
-4039.14
-4012.68
-4065.96
-4346.15
-4779.27
-3162.18
-3366.95
-3878.81
-4247.32
-4347.08
-4337.26
-4351.57
-4423.84
-4589.05
-4686.12
-4554.3
-4382.39
-4320.01
-4310.11
-4393
-4584.14
-4662.95
-4488.75
-4279.17
-4201.55
-4194.84
-4263.02
-4441.34
-4535.71
-4389.21
-4220.74
-4175
-4187.39
-4305.19
-4525.82
-4610.43
-4435.51
-4239.81
-4181.54
-4185.91
-4276.22
-4455.04
-4496.42
-4307.08
-4150.8
-4130.51
-4163.9
-4336.1
-4588.65
-3413.83
-3546.48
-3864.28
-4139.72
-4266.51
-4312.09
-4353.31
-4414.82
-4505.06
-4554.38
-4500.47
-4422.56
-4385.08
-4372.14
-4407.69
-4496.02
-4527.8
-4435.25
-4323.77
-4277.89
-4270.42
-4302.55
-4380.68
-4422.29
-4358.91
-4281.57
-4255.22
-4259.82
-4321.33
-4432.21
-4474.4
-4387.44
-4287.11
-4254.97
-4256.97
-4300.93
-4376.97
-4390.61
-4303.04
-4227.51
-4214.95
-4233.88
-4325.21
-4451.74
-3611.31
-3702.95
-3895.44
-4086.03
-4205.78
-4277.82
-4335.22
-4388.11
-4439.4
-4468.68
-4459.11
-4435.22
-4417.23
-4404.25
-4410.2
-4437.81
-4443.31
-4400.35
-4349.24
-4324.49
-4316.76
-4324.96
-4349.32
-4363.14
-4342.89
-4316.17
-4304.1
-4303.48
-4327.7
-4373.02
-4390.47
-4355.97
-4314.19
-4299.31
-4299.34
-4313.77
-4336.12
-4336.31
-4302.91
-4274.1
-4268.56
-4276.89
-4315.33
-4365.96
-3760.94
-3828.48
-3946.86
-4071.74
-4171.03
-4246.61
-4306.85
-4354.02
-4390.11
-4414.68
-4426.53
-4429.03
-4424.11
-4412.8
-4404.27
-4402.81
-4397.03
-4379.26
-4359.8
-4348
-4340.44
-4336.21
-4337.23
-4339.31
-4336.67
-4332.48
-4328.62
-4325.01
-4328.84
-4340.95
-4346.41
-4337.47
-4325.92
-4321.46
-4319.88
-4319.56
-4319.62
-4315.45
-4305.7
-4298.72
-4297.37
-4298.52
-4308.12
-4321.08
-3876.79
-3923.38
-3998.33
-4081.11
-4157.8
-4224.38
-4279.48
-4322.07
-4354.21
-4379.62
-4399.72
-4412.45
-4414.92
-4406.85
-4393.95
-4382.91
-4374.38
-4367.09
-4361.27
-4356.22
-4349.55
-4341.46
-4335.37
-4333.71
-4335.62
-4338.09
-4337.36
-4332.59
-4327.86
-4326.73
-4327.52
-4327.93
-4328.61
-4329.16
-4327.08
-4321.98
-4316.07
-4311.68
-4309.57
-4309.76
-4309.58
-4306.79
-4304.27
-4303.02
-3967.99
-3997.15
-4044.78
-4100.49
-4157.56
-4211.27
-4258.22
-4296.77
-4327.9
-4354.18
-4376.06
-4391.17
-4396.62
-4392.15
-4381.72
-4371
-4363.59
-4360.1
-4358.71
-4356.4
-4351.04
-4343.52
-4337.15
-4334.81
-4336.33
-4338.76
-4338.21
-4333.37
-4326.82
-4322.14
-4321.41
-4323.89
-4327.6
-4329.72
-4328.07
-4322.99
-4317.38
-4313.8
-4313.13
-4313.82
-4313.01
-4308.88
-4303.24
-4298.71
-4040.43
-4057.24
-4086.74
-4123.84
-4164.69
-4205.93
-4244.24
-4278.13
-4307.51
-4332.87
-4353.79
-4368.59
-4375.55
-4374.81
-4369.06
-4362.28
-4357.5
-4355.46
-4354.72
-4353.04
-4349.08
-4343.63
-4338.86
-4336.61
-4336.81
-4337.41
-4336.11
-4331.96
-4326.54
-4322.49
-4321.4
-4323.17
-4326.03
-4327.64
-4326.46
-4323.08
-4319.24
-4316.63
-4315.58
-4314.99
-4313.24
-4309.28
-4304.53
-4300.91
-4097.59
-4106.96
-4124.75
-4148.8
-4176.94
-4206.95
-4237
-4265.25
-4291.05
-4313.83
-4332.74
-4346.64
-4354.74
-4357.39
-4356.27
-4353.73
-4351.66
-4350.64
-4349.97
-4348.56
-4345.87
-4342.38
-4339.24
-4337.31
-4336.47
-4335.7
-4333.87
-4330.64
-4326.87
-4323.97
-4322.92
-4323.54
-4324.85
-4325.48
-4324.64
-4322.67
-4320.32
-4318.32
-4316.81
-4315.3
-4313.12
-4310.05
-4306.84
-4304.57
-4142.23
-4147.56
-4158.26
-4173.55
-4192.38
-4213.46
-4235.55
-4257.64
-4278.66
-4297.76
-4314.11
-4326.9
-4335.75
-4340.92
-4343.3
-4344.12
-4344.39
-4344.52
-4344.34
-4343.53
-4341.96
-4339.94
-4337.99
-4336.45
-4335.26
-4333.97
-4332.18
-4329.83
-4327.35
-4325.38
-4324.35
-4324.17
-4324.32
-4324.2
-4323.44
-4322.13
-4320.55
-4318.97
-4317.42
-4315.75
-4313.78
-4311.59
-4309.6
-4308.3
-4176.74
-4179.94
-4186.52
-4196.25
-4208.65
-4223.05
-4238.72
-4254.93
-4270.93
-4286.01
-4299.47
-4310.76
-4319.61
-4326.07
-4330.55
-4333.57
-4335.62
-4336.97
-4337.69
-4337.75
-4337.25
-4336.36
-4335.33
-4334.32
-4333.3
-4332.16
-4330.78
-4329.19
-4327.59
-4326.22
-4325.26
-4324.66
-4324.2
-4323.64
-4322.83
-4321.8
-4320.61
-4319.35
-4318.02
-4316.6
-4315.11
-4313.65
-4312.46
-4311.73
-4203.18
-4205.21
-4209.39
-4215.67
-4223.84
-4233.53
-4244.34
-4255.82
-4267.51
-4278.86
-4289.46
-4298.92
-4307
-4313.65
-4318.95
-4323.09
-4326.27
-4328.64
-4330.28
-4331.29
-4331.77
-4331.84
-4331.64
-4331.26
-4330.73
-4330.05
-4329.21
-4328.25
-4327.26
-4326.35
-4325.55
-4324.85
-4324.19
-4323.49
-4322.7
-4321.83
-4320.88
-4319.89
-4318.87
-4317.83
-4316.81
-4315.89
-4315.19
-4314.77
-4223.2
-4224.53
-4227.28
-4231.41
-4236.84
-4243.36
-4250.75
-4258.75
-4267.06
-4275.43
-4283.52
-4291.1
-4297.99
-4304.08
-4309.34
-4313.8
-4317.49
-4320.49
-4322.84
-4324.63
-4325.92
-4326.8
-4327.35
-4327.63
-4327.7
-4327.57
-4327.28
-4326.87
-4326.37
-4325.83
-4325.27
-4324.71
-4324.12
-4323.5
-4322.84
-4322.14
-4321.42
-4320.68
-4319.95
-4319.25
-4318.59
-4318.03
-4317.62
-4317.39
-4238.04
-4238.95
-4240.79
-4243.59
-4247.26
-4251.72
-4256.82
-4262.42
-4268.35
-4274.46
-4280.55
-4286.47
-4292.1
-4297.33
-4302.1
-4306.37
-4310.13
-4313.38
-4316.14
-4318.44
-4320.31
-4321.81
-4322.97
-4323.85
-4324.47
-4324.88
-4325.1
-4325.16
-4325.09
-4324.92
-4324.67
-4324.35
-4323.97
-4323.54
-4323.08
-4322.59
-4322.09
-4321.59
-4321.11
-4320.65
-4320.25
-4319.92
-4319.68
-4319.54
-4247.86
-4248.52
-4249.84
-4251.85
-4254.5
-4257.72
-4261.45
-4265.58
-4270.02
-4274.66
-4279.41
-4284.14
-4288.78
-4293.24
-4297.45
-4301.37
-4304.96
-4308.21
-4311.11
-4313.65
-4315.85
-4317.73
-4319.31
-4320.61
-4321.66
-4322.49
-4323.1
-4323.54
-4323.83
-4323.97
-4324
-4323.94
-4323.8
-4323.59
-4323.33
-4323.04
-4322.73
-4322.41
-4322.11
-4321.82
-4321.57
-4321.37
-4321.22
-4321.15
-4253.43
-4253.95
-4255
-4256.59
-4258.7
-4261.28
-4264.27
-4267.61
-4271.24
-4275.07
-4279.04
-4283.07
-4287.09
-4291.04
-4294.85
-4298.49
-4301.91
-4305.08
-4308
-4310.63
-4312.99
-4315.07
-4316.89
-4318.44
-4319.76
-4320.85
-4321.73
-4322.42
-4322.94
-4323.31
-4323.55
-4323.68
-4323.71
-4323.67
-4323.56
-4323.41
-4323.23
-4323.04
-4322.84
-4322.66
-4322.49
-4322.36
-4322.26
-4322.21
-4256.31
-4256.77
-4257.67
-4259.05
-4260.88
-4263.12
-4265.74
-4268.68
-4271.88
-4275.29
-4278.85
-4282.5
-4286.18
-4289.84
-4293.42
-4296.89
-4300.2
-4303.32
-4306.22
-4308.9
-4311.34
-4313.54
-4315.48
-4317.19
-4318.66
-4319.91
-4320.95
-4321.8
-4322.47
-4322.98
-4323.36
-4323.61
-4323.75
-4323.81
-4323.8
-4323.74
-4323.63
-4323.51
-4323.38
-4323.25
-4323.13
-4323.03
-4322.96
-4322.92
-4257.65
-4258.07
-4258.9
-4260.17
-4261.86
-4263.94
-4266.36
-4269.1
-4272.09
-4275.29
-4278.64
-4282.1
-4285.61
-4289.12
-4292.59
-4295.97
-4299.23
-4302.33
-4305.25
-4307.96
-4310.45
-4312.72
-4314.75
-4316.55
-4318.12
-4319.47
-4320.61
-4321.56
-4322.32
-4322.92
-4323.37
-4323.69
-4323.9
-4324.02
-4324.06
-4324.04
-4323.98
-4323.9
-4323.8
-4323.69
-4323.6
-4323.52
-4323.46
-4323.43
-4258.1
-4258.5
-4259.29
-4260.51
-4262.14
-4264.14
-4266.48
-4269.12
-4272.02
-4275.12
-4278.39
-4281.77
-4285.21
-4288.67
-4292.1
-4295.46
-4298.71
-4301.82
-4304.76
-4307.5
-4310.04
-4312.36
-4314.45
-4316.31
-4317.95
-4319.36
-4320.56
-4321.56
-4322.38
-4323.02
-4323.51
-4323.87
-4324.11
-4324.26
-4324.32
-4324.33
-4324.28
-4324.21
-4324.12
-4324.03
-4323.94
-4323.86
-4323.81
-4323.79
-4258.06
-4258.45
-4259.24
-4260.44
-4262.05
-4264.02
-4266.34
-4268.95
-4271.82
-4274.9
-4278.15
-4281.52
-4284.95
-4288.41
-4291.84
-4295.21
-4298.48
-4301.61
-4304.58
-4307.36
-4309.94
-4312.29
-4314.42
-4316.32
-4318
-4319.44
-4320.67
-4321.7
-4322.54
-4323.2
-4323.71
-4324.07
-4324.32
-4324.47
-4324.54
-4324.54
-4324.5
-4324.42
-4324.33
-4324.24
-4324.15
-4324.07
-4324.02
-4323.99
-4257.84
-4258.24
-4259.02
-4260.22
-4261.83
-4263.81
-4266.13
-4268.75
-4271.63
-4274.73
-4278
-4281.38
-4284.84
-4288.32
-4291.78
-4295.17
-4298.47
-4301.63
-4304.62
-4307.43
-4310.03
-4312.41
-4314.56
-4316.48
-4318.16
-4319.61
-4320.85
-4321.87
-4322.71
-4323.36
-4323.86
-4324.21
-4324.45
-4324.58
-4324.63
-4324.62
-4324.57
-4324.48
-4324.38
-4324.27
-4324.18
-4324.1
-4324.04
-4324.02
-4257.63
-4258.02
-4258.8
-4260.01
-4261.63
-4263.64
-4265.98
-4268.63
-4271.55
-4274.68
-4277.98
-4281.4
-4284.89
-4288.4
-4291.89
-4295.32
-4298.64
-4301.82
-4304.83
-4307.65
-4310.26
-4312.64
-4314.79
-4316.7
-4318.37
-4319.81
-4321.02
-4322.02
-4322.83
-4323.45
-4323.91
-4324.24
-4324.44
-4324.54
-4324.57
-4324.53
-4324.45
-4324.34
-4324.22
-4324.11
-4324
-4323.91
-4323.85
-4323.83
-4257.52
-4257.92
-4258.7
-4259.92
-4261.57
-4263.6
-4265.98
-4268.67
-4271.63
-4274.8
-4278.13
-4281.59
-4285.11
-4288.65
-4292.17
-4295.61
-4298.95
-4302.14
-4305.16
-4307.97
-4310.57
-4312.94
-4315.07
-4316.95
-4318.59
-4319.99
-4321.16
-4322.12
-4322.87
-4323.44
-4323.85
-4324.12
-4324.27
-4324.33
-4324.31
-4324.23
-4324.11
-4323.98
-4323.84
-4323.71
-4323.59
-4323.5
-4323.43
-4323.4
-4257.6
-4258
-4258.78
-4260.03
-4261.7
-4263.76
-4266.18
-4268.9
-4271.88
-4275.08
-4278.44
-4281.92
-4285.47
-4289.03
-4292.55
-4296.01
-4299.35
-4302.54
-4305.55
-4308.35
-4310.93
-4313.27
-4315.37
-4317.21
-4318.8
-4320.15
-4321.26
-4322.16
-4322.85
-4323.35
-4323.69
-4323.89
-4323.97
-4323.95
-4323.87
-4323.73
-4323.56
-4323.39
-4323.21
-4323.06
-4322.93
-4322.83
-4322.77
-4322.74
-4257.92
-4258.31
-4259.1
-4260.36
-4262.06
-4264.14
-4266.56
-4269.3
-4272.29
-4275.5
-4278.87
-4282.36
-4285.91
-4289.48
-4293.01
-4296.46
-4299.8
-4302.98
-4305.97
-4308.76
-4311.31
-4313.62
-4315.67
-4317.47
-4319
-4320.29
-4321.34
-4322.16
-4322.78
-4323.2
-4323.46
-4323.57
-4323.56
-4323.46
-4323.29
-4323.07
-4322.83
-4322.59
-4322.37
-4322.18
-4322.03
-4321.92
-4321.86
-4321.84
-4258.51
-4258.9
-4259.69
-4260.95
-4262.63
-4264.7
-4267.12
-4269.83
-4272.81
-4276.01
-4279.37
-4282.85
-4286.4
-4289.96
-4293.48
-4296.93
-4300.25
-4303.42
-4306.39
-4309.16
-4311.68
-4313.95
-4315.96
-4317.71
-4319.19
-4320.42
-4321.4
-4322.15
-4322.69
-4323.03
-4323.19
-4323.21
-4323.11
-4322.91
-4322.64
-4322.32
-4321.98
-4321.64
-4321.33
-4321.07
-4320.88
-4320.75
-4320.69
-4320.69
-4259.41
-4259.79
-4260.57
-4261.77
-4263.41
-4265.42
-4267.78
-4270.44
-4273.38
-4276.54
-4279.88
-4283.34
-4286.87
-4290.42
-4293.94
-4297.37
-4300.68
-4303.84
-4306.8
-4309.53
-4312.03
-4314.27
-4316.24
-4317.94
-4319.38
-4320.55
-4321.46
-4322.14
-4322.6
-4322.86
-4322.94
-4322.86
-4322.66
-4322.35
-4321.97
-4321.53
-4321.07
-4320.6
-4320.17
-4319.8
-4319.51
-4319.31
-4319.25
-4319.26
-4260.7
-4261.02
-4261.73
-4262.8
-4264.32
-4266.22
-4268.48
-4271.07
-4273.94
-4277.05
-4280.36
-4283.79
-4287.31
-4290.84
-4294.35
-4297.77
-4301.08
-4304.22
-4307.16
-4309.88
-4312.35
-4314.56
-4316.5
-4318.16
-4319.55
-4320.67
-4321.53
-4322.14
-4322.53
-4322.71
-4322.71
-4322.54
-4322.24
-4321.83
-4321.33
-4320.76
-4320.16
-4319.55
-4318.96
-4318.41
-4317.97
-4317.62
-4317.5
-4317.49
-4262.48
-4262.6
-4263.14
-4263.96
-4265.29
-4267.03
-4269.17
-4271.65
-4274.45
-4277.51
-4280.77
-4284.18
-4287.68
-4291.21
-4294.7
-4298.12
-4301.42
-4304.55
-4307.48
-4310.18
-4312.64
-4314.83
-4316.74
-4318.36
-4319.71
-4320.79
-4321.6
-4322.16
-4322.48
-4322.6
-4322.52
-4322.28
-4321.89
-4321.37
-4320.76
-4320.07
-4319.33
-4318.56
-4317.78
-4317.01
-4316.34
-4315.71
-4315.45
-4315.28
-4264.89
-4264.5
-4264.74
-4265.16
-4266.25
-4267.79
-4269.78
-4272.16
-4274.88
-4277.89
-4281.12
-4284.5
-4287.99
-4291.5
-4294.99
-4298.41
-4301.7
-4304.82
-4307.75
-4310.44
-4312.88
-4315.05
-4316.94
-4318.54
-4319.86
-4320.9
-4321.67
-4322.18
-4322.46
-4322.52
-4322.38
-4322.06
-4321.6
-4321
-4320.29
-4319.49
-4318.61
-4317.68
-4316.7
-4315.68
-4314.72
-4313.68
-4313.16
-4312.48
-4268.07
-4266.6
-4266.4
-4266.3
-4267.11
-4268.43
-4270.29
-4272.57
-4275.22
-4278.18
-4281.38
-4284.75
-4288.22
-4291.73
-4295.22
-4298.63
-4301.92
-4305.05
-4307.97
-4310.66
-4313.09
-4315.24
-4317.11
-4318.7
-4319.99
-4321
-4321.74
-4322.21
-4322.45
-4322.47
-4322.28
-4321.91
-4321.38
-4320.71
-4319.92
-4319.02
-4318.03
-4316.95
-4315.79
-4314.52
-4313.24
-4311.65
-4310.72
-4308.97
-4272.1
-4268.74
-4267.96
-4267.28
-4267.81
-4268.94
-4270.67
-4272.87
-4275.46
-4278.39
-4281.56
-4284.92
-4288.39
-4291.9
-4295.39
-4298.8
-4302.09
-4305.21
-4308.13
-4310.82
-4313.24
-4315.39
-4317.25
-4318.82
-4320.09
-4321.08
-4321.8
-4322.25
-4322.46
-4322.44
-4322.21
-4321.8
-4321.23
-4320.51
-4319.65
-4318.68
-4317.6
-4316.39
-4315.08
-4313.57
-4311.99
-4309.81
-4308.32
-4304.66
-4276.9
-4270.7
-4269.26
-4268.03
-4268.32
-4269.29
-4270.93
-4273.07
-4275.62
-4278.52
-4281.68
-4285.03
-4288.5
-4292.01
-4295.5
-4298.91
-4302.21
-4305.33
-4308.25
-4310.93
-4313.35
-4315.5
-4317.35
-4318.91
-4320.17
-4321.15
-4321.85
-4322.28
-4322.47
-4322.43
-4322.18
-4321.74
-4321.13
-4320.37
-4319.48
-4318.45
-4317.3
-4316.01
-4314.58
-4312.89
-4311.05
-4308.31
-4306.18
-4299.64
-4282.13
-4272.26
-4270.18
-4268.52
-4268.64
-4269.5
-4271.09
-4273.18
-4275.72
-4278.6
-4281.75
-4285.1
-4288.56
-4292.07
-4295.56
-4298.98
-4302.27
-4305.4
-4308.32
-4311
-4313.42
-4315.56
-4317.41
-4318.96
-4320.22
-4321.19
-4321.88
-4322.3
-4322.48
-4322.42
-4322.16
-4321.7
-4321.08
-4320.29
-4319.37
-4318.31
-4317.12
-4315.78
-4314.27
-4312.46
-4310.45
-4307.27
-4304.52
-4294.28
-4287.07
-4273.24
-4270.67
-4268.77
-4268.8
-4269.61
-4271.16
-4273.24
-4275.76
-4278.63
-4281.78
-4285.13
-4288.59
-4292.1
-4295.59
-4299.01
-4302.3
-4305.43
-4308.35
-4311.03
-4313.45
-4315.59
-4317.44
-4318.99
-4320.24
-4321.21
-4321.89
-4322.31
-4322.48
-4322.42
-4322.15
-4321.69
-4321.05
-4320.26
-4319.32
-4318.25
-4317.04
-4315.67
-4314.13
-4312.26
-4310.14
-4306.72
-4303.49
-4289.27
-4291.02
-4273.67
-4270.84
-4268.86
-4268.85
-4269.64
-4271.18
-4273.25
-4275.77
-4278.64
-4281.79
-4285.14
-4288.6
-4292.11
-4295.6
-4299.02
-4302.31
-4305.44
-4308.36
-4311.04
-4313.46
-4315.6
-4317.45
-4319
-4320.25
-4321.21
-4321.9
-4322.31
-4322.48
-4322.42
-4322.14
-4321.68
-4321.04
-4320.25
-4319.31
-4318.23
-4317.01
-4315.63
-4314.08
-4312.19
-4310.04
-4306.54
-4303.04
-4285.3
)
;

boundaryField
{
    movingWall
    {
        type            zeroGradient;
    }
    fixedWalls
    {
        type            zeroGradient;
    }
    frontAndBack
    {
        type            empty;
    }
    defaultFaces
    {
        type            empty;
    }
}


// ************************************************************************* //
