/*--------------------------------*- C++ -*----------------------------------*\
  =========                 |
  \\      /  F ield         | OpenFOAM: The Open Source CFD Toolbox
   \\    /   O peration     | Website:  https://openfoam.org
    \\  /    A nd           | Version:  7
     \\/     M anipulation  |
\*---------------------------------------------------------------------------*/
FoamFile
{
    version     2.0;
    format      ascii;
    class       volScalarField;
    location    "7.9";
    object      p;
}
// * * * * * * * * * * * * * * * * * * * * * * * * * * * * * * * * * * * * * //

dimensions      [0 2 -2 0 0 0 0];

internalField   nonuniform List<scalar> 
900
(
8.04473e-07
-0.00014384
-0.000322401
-0.000479462
-0.000582186
-0.000612114
-0.000562515
-0.000432108
-0.000221331
6.90841e-05
0.00043818
0.000883967
0.00140216
0.00198476
0.00261867
0.00328485
0.00395808
0.00460771
0.00519978
0.00570025
0.00607909
0.00631492
0.00639908
0.0063383
0.00615569
0.00588926
0.00558332
0.00530145
0.00509914
0.00503524
0.000144536
-3.65963e-06
-0.000129363
-0.000229585
-0.000285141
-0.000282136
-0.000214649
-8.03827e-05
0.000121557
0.000391325
0.000728308
0.00113055
0.00159385
0.00211072
0.00266934
0.00325272
0.00383996
0.00440467
0.0049185
0.00535337
0.005685
0.00589664
0.00598247
0.00594957
0.00581818
0.00561989
0.0053935
0.00518157
0.00502616
0.00496857
0.000331798
0.000117541
-1.13922e-05
-9.73881e-05
-0.000136706
-0.000120494
-4.57907e-05
8.83833e-05
0.000282725
0.000537739
0.000853418
0.00122861
0.00166012
0.00214167
0.00266289
0.00320901
0.0037601
0.00429164
0.00477676
0.00518843
0.00550301
0.00570407
0.00578579
0.00575496
0.00563096
0.00544357
0.00522893
0.00502523
0.00486683
0.00477713
0.000500542
0.000207573
5.7164e-05
-3.09067e-05
-6.62718e-05
-4.53732e-05
3.10291e-05
0.000161844
0.000347108
0.000587572
0.00088408
0.00123676
0.00164401
0.00210134
0.0026002
0.00312717
0.00366358
0.00418531
0.00466501
0.00507435
0.0053878
0.00558685
0.00566395
0.00562485
0.00548872
0.00528555
0.00505172
0.00482573
0.00463861
0.00449581
0.000605174
0.000232961
5.58289e-05
-4.13967e-05
-7.96587e-05
-5.99627e-05
1.33881e-05
0.000137248
0.000311
0.000535738
0.000813376
0.00114567
0.00153302
0.00197313
0.00245951
0.00298016
0.00351788
0.00404784
0.00454109
0.00496636
0.00529416
0.00550182
0.00557826
0.00552716
0.00536749
0.0051307
0.004856
0.00458567
0.00435095
0.00414388
0.000607552
0.000160755
-4.47818e-05
-0.000155389
-0.000201625
-0.0001883
-0.00012278
-9.96125e-06
0.000149082
0.000355972
0.000613929
0.000926638
0.00129691
0.00172509
0.00220712
0.00273266
0.00328687
0.00384307
0.00437004
0.00483212
0.00519384
0.00542593
0.00551136
0.00544998
0.00525994
0.0049751
0.00463988
0.0043042
0.00400404
0.00372196
0.000478022
-3.65349e-05
-0.000270006
-0.000396257
-0.000454164
-0.000451759
-0.00039897
-0.000302076
-0.000162351
2.25534e-05
0.000257382
0.000548052
0.000900192
0.00131735
0.0017987
0.00233647
0.0029186
0.00351726
0.00409859
0.00462147
0.00504232
0.00532225
0.00543489
0.0053732
0.00515273
0.00480988
0.00439657
0.00397446
0.00358886
0.00321367
0.000192037
-0.000382967
-0.000642898
-0.00078606
-0.000858754
-0.000871841
-0.000837422
-0.000762857
-0.000649446
-0.000493988
-0.00029008
-2.93216e-05
0.000297191
0.000696988
0.00117416
0.00172677
0.00233933
0.00299222
0.00364797
0.00425923
0.00477229
0.00513483
0.00530616
0.00526719
0.00502698
0.00462308
0.0041167
0.003586
0.00309051
0.00259453
-0.000271669
-0.000899876
-0.00118462
-0.00134589
-0.00143679
-0.00147079
-0.00146196
-0.00141862
-0.0013421
-0.00122843
-0.0010696
-0.00085464
-0.000570927
-0.000205973
0.000250374
0.000802446
0.00144225
0.00215432
0.0029014
0.00363159
0.0042797
0.00477564
0.00505727
0.00508501
0.00485391
0.00439825
0.00378901
0.0031265
0.00249053
0.0018326
-0.000931551
-0.00160575
-0.00191387
-0.00209495
-0.00220837
-0.00227024
-0.00229657
-0.00229679
-0.00227256
-0.00221956
-0.00212856
-0.00198625
-0.00177605
-0.0014795
-0.0010783
-0.000558336
8.34066e-05
0.000843737
0.00168947
0.00256811
0.00340362
0.0041039
0.00457604
0.00474697
0.00458416
0.00410872
0.00339869
0.00258262
0.00176914
0.000892186
-0.00180301
-0.00251582
-0.00284622
-0.00304957
-0.00319109
-0.00328968
-0.00336358
-0.00342379
-0.003473
-0.00350739
-0.00351751
-0.00348844
-0.00339993
-0.00322686
-0.00294056
-0.00251221
-0.00191999
-0.00115094
-0.000220356
0.00082612
0.00190581
0.00290238
0.00368157
0.00411854
0.00413101
0.00370738
0.0029231
0.00193995
0.000907184
-0.000263622
-0.00289774
-0.00364152
-0.00399343
-0.00422222
-0.0043986
-0.00454461
-0.00468125
-0.00482194
-0.00497158
-0.00512836
-0.00528424
-0.00542431
-0.00552575
-0.00555675
-0.00547628
-0.00523535
-0.00478266
-0.00408592
-0.00312056
-0.00191232
-0.000539918
0.000859042
0.00210015
0.00298455
0.00334759
0.00311081
0.00232406
0.00118153
-0.000111904
-0.00167026
-0.00422284
-0.00498975
-0.0053626
-0.0056204
-0.00583902
-0.0060442
-0.00626056
-0.00650519
-0.00678689
-0.007108
-0.00746437
-0.00784374
-0.00822291
-0.00856444
-0.00881377
-0.00889836
-0.00873233
-0.00823262
-0.00733323
-0.00601462
-0.00433104
-0.00242878
-0.000543849
0.00102979
0.00200374
0.00217957
0.00153659
0.00028543
-0.00129925
-0.00335751
-0.00577996
-0.00656234
-0.00695546
-0.0072455
-0.00751317
-0.00778871
-0.00810155
-0.00847403
-0.008921
-0.00945164
-0.010069
-0.0107669
-0.0115252
-0.0123034
-0.0130334
-0.0136161
-0.0139225
-0.013807
-0.0131382
-0.0118255
-0.00987064
-0.00740338
-0.00469799
-0.00215352
-0.000223828
0.000702049
0.000456842
-0.000777698
-0.00265535
-0.0053417
-0.00756464
-0.00835575
-0.00876804
-0.00909199
-0.00941306
-0.00976702
-0.0101895
-0.0107101
-0.0113521
-0.0121344
-0.0130709
-0.0141659
-0.0154065
-0.0167523
-0.0181242
-0.0193949
-0.020387
-0.0208836
-0.0206611
-0.0195436
-0.0174413
-0.0144292
-0.0107865
-0.00700326
-0.00372368
-0.00160264
-0.00106351
-0.00204411
-0.00416036
-0.00761173
-0.00956632
-0.0103615
-0.0107909
-0.0111472
-0.0115209
-0.0119546
-0.012492
-0.0131718
-0.0140281
-0.0150928
-0.0163937
-0.0179494
-0.0197588
-0.0217859
-0.0239434
-0.0260773
-0.0279609
-0.0293001
-0.029764
-0.0290868
-0.0270458
-0.0236206
-0.0190442
-0.0138501
-0.00885773
-0.00503942
-0.00320188
-0.00354833
-0.00575737
-0.0101057
-0.0117691
-0.0125677
-0.0130104
-0.0133921
-0.013809
-0.0143126
-0.0149567
-0.0157915
-0.0168637
-0.0182202
-0.0199056
-0.0219557
-0.024384
-0.0271626
-0.0301995
-0.0333173
-0.0362427
-0.0386113
-0.0399955
-0.0399969
-0.0382762
-0.0346774
-0.0293273
-0.0227258
-0.0157992
-0.00982958
-0.00610873
-0.00529721
-0.00732585
-0.0126757
-0.0141538
-0.0149614
-0.0154111
-0.0158028
-0.0162408
-0.0167884
-0.0175124
-0.0184763
-0.0197412
-0.0213701
-0.0234252
-0.0259604
-0.0290051
-0.0325411
-0.0364742
-0.0406082
-0.0446299
-0.0481171
-0.0505698
-0.0514313
-0.0502803
-0.0468066
-0.0409837
-0.0331906
-0.0243448
-0.0159485
-0.00980275
-0.00721475
-0.00864214
-0.0150384
-0.0167019
-0.017534
-0.0179798
-0.0183536
-0.0187729
-0.0193174
-0.0200709
-0.0211121
-0.0225177
-0.0243662
-0.0267367
-0.0297
-0.0332999
-0.0375268
-0.0422855
-0.0473653
-0.0524218
-0.0569849
-0.0604885
-0.0623076
-0.0618981
-0.0588219
-0.0528854
-0.0442802
-0.0337858
-0.0229626
-0.0140304
-0.00904976
-0.0093243
-0.0167099
-0.0194018
-0.0202876
-0.0207112
-0.0210211
-0.0213582
-0.0218264
-0.0225317
-0.023571
-0.0250361
-0.0270199
-0.0296158
-0.0329076
-0.03695
-0.0417389
-0.0471771
-0.053042
-0.0589672
-0.0644483
-0.068876
-0.0715829
-0.0719433
-0.0694178
-0.0636607
-0.0546534
-0.0429391
-0.029952
-0.0181324
-0.0102603
-0.00876141
-0.0169197
-0.0222593
-0.0232465
-0.0236154
-0.0237884
-0.0239487
-0.0242369
-0.0247884
-0.0257207
-0.0271405
-0.0291521
-0.0318588
-0.0353524
-0.039693
-0.0448777
-0.0508038
-0.0572387
-0.0638001
-0.069962
-0.0750912
-0.0785036
-0.0795016
-0.077503
-0.0720407
-0.0629046
-0.050367
-0.0355921
-0.0209969
-0.00990484
-0.00602869
-0.0145003
-0.0253162
-0.0264733
-0.0267282
-0.0266495
-0.0264979
-0.0264685
-0.0267345
-0.0274358
-0.0286916
-0.0306138
-0.0333098
-0.036873
-0.0413627
-0.0467727
-0.0529887
-0.0597691
-0.0667198
-0.0733014
-0.0788637
-0.0827025
-0.0841099
-0.0824434
-0.0771592
-0.0679003
-0.0546962
-0.0383809
-0.0211461
-0.00660378
0.00020289
-0.00775539
-0.0286869
-0.0300961
-0.0301231
-0.0296129
-0.0289619
-0.0284419
-0.0282706
-0.0286085
-0.0295823
-0.0313053
-0.0338823
-0.0373995
-0.0419094
-0.0474037
-0.0537406
-0.0606732
-0.0677936
-0.0745506
-0.080282
-0.0842649
-0.085772
-0.0841143
-0.0786751
-0.0689842
-0.0548876
-0.0369132
-0.0169317
0.00139731
0.0117585
0.00569174
-0.0326355
-0.0343521
-0.0339274
-0.032703
-0.0312986
-0.0300817
-0.0293117
-0.0291603
-0.0297513
-0.03119
-0.0335716
-0.036961
-0.0414116
-0.0468785
-0.053219
-0.0601618
-0.0672851
-0.074024
-0.0796986
-0.0835588
-0.0848386
-0.08277
-0.0766756
-0.0659826
-0.0503616
-0.0301158
-0.00677847
0.0161304
0.0310783
0.0290456
-0.0377456
-0.0396575
-0.0383361
-0.0359563
-0.0334643
-0.0313184
-0.0297944
-0.0290517
-0.0291925
-0.0302997
-0.0324459
-0.0356838
-0.0400288
-0.0454203
-0.0516944
-0.0585569
-0.0655671
-0.0721401
-0.0775688
-0.0810601
-0.0817832
-0.078874
-0.0715386
-0.0590663
-0.0409921
-0.017426
0.0104893
0.0398069
0.0612884
0.0663146
-0.0453188
-0.0467165
-0.0436011
-0.0393949
-0.0353929
-0.0320731
-0.0296645
-0.0282701
-0.027942
-0.0287217
-0.0306473
-0.0337408
-0.037985
-0.043291
-0.0494676
-0.0561949
-0.063008
-0.0692963
-0.0743166
-0.0772175
-0.0770734
-0.0729115
-0.0637488
-0.0486826
-0.0270345
0.00128824
0.0353042
0.074162
0.105596
0.122081
-0.0585261
-0.0567122
-0.0499744
-0.0429467
-0.0369165
-0.0321804
-0.0288018
-0.0267605
-0.0260139
-0.0265351
-0.0283094
-0.0313161
-0.0354995
-0.0407366
-0.0468051
-0.0533571
-0.0599015
-0.0657987
-0.0702666
-0.0723966
-0.071177
-0.0654074
-0.0539488
-0.035608
-0.00936129
0.0253536
0.0682589
0.118396
0.165255
0.203148
-0.0854136
-0.0710906
-0.0576428
-0.0463365
-0.0376188
-0.0312651
-0.0269375
-0.0243717
-0.0233661
-0.0237871
-0.0255478
-0.0285747
-0.0327707
-0.0379782
-0.0439463
-0.0503024
-0.0565326
-0.06197
-0.0657906
-0.067022
-0.0645659
-0.0571633
-0.0433239
-0.0214956
0.00986295
0.052172
0.10619
0.172245
0.240842
0.323188
-0.137635
-0.0864706
-0.0644656
-0.0472794
-0.0354486
-0.0277536
-0.0229752
-0.0203666
-0.0195034
-0.0201409
-0.0221282
-0.0253505
-0.0296824
-0.0349468
-0.0408787
-0.0470967
-0.0530811
-0.0581591
-0.0614913
-0.0620564
-0.0586281
-0.050009
-0.0344673
-0.0100373
0.0255078
0.0750643
0.141729
0.230607
0.338401
0.508112
-0.310385
-0.0962721
-0.0473295
-0.0287232
-0.0182721
-0.0127599
-0.0103974
-0.00990856
-0.0107178
-0.0126355
-0.0155946
-0.0195451
-0.0244109
-0.0300549
-0.0362471
-0.0426378
-0.0487363
-0.0538987
-0.0573206
-0.058042
-0.0549353
-0.0464565
-0.0309993
-0.00656268
0.0295151
0.0816006
0.156338
0.271431
0.446483
0.790261
)
;

boundaryField
{
    movingWall
    {
        type            zeroGradient;
    }
    fixedWalls
    {
        type            zeroGradient;
    }
    frontAndBack
    {
        type            empty;
    }
}


// ************************************************************************* //
