/*--------------------------------*- C++ -*----------------------------------*\
  =========                 |
  \\      /  F ield         | OpenFOAM: The Open Source CFD Toolbox
   \\    /   O peration     | Website:  https://openfoam.org
    \\  /    A nd           | Version:  7
     \\/     M anipulation  |
\*---------------------------------------------------------------------------*/
FoamFile
{
    version     2.0;
    format      ascii;
    class       surfaceScalarField;
    location    "7.9";
    object      phi;
}
// * * * * * * * * * * * * * * * * * * * * * * * * * * * * * * * * * * * * * //

dimensions      [0 3 -1 0 0 0 0];

internalField   nonuniform List<scalar> 
1740
(
5.64717e-07
-5.65476e-07
-4.95532e-07
1.06025e-06
-3.3136e-06
2.81807e-06
-7.52156e-06
4.20795e-06
-1.2672e-05
5.15045e-06
-1.83794e-05
5.70742e-06
-2.43498e-05
5.97041e-06
-3.03631e-05
6.01327e-06
-3.6242e-05
5.87885e-06
-4.18234e-05
5.58143e-06
-4.69376e-05
5.11424e-06
-5.13961e-05
4.45851e-06
-5.49893e-05
3.59321e-06
-5.74943e-05
2.50496e-06
-5.86919e-05
1.19764e-06
-5.83923e-05
-2.99617e-07
-5.64643e-05
-1.92804e-06
-5.2872e-05
-3.59225e-06
-4.77035e-05
-5.1685e-06
-4.11893e-05
-6.51421e-06
-3.37046e-05
-7.48473e-06
-2.57492e-05
-7.95537e-06
-1.79051e-05
-7.84411e-06
-1.07743e-05
-7.13075e-06
-4.90703e-06
-5.8673e-06
-7.24323e-07
-4.18271e-06
1.57206e-06
-2.29638e-06
2.03428e-06
-4.62207e-07
1.11306e-06
9.21235e-07
1.11307e-06
-1.0618e-06
4.9633e-07
-5.73686e-06
5.73531e-06
-1.40476e-05
1.11288e-05
-2.52913e-05
1.54516e-05
-3.86458e-05
1.8505e-05
-5.33322e-05
2.03938e-05
-6.86812e-05
2.13194e-05
-8.41312e-05
2.14632e-05
-9.91927e-05
2.09404e-05
-0.000113406
1.9795e-05
-0.000126308
1.80156e-05
-0.000137409
1.55594e-05
-0.000146196
1.23811e-05
-0.000152154
8.46276e-06
-0.000154797
3.84062e-06
-0.00015374
-1.35703e-06
-0.000148729
-6.93939e-06
-0.000139745
-1.25754e-05
-0.000127044
-1.78703e-05
-0.000111184
-2.23739e-05
-9.30326e-05
-2.5636e-05
-7.37155e-05
-2.72725e-05
-5.45257e-05
-2.70339e-05
-3.67919e-05
-2.48645e-05
-2.17215e-05
-2.09377e-05
-1.02369e-05
-1.56673e-05
-2.8318e-06
-9.70146e-06
6.14619e-07
-3.90865e-06
9.82668e-07
5.53155e-07
2.09575e-06
-3.02357e-06
3.5199e-06
-1.1787e-05
1.44987e-05
-2.54985e-05
2.48404e-05
-4.31319e-05
3.3085e-05
-6.35875e-05
3.89606e-05
-8.58334e-05
4.26397e-05
-0.000108956
4.44419e-05
-0.000132154
4.46618e-05
-0.000154705
4.34911e-05
-0.000175917
4.10065e-05
-0.000195093
3.71921e-05
-0.000211515
3.19819e-05
-0.000224446
2.53115e-05
-0.000233156
1.71728e-05
-0.000236983
7.66737e-06
-0.000235392
-2.94777e-06
-0.000228065
-1.42658e-05
-0.000214994
-2.56465e-05
-0.000196542
-3.63225e-05
-0.00017349
-4.54263e-05
-0.000147034
-5.20916e-05
-0.00011873
-5.55769e-05
-9.03681e-05
-5.53955e-05
-6.38018e-05
-5.14309e-05
-4.07292e-05
-4.40103e-05
-2.24691e-05
-3.39273e-05
-9.7504e-06
-2.24202e-05
-2.53132e-06
-1.11277e-05
9.58125e-08
-2.07399e-06
2.19156e-06
-4.88486e-06
8.40475e-06
-1.75936e-05
2.72075e-05
-3.64777e-05
4.37245e-05
-6.00274e-05
5.66347e-05
-8.6858e-05
6.57912e-05
-0.000115735
7.15168e-05
-0.000145575
7.42814e-05
-0.000175414
7.45014e-05
-0.000204368
7.24452e-05
-0.00023158
6.82179e-05
-0.000256183
6.17947e-05
-0.000277284
5.30831e-05
-0.000293971
4.19988e-05
-0.000305347
2.85485e-05
-0.000310589
1.29099e-05
-0.000309033
-4.50385e-06
-0.000300261
-2.30383e-05
-0.000284219
-4.16885e-05
-0.000261298
-5.9243e-05
-0.000232397
-7.43279e-05
-0.00019893
-8.55584e-05
-0.000162776
-9.17304e-05
-0.000126143
-9.20291e-05
-9.13534e-05
-8.62202e-05
-6.05833e-05
-7.47805e-05
-3.557e-05
-5.89406e-05
-1.73514e-05
-4.06388e-05
-6.06814e-06
-2.2411e-05
-8.82754e-07
-7.25939e-06
1.30881e-06
-6.53844e-06
1.49432e-05
-2.2901e-05
4.35701e-05
-4.66033e-05
6.74268e-05
-7.56227e-05
8.5654e-05
-0.000108272
9.8441e-05
-0.000143134
0.000106378
-0.000178996
0.000110143
-0.00021479
0.000110296
-0.00024953
0.000107185
-0.000282252
0.00010094
-0.000311974
9.15162e-05
-0.000337673
7.87827e-05
-0.000358296
6.26216e-05
-0.000372787
4.30399e-05
-0.000380156
2.02789e-05
-0.000379571
-5.08934e-06
-0.000370436
-3.21737e-05
-0.000352561
-5.9563e-05
-0.000326253
-8.55507e-05
-0.000292413
-0.000108168
-0.00025258
-0.000125391
-0.000208899
-0.000135411
-0.000163985
-0.000136943
-0.000120683
-0.000129522
-8.17402e-05
-0.000113724
-4.94356e-05
-9.12452e-05
-2.52433e-05
-6.48311e-05
-9.58883e-06
-3.80655e-05
-1.75999e-06
-1.50882e-05
-4.51182e-07
-7.98712e-06
2.29303e-05
-2.76618e-05
6.32448e-05
-5.57866e-05
9.55516e-05
-8.98463e-05
0.000119714
-0.000127859
0.000136454
-0.000168239
0.000146758
-0.000209679
0.000151584
-0.000251053
0.00015167
-0.000291324
0.000147456
-0.000329475
0.000139091
-0.000364456
0.000126497
-0.000395153
0.00010948
-0.000420389
8.78572e-05
-0.000438945
6.15965e-05
-0.000449625
3.09584e-05
-0.000451366
-3.34848e-06
-0.000443276
-4.02633e-05
-0.000424906
-7.79329e-05
-0.00039633
-0.000114127
-0.000358311
-0.000146187
-0.000312406
-0.000171296
-0.000260979
-0.000186839
-0.000207083
-0.000190839
-0.0001542
-0.000182405
-0.000105833
-0.00016209
-6.50228e-05
-0.000132056
-3.38782e-05
-9.59757e-05
-1.32432e-05
-5.87005e-05
-2.56914e-06
-2.57623e-05
-3.02032e-06
-9.26041e-06
3.21907e-05
-3.19096e-05
8.5894e-05
-6.40579e-05
0.0001277
-0.000102747
0.000158403
-0.000145728
0.000179434
-0.000191273
0.000192303
-0.000238015
0.000198326
-0.000284808
0.000198463
-0.000330617
0.000193265
-0.000374421
0.000182895
-0.000415148
0.000167225
-0.000451629
0.000145961
-0.000482576
0.000118804
-0.000506594
8.56143e-05
-0.000522227
4.65922e-05
-0.000528088
2.51217e-06
-0.000522875
-4.54766e-05
-0.000505703
-9.5105e-05
-0.000476229
-0.000143601
-0.000434901
-0.000187515
-0.000383147
-0.00022305
-0.000323472
-0.000246514
-0.000259399
-0.000254912
-0.000195194
-0.00024661
-0.000135372
-0.000221912
-8.40496e-05
-0.000183378
-4.42741e-05
-0.000135751
-1.75136e-05
-8.54611e-05
-3.44337e-06
-3.98324e-05
-6.4637e-06
-1.03829e-05
4.25737e-05
-3.56865e-05
0.000111198
-7.14677e-05
0.000163481
-0.000114389
0.000201324
-0.000161976
0.000227021
-0.000212394
0.000242721
-0.000264252
0.000250183
-0.00031643
0.000250641
-0.000367941
0.000244776
-0.000417816
0.000232769
-0.000465008
0.000214417
-0.000508326
0.00018928
-0.00054639
0.000156868
-0.000577618
0.000116842
-0.000600257
6.92311e-05
-0.000612428
1.4683e-05
-0.000612393
-4.55118e-05
-0.000598574
-0.000108924
-0.000570006
-0.000172169
-0.000526593
-0.000230929
-0.000469425
-0.000280218
-0.000401011
-0.000314928
-0.000325316
-0.000330606
-0.000247527
-0.000324399
-0.000173473
-0.000295966
-0.000108767
-0.000248085
-5.78284e-05
-0.00018669
-2.30836e-05
-0.000120206
-4.5812e-06
-5.83348e-05
-1.10449e-05
-1.13657e-05
5.39394e-05
-3.90124e-05
0.000138844
-7.80375e-05
0.000202506
-0.000124792
0.000248079
-0.000176623
0.000278852
-0.00023163
0.000297729
-0.000288437
0.00030699
-0.000345996
0.000308201
-0.000403422
0.000302201
-0.000459846
0.000289193
-0.0005143
0.000268871
-0.000565615
0.000240595
-0.000612343
0.000203596
-0.000652711
0.00015721
-0.000684619
0.000101139
-0.000705691
3.57545e-05
-0.000713505
-3.76968e-05
-0.000705672
-0.000116757
-0.000680361
-0.00019748
-0.000636658
-0.000274632
-0.000575035
-0.000341841
-0.00049776
-0.000392203
-0.000409108
-0.000419258
-0.000315236
-0.00041827
-0.000223584
-0.000387618
-0.000141769
-0.000329899
-7.61942e-05
-0.000252265
-3.07669e-05
-0.000165633
-6.21074e-06
-8.28909e-05
-1.72556e-05
-1.22067e-05
6.61461e-05
-4.18783e-05
0.000168516
-8.3742e-05
0.00024437
-0.000133903
0.00029824
-0.00018958
0.000334529
-0.000248844
0.000356993
-0.000310377
0.000368523
-0.000373244
0.000371068
-0.00043671
0.000365667
-0.000500063
0.000352546
-0.000562468
0.000331275
-0.000622826
0.000300952
-0.00067966
0.00026043
-0.000731024
0.000208575
-0.000774468
0.000144583
-0.000807057
6.83434e-05
-0.000825624
-1.91297e-05
-0.000826784
-0.000115597
-0.000807648
-0.000216616
-0.000766193
-0.000316087
-0.000701923
-0.000406111
-0.000616492
-0.000477634
-0.000514175
-0.000521576
-0.000401976
-0.000530469
-0.000289128
-0.000500466
-0.000185806
-0.000433222
-0.000101191
-0.000336879
-4.14708e-05
-0.000225354
-8.58216e-06
-0.00011578
-2.58378e-05
-1.28942e-05
7.90403e-05
-4.42497e-05
0.000199871
-8.85125e-05
0.000288633
-0.000141602
0.000351329
-0.000200649
0.000393576
-0.000263735
0.000420079
-0.000329627
0.000434415
-0.000397546
0.000438987
-0.000466946
0.000435068
-0.000537323
0.000422923
-0.000608025
0.000401977
-0.000678079
0.000371007
-0.000746031
0.000328381
-0.000809809
0.000272353
-0.000866645
0.000201419
-0.000913066
0.000114765
-0.000945094
1.28977e-05
-0.000958373
-0.000102317
-0.000948765
-0.000226224
-0.000912895
-0.000351958
-0.000848919
-0.000470086
-0.000757381
-0.000569172
-0.000642013
-0.000636944
-0.000510244
-0.000662238
-0.000373023
-0.000637687
-0.000243539
-0.000562706
-0.00013472
-0.000445698
-5.61798e-05
-0.000303894
-1.1969e-05
-0.00015999
-3.78068e-05
-1.34111e-05
9.24514e-05
-4.60781e-05
0.000232538
-9.22516e-05
0.000334806
-0.000147716
0.000406793
-0.000209547
0.000455408
-0.000275855
0.000486386
-0.000345518
0.000504078
-0.000417933
0.000511401
-0.000492776
0.000509911
-0.000569782
0.00049993
-0.000648529
0.000480724
-0.00072822
0.000450698
-0.000807487
0.000407648
-0.000884206
0.000349072
-0.000955383
0.000272595
-0.00101712
0.000176503
-0.00106464
6.04125e-05
-0.00109281
-7.41424e-05
-0.00109618
-0.000222855
-0.00106989
-0.000378244
-0.00101043
-0.00052955
-0.000916642
-0.00066296
-0.000790935
-0.000762651
-0.000640338
-0.000812835
-0.000476978
-0.000801047
-0.000317188
-0.000722496
-0.000178643
-0.000584243
-7.59417e-05
-0.000406595
-1.66756e-05
-0.000219256
-5.44824e-05
-1.37412e-05
0.000106193
-4.73171e-05
0.000266114
-9.48619e-05
0.000382351
-0.000152062
0.000463993
-0.000215952
0.000519298
-0.000284676
0.000555111
-0.000357227
0.000576629
-0.00043318
0.000587355
-0.000512444
0.000589174
-0.000595007
0.000582494
-0.0006807
0.000566417
-0.000768946
0.000538944
-0.000858525
0.000497228
-0.000947367
0.000437914
-0.00103239
0.000357619
-0.00110945
0.000253559
-0.00117335
0.000124312
-0.00121816
-2.93258e-05
-0.00123749
-0.000203523
-0.00122505
-0.000390686
-0.00117544
-0.000579158
-0.00108529
-0.000753112
-0.000954719
-0.000893224
-0.000789097
-0.000978456
-0.000600532
-0.000989613
-0.000407977
-0.00091505
-0.000234578
-0.000757642
-0.000101838
-0.000539335
-2.30481e-05
-0.000298047
-7.75305e-05
-1.38771e-05
0.00012007
-4.79454e-05
0.000300182
-9.62855e-05
0.000430691
-0.0001545
0.000522208
-0.000219575
0.000584373
-0.000289677
0.000625212
-0.000363891
0.000650843
-0.000441954
0.000665418
-0.000523985
0.000671205
-0.000610217
0.000668725
-0.000700731
0.00065693
-0.000795193
0.000633407
-0.000892602
0.000594636
-0.000991055
0.000536367
-0.00108758
0.000454148
-0.00117807
0.000344046
-0.00125727
0.000203511
-0.0013189
3.2305e-05
-0.00135602
-0.000166401
-0.00136125
-0.000385459
-0.00132741
-0.000613002
-0.00124854
-0.000831982
-0.00112155
-0.00102021
-0.000948606
-0.0011514
-0.000739848
-0.00119837
-0.000515304
-0.00113959
-0.000303524
-0.000969423
-0.0001349
-0.000707959
-3.14775e-05
-0.000401469
-0.000109008
-1.38293e-05
0.000133899
-4.79947e-05
0.000334348
-9.65533e-05
0.00047925
-0.000155007
0.000580662
-0.000220265
0.000649631
-0.000290474
0.000695421
-0.000364776
0.000725145
-0.000443027
0.000743669
-0.000525511
0.000753689
-0.000612663
0.000755877
-0.000704793
0.00074906
-0.000801815
0.000730429
-0.000902996
0.000695817
-0.00100674
0.000640108
-0.00111041
0.00055782
-0.00121027
0.000443903
-0.00130143
0.000294679
-0.00137793
0.000108799
-0.00143273
-0.000111603
-0.00145811
-0.000360075
-0.0014455
-0.00062561
-0.00138641
-0.000891071
-0.00127391
-0.00113271
-0.00110538
-0.00131994
-0.000886522
-0.00141722
-0.000635678
-0.00139044
-0.000385263
-0.00121984
-0.000175925
-0.000917296
-4.23849e-05
-0.000535009
-0.000151393
-1.3638e-05
0.000147537
-4.75841e-05
0.000368294
-9.58451e-05
0.000527511
-0.000153764
0.000638581
-0.000218112
0.000713978
-0.000286966
0.000764275
-0.000359469
0.000797648
-0.000435537
0.000819738
-0.000515561
0.000833713
-0.000600117
0.000840433
-0.000689698
0.000838641
-0.000784457
0.000825188
-0.00088398
0.00079534
-0.000987093
0.000743222
-0.00109174
0.000662463
-0.00119488
0.000547049
-0.00129251
0.000392306
-0.00137958
0.000195873
-0.00144956
-4.16288e-05
-0.0014954
-0.000314235
-0.00150779
-0.000613217
-0.00147629
-0.000922576
-0.0013901
-0.0012189
-0.00124075
-0.00146929
-0.001027
-0.00163097
-0.000761692
-0.00165575
-0.000477568
-0.00150396
-0.000225185
-0.00116968
-5.61824e-05
-0.000704012
-0.000207575
-1.33865e-05
0.000160923
-4.69587e-05
0.000401866
-9.4555e-05
0.000575107
-0.000151243
0.000695269
-0.000213571
0.000776306
-0.000279484
0.000830188
-0.000348072
0.000866237
-0.000419256
0.000890921
-0.000493468
0.000907925
-0.000571367
0.000918333
-0.000653583
0.000920857
-0.000740493
0.000912098
-0.000832041
0.000886888
-0.000927596
0.000838776
-0.00102586
0.00076073
-0.00112484
0.000646022
-0.00122175
0.000489219
-0.00131299
0.000287114
-0.00139361
3.89971e-05
-0.00145739
-0.000250459
-0.0014957
-0.000574903
-0.00149714
-0.000921138
-0.0014478
-0.00126825
-0.00133321
-0.00158387
-0.00114338
-0.0018208
-0.000881598
-0.00191753
-0.000575439
-0.00181012
-0.000282043
-0.00146307
-7.32193e-05
-0.000912836
-0.000280795
-1.32186e-05
0.000174142
-4.65376e-05
0.000435185
-9.3366e-05
0.000621935
-0.000148303
0.000750206
-0.000207567
0.00083557
-0.000268919
0.00089154
-0.000331364
0.000928682
-0.000394793
0.00095435
-0.000459641
0.000972774
-0.00052661
0.000985301
-0.000596437
0.000990683
-0.000669724
0.000985386
-0.000746816
0.00096398
-0.000827716
0.000919676
-0.000912047
0.000845061
-0.000999029
0.000733004
-0.00108742
0.000577612
-0.00117534
0.000375035
-0.00126021
0.000123864
-0.00133691
-0.000173755
-0.00139873
-0.000513083
-0.00143462
-0.000885254
-0.00142902
-0.00127384
-0.00136257
-0.00165032
-0.00121611
-0.00196726
-0.0009802
-0.00215344
-0.000670778
-0.00211954
-0.000344578
-0.00178927
-9.3741e-05
-0.00116367
-0.000374536
-1.33642e-05
0.000187506
-4.69759e-05
0.000468797
-9.33342e-05
0.000668294
-0.00014628
0.000803152
-0.000201585
0.000890876
-0.000256808
0.000946763
-0.000310887
0.00098276
-0.0003637
0.00100716
-0.000415694
0.00102477
-0.000467613
0.00103722
-0.00052031
0.00104338
-0.000574637
0.00103971
-0.000631385
0.00102073
-0.000691267
0.000979558
-0.000754916
0.00090871
-0.000822875
0.000800963
-0.00089553
0.000650267
-0.000972924
0.000452429
-0.00105447
0.00020541
-0.00113755
-9.06797e-05
-0.00121747
-0.000433163
-0.00128494
-0.000817784
-0.00132471
-0.00123407
-0.00131469
-0.00166034
-0.00122797
-0.00205398
-0.00104122
-0.00234019
-0.000752859
-0.00240791
-0.000409348
-0.00213279
-0.000117901
-0.00145512
-0.000492436
-1.41839e-05
0.00020169
-4.92567e-05
0.00050387
-9.59953e-05
0.000715032
-0.000147072
0.000854228
-0.000197716
0.00094152
-0.000245341
0.000994387
-0.000288917
0.00102634
-0.000328406
0.00104665
-0.000364341
0.0010607
-0.000397561
0.00107044
-0.000429087
0.00107491
-0.000460067
0.00107069
-0.000491793
0.00105245
-0.00052573
0.00101349
-0.000563542
0.000946522
-0.00060708
0.000844502
-0.000658292
0.000701479
-0.000719002
0.000513139
-0.000790563
0.000276972
-0.000872742
-8.50125e-06
-0.000963373
-0.000342532
-0.00105576
-0.000725392
-0.00113689
-0.00115294
-0.00118479
-0.00161245
-0.00116793
-0.00207083
-0.0010505
-0.00245762
-0.000809882
-0.00264853
-0.00047147
-0.0024712
-0.00014584
-0.00178075
-0.000638276
-1.62525e-05
0.000217943
-5.48414e-05
0.000542459
-0.000103506
0.000763697
-0.00015322
0.000903942
-0.000198654
0.000986954
-0.000237264
0.001033
-0.000268283
0.00105736
-0.000291948
0.00107032
-0.000309021
0.00107778
-0.000320553
0.00108197
-0.00032781
0.00108216
-0.000332303
0.00107519
-0.000335858
0.00105601
-0.000340696
0.00101833
-0.000349462
0.000955287
-0.000365197
0.000860236
-0.00039121
0.000727492
-0.00043083
0.000552759
-0.000486959
0.000333101
-0.000561841
6.63805e-05
-0.000654974
-0.000249398
-0.000763198
-0.000617168
-0.000877036
-0.0010391
-0.000977524
-0.00151196
-0.00103276
-0.0020156
-0.000998384
-0.00249199
-0.000830749
-0.00281616
-0.000524962
-0.00277698
-0.000177757
-0.00212796
-0.000816034
-2.05263e-05
0.000238469
-6.59207e-05
0.000587853
-0.000118832
0.000816608
-0.000167948
0.000953058
-0.000207563
0.00102657
-0.000235593
0.00106103
-0.000251927
0.00107369
-0.00025738
0.00107577
-0.000253157
0.00107355
-0.000240666
0.00106948
-0.00022152
0.00106302
-0.000197636
0.0010513
-0.000171374
0.00102975
-0.000145673
0.000992632
-0.000124028
0.000933643
-0.00011047
0.000846678
-0.000109376
0.000726398
-0.000125197
0.00056858
-0.000162116
0.00037002
-0.000223642
0.000127906
-0.000311686
-0.000161354
-0.000425831
-0.000503023
-0.000560955
-0.000903979
-0.000703417
-0.0013695
-0.000825397
-0.00189362
-0.000879911
-0.00243748
-0.000805991
-0.00289008
-0.000562976
-0.00302
-0.000213751
-0.00247718
-0.00102978
-2.86731e-05
0.000267142
-8.5821e-05
0.000645001
-0.000145952
0.000876739
-0.000195044
0.00100215
-0.000227638
0.00105916
-0.000242881
0.00107627
-0.000241919
0.00107273
-0.000226553
0.0010604
-0.000198691
0.00104569
-0.00016025
0.00103104
-0.00011327
0.00101604
-6.00852e-05
0.000998118
-3.56491e-06
0.000973226
5.28814e-05
0.000936185
0.000105081
0.000881443
0.000148281
0.000803478
0.00017733
0.000697349
0.000186971
0.000558939
0.000172182
0.000384809
0.000128506
0.000171583
5.23317e-05
-8.51802e-05
-5.80648e-05
-0.000392627
-0.000202116
-0.000759928
-0.000373002
-0.00119862
-0.000550682
-0.00171594
-0.000692393
-0.00229577
-0.000726869
-0.00285561
-0.000577228
-0.00316964
-0.00025305
-0.00280136
-0.00128283
-4.37054e-05
0.000310848
-0.000119574
0.000720869
-0.000189841
0.000947007
-0.000238136
0.00105044
-0.000260729
0.00108176
-0.000259277
0.00107482
-0.000237027
0.00105048
-0.000197254
0.00102063
-0.000142834
0.000991272
-7.63183e-05
0.000964525
-1.76178e-07
0.000939894
8.28625e-05
0.000915079
0.000169674
0.000886414
0.00025643
0.000849429
0.000338642
0.000799231
0.000411189
0.000730932
0.000468523
0.000640015
0.000504958
0.000522504
0.000514963
0.000374804
0.000493394
0.000193152
0.000435368
-2.71542e-05
0.000336984
-0.000294244
0.000195073
-0.000618017
9.8467e-06
-0.00101339
-0.000209543
-0.00149655
-0.000431145
-0.00207416
-0.000582751
-0.002704
-0.000556036
-0.00319635
-0.00029213
-0.00306526
-0.00157497
-7.11077e-05
0.000381955
-0.000174365
0.000824127
-0.00025533
0.00102797
-0.000297925
0.00109304
-0.000303172
0.001087
-0.000277211
0.00104886
-0.00022646
0.000999726
-0.000156192
0.000950362
-7.0467e-05
0.000905547
2.74917e-05
0.000866567
0.000134828
0.000832558
0.000248692
0.000801215
0.000365835
0.000769272
0.000482442
0.000732822
0.000594039
0.000687634
0.000695521
0.00062945
0.000781314
0.000554222
0.000845603
0.000458214
0.000882551
0.000337856
0.000886411
0.000189293
0.000851292
7.96455e-06
0.000771427
-0.000214379
0.000640373
-0.000486963
0.000452144
-0.00082516
0.000205546
-0.00124995
-8.32862e-05
-0.00178533
-0.000356742
-0.00243055
-0.000480754
-0.00307234
-0.000321728
-0.00322429
-0.00189669
-0.000120592
0.000502547
-0.000258369
0.000961903
-0.000341478
0.00111108
-0.000362764
0.00111432
-0.0003335
0.00105774
-0.000267072
0.000982429
-0.000174234
0.000906888
-6.26295e-05
0.000838758
6.25197e-05
0.000780398
0.000197529
0.000731557
0.000339514
0.000690573
0.000485794
0.000654936
0.000633482
0.000621584
0.000779201
0.000587103
0.00091894
0.000547895
0.00104803
0.000500356
0.00116125
0.000441004
0.00125294
0.00036653
0.00131711
0.00027368
0.00134744
0.000158962
0.00133711
1.82928e-05
0.0012785
-0.000155768
0.00116254
-0.000371
0.00097841
-0.000641029
0.00071526
-0.000986802
0.000372269
-0.00144234
-1.01754e-05
-0.0020481
-0.000320437
-0.00276208
-0.000328238
-0.00321649
-0.00222493
-0.00020808
0.000710628
-0.000370396
0.00112422
-0.000419179
0.00115986
-0.00037846
0.00107361
-0.00027831
0.000957589
-0.000142033
0.000846152
1.51577e-05
0.000749697
0.00018402
0.000669896
0.000359145
0.000605272
0.000537366
0.000553336
0.000716617
0.000511323
0.000895179
0.000476373
0.00107118
0.000445585
0.00124225
0.000416029
0.00140536
0.000384785
0.00155672
0.000349
0.00169179
0.000305933
0.00180537
0.000252946
0.00189163
0.000187424
0.00194393
0.000106661
0.00195392
8.29857e-06
0.00191347
-0.000115316
0.0018107
-0.000268231
0.00163137
-0.000461695
0.00135774
-0.000713168
0.000972058
-0.00105666
0.000477509
-0.00155355
-2.01092e-05
-0.00226446
-0.000269464
-0.00296714
-0.00249439
-0.000344609
0.00105524
-0.000437621
0.00121723
-0.000347878
0.00107012
-0.00016085
0.000886579
6.84236e-05
0.000728315
0.000311466
0.000603111
0.000554072
0.000507091
0.000789923
0.000434045
0.0010168
0.000378393
0.00123442
0.000335718
0.00144319
0.000302556
0.0016435
0.00027606
0.00183532
0.000253765
0.00201789
0.000233457
0.00218959
0.000213086
0.00234784
0.000190746
0.00248912
0.000164661
0.00260891
0.000133156
0.00270178
9.45465e-05
0.0027613
4.71436e-05
0.00277966
-1.00593e-05
0.00274653
-8.21835e-05
0.00264942
-0.00017112
0.00247201
-0.000284289
0.00219237
-0.000433525
0.00178154
-0.000645833
0.00120879
-0.000980806
0.000517805
-0.00157348
-2.25343e-05
-0.0024268
-0.00251693
-0.000304757
0.00135999
-5.45456e-05
0.000967019
0.000372077
0.000643498
0.000791882
0.000466774
0.00117438
0.000345818
0.00151559
0.000261904
0.00181809
0.000204582
0.00208706
0.000165083
0.00232819
0.000137259
0.00254668
0.000117231
0.00274675
0.000102484
0.00293157
9.12445e-05
0.00310317
8.21665e-05
0.00326246
7.41657e-05
0.00340922
6.63268e-05
0.00354211
5.7853e-05
0.00365873
4.8044e-05
0.0037556
3.62777e-05
0.00382809
2.206e-05
0.00387014
5.09653e-06
0.00387703
-1.69548e-05
0.00383761
-4.2763e-05
0.00374082
-7.43269e-05
0.00357123
-0.000114697
0.00330597
-0.000168267
0.00290933
-0.000249192
0.00232197
-0.000393452
0.00148741
-0.00073891
0.000505458
-0.00144485
-0.00201147
0.00135999
0.00232701
0.00297051
0.00343729
0.0037831
0.00404501
0.00424959
0.00441467
0.00455193
0.00466916
0.00477165
0.00486289
0.00494506
0.00501922
0.00508555
0.0051434
0.00519145
0.00522772
0.00524978
0.00525488
0.00523792
0.00519516
0.00512084
0.00500614
0.00483787
0.00458868
0.00419523
0.00345632
0.00201147
)
;

boundaryField
{
    movingWall
    {
        type            calculated;
        value           uniform 0;
    }
    fixedWalls
    {
        type            calculated;
        value           uniform 0;
    }
    frontAndBack
    {
        type            empty;
        value           nonuniform 0();
    }
}


// ************************************************************************* //
