/*--------------------------------*- C++ -*----------------------------------*\
  =========                 |
  \\      /  F ield         | OpenFOAM: The Open Source CFD Toolbox
   \\    /   O peration     | Website:  https://openfoam.org
    \\  /    A nd           | Version:  7
     \\/     M anipulation  |
\*---------------------------------------------------------------------------*/
FoamFile
{
    version     2.0;
    format      ascii;
    class       volVectorField;
    location    "7.9";
    object      U;
}
// * * * * * * * * * * * * * * * * * * * * * * * * * * * * * * * * * * * * * //

dimensions      [0 1 -1 0 0 0 0];

internalField   nonuniform List<vector> 
900
(
(8.60664e-05 -8.49333e-05 0)
(7.90763e-05 -1.32205e-06 0)
(-0.000258854 0.00010296 0)
(-0.000861888 0.000182248 0)
(-0.00165569 0.000232238 0)
(-0.00257226 0.000259203 0)
(-0.00355496 0.000270763 0)
(-0.00456137 0.000272463 0)
(-0.0055592 0.000267214 0)
(-0.00652084 0.000255806 0)
(-0.00741907 0.000237567 0)
(-0.00822423 0.000210993 0)
(-0.00890303 0.00017434 0)
(-0.00941899 0.000126211 0)
(-0.00973451 6.61466e-05 0)
(-0.00981463 -4.8676e-06 0)
(-0.00963147 -8.44667e-05 0)
(-0.00917004 -0.000167643 0)
(-0.00843398 -0.000247725 0)
(-0.00744954 -0.000316771 0)
(-0.00626755 -0.000366512 0)
(-0.00496204 -0.000389669 0)
(-0.00362484 -0.000381319 0)
(-0.00235669 -0.000340016 0)
(-0.00125554 -0.000268329 0)
(-0.000402456 -0.000173253 0)
(0.000142536 -6.77168e-05 0)
(0.000360459 3.60437e-05 0)
(0.000294183 0.000109725 0)
(9.95303e-05 9.96691e-05 0)
(4.11838e-06 -8.20951e-05 0)
(-0.00039829 0.000393207 0)
(-0.00151611 0.000913412 0)
(-0.00318002 0.0013293 0)
(-0.00526056 0.00161706 0)
(-0.00762576 0.00179093 0)
(-0.0101533 0.00187489 0)
(-0.012741 0.00188935 0)
(-0.0153028 0.00184663 0)
(-0.017761 0.0017511 0)
(-0.0200396 0.00160113 0)
(-0.0220598 0.00139165 0)
(-0.0237375 0.00111704 0)
(-0.0249859 0.000774092 0)
(-0.0257196 0.000364778 0)
(-0.025864 -0.000101454 0)
(-0.0253631 -0.000605582 0)
(-0.0241921 -0.00111851 0)
(-0.0223689 -0.00160271 0)
(-0.0199609 -0.00201522 0)
(-0.0170879 -0.00231271 0)
(-0.0139185 -0.00245803 0)
(-0.0106584 -0.00242693 0)
(-0.00753147 -0.00221375 0)
(-0.00475509 -0.00183464 0)
(-0.00251246 -0.00132882 0)
(-0.000927613 -0.000760067 0)
(-3.85644e-05 -0.000208994 0)
(0.000229812 0.000203674 0)
(0.00011299 0.000290423 0)
(-0.000110208 0.000263281 0)
(-0.000982456 0.00152682 0)
(-0.00291853 0.00277844 0)
(-0.00558378 0.00378655 0)
(-0.0088001 0.00450478 0)
(-0.0123979 0.00495346 0)
(-0.0162139 0.00517476 0)
(-0.0201052 0.00520782 0)
(-0.0239466 0.00507801 0)
(-0.0276217 0.00479539 0)
(-0.0310162 0.00435777 0)
(-0.0340124 0.00375617 0)
(-0.0364881 0.00298132 0)
(-0.0383195 0.00203059 0)
(-0.0393881 0.000914473 0)
(-0.0395913 -0.00033801 0)
(-0.0388545 -0.00167515 0)
(-0.0371474 -0.00302259 0)
(-0.0344974 -0.00428652 0)
(-0.0309991 -0.00536136 0)
(-0.0268185 -0.00614188 0)
(-0.0221883 -0.00653843 0)
(-0.017393 -0.00649285 0)
(-0.0127438 -0.0059922 0)
(-0.00854508 -0.00507733 0)
(-0.00505726 -0.00384542 0)
(-0.00245924 -0.00244842 0)
(-0.000813725 -0.00108905 0)
(-4.3242e-05 -2.65496e-05 0)
(7.10352e-05 0.000392261 0)
(-0.000215009 0.000931611 0)
(-0.00154135 0.00332903 0)
(-0.00427157 0.00551638 0)
(-0.00788061 0.00724998 0)
(-0.0121312 0.00848629 0)
(-0.0168209 0.00926204 0)
(-0.0217566 0.0096409 0)
(-0.0267682 0.00968137 0)
(-0.0317037 0.00942165 0)
(-0.0364197 0.00887708 0)
(-0.0407737 0.00804456 0)
(-0.0446193 0.00691117 0)
(-0.0478052 0.00546479 0)
(-0.0501787 0.00370538 0)
(-0.0515936 0.00165582 0)
(-0.0519224 -0.000629123 0)
(-0.0510708 -0.00305802 0)
(-0.0489958 -0.00549986 0)
(-0.0457228 -0.00779126 0)
(-0.0413577 -0.00974891 0)
(-0.0360941 -0.0111897 0)
(-0.0302101 -0.0119562 0)
(-0.0240527 -0.0119444 0)
(-0.0180088 -0.0111281 0)
(-0.0124642 -0.0095752 0)
(-0.00775662 -0.0074525 0)
(-0.00412758 -0.00502048 0)
(-0.00167788 -0.00262195 0)
(-0.000348097 -0.000671104 0)
(2.70421e-05 0.000328747 0)
(-0.00030361 0.00189053 0)
(-0.00204429 0.00576354 0)
(-0.00551619 0.00907969 0)
(-0.010003 0.0116476 0)
(-0.0152039 0.0134622 0)
(-0.0208838 0.0145945 0)
(-0.0268252 0.0151372 0)
(-0.0328396 0.0151704 0)
(-0.038758 0.0147452 0)
(-0.0444202 0.0138813 0)
(-0.0496652 0.0125735 0)
(-0.0543263 0.0108039 0)
(-0.0582297 0.00855643 0)
(-0.0611974 0.00583332 0)
(-0.0630561 0.00267013 0)
(-0.0636499 -0.000851407 0)
(-0.0628553 -0.0045964 0)
(-0.0606018 -0.00837067 0)
(-0.0568954 -0.0119314 0)
(-0.0518339 -0.0150038 0)
(-0.0456203 -0.0173094 0)
(-0.0385648 -0.0186039 0)
(-0.0310709 -0.0187194 0)
(-0.0236047 -0.0176033 0)
(-0.0166461 -0.0153462 0)
(-0.0106292 -0.0121915 0)
(-0.00587985 -0.00852436 0)
(-0.00255674 -0.00484771 0)
(-0.000633298 -0.00174877 0)
(-3.69723e-06 0.000107214 0)
(-0.000378052 0.00310733 0)
(-0.00248908 0.00877971 0)
(-0.00663919 0.0134144 0)
(-0.0119342 0.0169209 0)
(-0.0180111 0.0193676 0)
(-0.0246031 0.0208806 0)
(-0.0314728 0.021593 0)
(-0.0384195 0.0216112 0)
(-0.0452661 0.0210005 0)
(-0.0518443 0.019784 0)
(-0.0579834 0.0179525 0)
(-0.0635038 0.0154799 0)
(-0.068214 0.0123429 0)
(-0.0719124 0.00854157 0)
(-0.0743949 0.00411961 0)
(-0.075469 -0.000817746 0)
(-0.0749664 -0.0060923 0)
(-0.0727691 -0.0114457 0)
(-0.0688399 -0.0165475 0)
(-0.0632437 -0.0210162 0)
(-0.0561714 -0.0244556 0)
(-0.0479512 -0.0265065 0)
(-0.0390414 -0.0269078 0)
(-0.0299994 -0.0255561 0)
(-0.0214253 -0.0225518 0)
(-0.0138849 -0.0182171 0)
(-0.00782545 -0.013081 0)
(-0.003493 -0.00783568 0)
(-0.000908541 -0.00327402 0)
(-2.1571e-05 -0.000251238 0)
(-0.000441773 0.00455028 0)
(-0.002882 0.0123194 0)
(-0.0076453 0.018453 0)
(-0.0136792 0.0229998 0)
(-0.020564 0.0261327 0)
(-0.0280047 0.0280545 0)
(-0.0357484 0.0289513 0)
(-0.043589 0.0289628 0)
(-0.0513488 0.0281707 0)
(-0.0588602 0.026601 0)
(-0.065951 0.0242378 0)
(-0.0724358 0.0210419 0)
(-0.0781098 0.0169757 0)
(-0.0827481 0.0120282 0)
(-0.0861107 0.00624108 0)
(-0.0879557 -0.000266864 0)
(-0.0880533 -0.00727809 0)
(-0.0862131 -0.0144768 0)
(-0.0823239 -0.0214388 0)
(-0.0763867 -0.0276589 0)
(-0.0685514 -0.0325946 0)
(-0.0591445 -0.0357328 0)
(-0.0486741 -0.0366743 0)
(-0.0378036 -0.035224 0)
(-0.0272877 -0.0314644 0)
(-0.0178743 -0.0257927 0)
(-0.0101869 -0.018904 0)
(-0.00460356 -0.0117234 0)
(-0.00121559 -0.00530244 0)
(-3.28082e-05 -0.000742921 0)
(-0.000497181 0.00619235 0)
(-0.00322908 0.0163275 0)
(-0.00854221 0.0241291 0)
(-0.0152469 0.0298166 0)
(-0.0228749 0.0336945 0)
(-0.0311082 0.0360629 0)
(-0.0396845 0.0371748 0)
(-0.0483986 0.0372109 0)
(-0.0570804 0.0362727 0)
(-0.0655713 0.0343893 0)
(-0.0737067 0.0315337 0)
(-0.0813023 0.0276475 0)
(-0.0881451 0.0226679 0)
(-0.0939879 0.0165597 0)
(-0.0985499 0.00934685 0)
(-0.101524 0.00114489 0)
(-0.102603 -0.00780862 0)
(-0.1015 -0.0171451 0)
(-0.0979899 -0.0263453 0)
(-0.0919725 -0.0347646 0)
(-0.0835197 -0.0416806 0)
(-0.0729251 -0.046375 0)
(-0.0607309 -0.0482472 0)
(-0.0477146 -0.0469454 0)
(-0.0348222 -0.0424853 0)
(-0.0230471 -0.0353213 0)
(-0.0132651 -0.0263381 0)
(-0.00605361 -0.0167545 0)
(-0.00161566 -0.00796141 0)
(-4.70576e-05 -0.0013944 0)
(-0.000545293 0.00800968 0)
(-0.00353314 0.0207519 0)
(-0.00933353 0.0303783 0)
(-0.0166407 0.0373057 0)
(-0.0249467 0.0419941 0)
(-0.0339172 0.0448601 0)
(-0.0432866 0.0462373 0)
(-0.0528581 0.0463563 0)
(-0.062477 0.0453428 0)
(-0.0720028 0.0432289 0)
(-0.0812871 0.0399731 0)
(-0.0901553 0.0354881 0)
(-0.098392 0.0296734 0)
(-0.10573 0.0224506 0)
(-0.111844 0.0138038 0)
(-0.116357 0.00382107 0)
(-0.118862 -0.00726664 0)
(-0.118946 -0.0190513 0)
(-0.11624 -0.0309243 0)
(-0.110499 -0.0420898 0)
(-0.101669 -0.0516098 0)
(-0.089964 -0.0584994 0)
(-0.0759268 -0.0618737 0)
(-0.0604388 -0.0611299 0)
(-0.0446655 -0.0561341 0)
(-0.0299147 -0.0473542 0)
(-0.0174143 -0.035881 0)
(-0.00804081 -0.0233042 0)
(-0.00218069 -0.0114689 0)
(-7.4536e-05 -0.00226731 0)
(-0.000586046 0.00997918 0)
(-0.00379353 0.0255408 0)
(-0.0100168 0.0371352 0)
(-0.0178545 0.0453993 0)
(-0.0267681 0.0509697 0)
(-0.0364133 0.0543971 0)
(-0.0465278 0.0561094 0)
(-0.0569299 0.0563967 0)
(-0.0674881 0.0554145 0)
(-0.0780887 0.0531982 0)
(-0.0886089 0.0496876 0)
(-0.0988926 0.044757 0)
(-0.108729 0.0382514 0)
(-0.117837 0.0300272 0)
(-0.125848 0.02 0)
(-0.13231 0.00819775 0)
(-0.136706 -0.00518307 0)
(-0.138477 -0.0197214 0)
(-0.137079 -0.0347379 0)
(-0.132081 -0.0492809 0)
(-0.123249 -0.062166 0)
(-0.110657 -0.0720782 0)
(-0.0947865 -0.0777481 0)
(-0.0765813 -0.0781959 0)
(-0.0574267 -0.0730089 0)
(-0.0390069 -0.062578 0)
(-0.0230213 -0.0481908 0)
(-0.0107866 -0.0318962 0)
(-0.00299068 -0.0161472 0)
(-0.000125788 -0.00346348 0)
(-0.000618656 0.0120765 0)
(-0.00400688 0.0306396 0)
(-0.010584 0.0443301 0)
(-0.0188733 0.0540232 0)
(-0.0283136 0.0605501 0)
(-0.0385562 0.0646121 0)
(-0.0493474 0.0667452 0)
(-0.0605264 0.0673092 0)
(-0.0719917 0.0664953 0)
(-0.0836641 0.0643442 0)
(-0.0954546 0.0607728 0)
(-0.107235 0.0556069 0)
(-0.118809 0.0486195 0)
(-0.129888 0.0395769 0)
(-0.140069 0.0282945 0)
(-0.148828 0.014703 0)
(-0.155536 -0.00107408 0)
(-0.159483 -0.0186349 0)
(-0.15994 -0.0372606 0)
(-0.156254 -0.0558542 0)
(-0.147959 -0.0729695 0)
(-0.134916 -0.0869077 0)
(-0.117453 -0.0959119 0)
(-0.0964909 -0.0984706 0)
(-0.0735824 -0.0937062 0)
(-0.0508146 -0.0817686 0)
(-0.0304822 -0.0640744 0)
(-0.0145307 -0.0432093 0)
(-0.00413378 -0.0224336 0)
(-0.000212143 -0.00512847 0)
(-0.000641976 0.0142746 0)
(-0.00416834 0.0359893 0)
(-0.0110238 0.0518861 0)
(-0.0196759 0.0630921 0)
(-0.0295468 0.0706482 0)
(-0.040287 0.075421 0)
(-0.0516549 0.0780682 0)
(-0.0635144 0.0790303 0)
(-0.075798 0.0785412 0)
(-0.0884666 0.0766495 0)
(-0.101472 0.0732463 0)
(-0.114721 0.0680993 0)
(-0.128042 0.0608926 0)
(-0.14115 0.051278 0)
(-0.153621 0.0389391 0)
(-0.164877 0.0236731 0)
(-0.174186 0.00548876 0)
(-0.18071 -0.0152856 0)
(-0.183541 -0.0379184 0)
(-0.181794 -0.0612007 0)
(-0.174736 -0.0834382 0)
(-0.161938 -0.102524 0)
(-0.143463 -0.116129 0)
(-0.120062 -0.122046 0)
(-0.0933277 -0.118688 0)
(-0.0657025 -0.105698 0)
(-0.040168 -0.0844439 0)
(-0.0195253 -0.0580726 0)
(-0.00570824 -0.0308881 0)
(-0.000346827 -0.00745607 0)
(-0.000654884 0.0165436 0)
(-0.0042734 0.0415249 0)
(-0.0113256 0.0597174 0)
(-0.0202406 0.0725069 0)
(-0.0304279 0.0811553 0)
(-0.0415379 0.0867082 0)
(-0.0533416 0.0899582 0)
(-0.0657277 0.0914375 0)
(-0.0786642 0.091431 0)
(-0.0921535 0.0899985 0)
(-0.106191 0.087004 0)
(-0.120726 0.0821495 0)
(-0.135617 0.0750164 0)
(-0.150598 0.0651208 0)
(-0.165244 0.0519874 0)
(-0.178949 0.0352476 0)
(-0.190927 0.0147561 0)
(-0.200237 -0.00928013 0)
(-0.205831 -0.0361637 0)
(-0.206627 -0.0646281 0)
(-0.201617 -0.0927825 0)
(-0.190025 -0.118138 0)
(-0.171524 -0.137759 0)
(-0.146505 -0.1486 0)
(-0.116383 -0.14809 0)
(-0.0837807 -0.134978 0)
(-0.0523657 -0.110227 0)
(-0.026022 -0.0774375 0)
(-0.00782463 -0.0421968 0)
(-0.000546707 -0.0106946 0)
(-0.000656772 0.0188514 0)
(-0.00432015 0.0471774 0)
(-0.011484 0.0677302 0)
(-0.0205533 0.0821537 0)
(-0.0309246 0.0919383 0)
(-0.0422457 0.0983208 0)
(-0.0542969 0.102241 0)
(-0.0669892 0.104334 0)
(-0.0803223 0.104945 0)
(-0.0943374 0.104149 0)
(-0.109073 0.101783 0)
(-0.124519 0.0974796 0)
(-0.140575 0.0907089 0)
(-0.157008 0.0808378 0)
(-0.173416 0.0672147 0)
(-0.189206 0.0492818 0)
(-0.20359 0.0267121 0)
(-0.215596 -0.000439555 0)
(-0.224104 -0.0315783 0)
(-0.227902 -0.0654467 0)
(-0.225752 -0.100055 0)
(-0.216515 -0.132625 0)
(-0.199372 -0.159665 0)
(-0.174149 -0.177226 0)
(-0.141771 -0.181492 0)
(-0.104724 -0.16983 0)
(-0.0671785 -0.14221 0)
(-0.0342427 -0.102314 0)
(-0.0106055 -0.0571664 0)
(-0.000834351 -0.0151549 0)
(-0.000648108 0.0211657 0)
(-0.00431222 0.0528774 0)
(-0.0115059 0.0758268 0)
(-0.0206173 0.0919065 0)
(-0.0310257 0.10284 0)
(-0.0423698 0.110066 0)
(-0.0544333 0.114683 0)
(-0.0671418 0.117442 0)
(-0.08052 0.118753 0)
(-0.0946403 0.118714 0)
(-0.109578 0.117139 0)
(-0.125362 0.113591 0)
(-0.141938 0.107426 0)
(-0.159118 0.0978624 0)
(-0.176553 0.084068 0)
(-0.193712 0.0652913 0)
(-0.209869 0.0410128 0)
(-0.224107 0.0111097 0)
(-0.235332 -0.0239786 0)
(-0.242311 -0.0630884 0)
(-0.243671 -0.104264 0)
(-0.237958 -0.144605 0)
(-0.223821 -0.180219 0)
(-0.200348 -0.206321 0)
(-0.167637 -0.217691 0)
(-0.127564 -0.209805 0)
(-0.0843769 -0.180797 0)
(-0.0443199 -0.133646 0)
(-0.0141785 -0.076698 0)
(-0.00123986 -0.0212168 0)
(-0.000631112 0.0234581 0)
(-0.00426215 0.0585633 0)
(-0.0114179 0.0839134 0)
(-0.0204658 0.101634 0)
(-0.0307578 0.113684 0)
(-0.0419142 0.121713 0)
(-0.0537128 0.126994 0)
(-0.0660853 0.130399 0)
(-0.0790706 0.132415 0)
(-0.0927625 0.133168 0)
(-0.107263 0.132452 0)
(-0.122637 0.129769 0)
(-0.138874 0.12437 0)
(-0.155849 0.115333 0)
(-0.173294 0.101664 0)
(-0.190783 0.0824315 0)
(-0.207726 0.0569351 0)
(-0.223354 0.0248716 0)
(-0.236703 -0.0135086 0)
(-0.24665 -0.0572519 0)
(-0.251832 -0.104557 0)
(-0.250593 -0.152627 0)
(-0.241111 -0.197443 0)
(-0.221658 -0.233622 0)
(-0.191222 -0.254577 0)
(-0.15053 -0.253503 0)
(-0.10322 -0.225699 0)
(-0.0562039 -0.172112 0)
(-0.0186602 -0.101726 0)
(-0.00180265 -0.0293329 0)
(-0.000610576 0.0257099 0)
(-0.00419548 0.0641923 0)
(-0.0112751 0.0919126 0)
(-0.0201745 0.111209 0)
(-0.0302024 0.124283 0)
(-0.0409486 0.133007 0)
(-0.0521761 0.138837 0)
(-0.0638136 0.142779 0)
(-0.0759042 0.145403 0)
(-0.0885521 0.14687 0)
(-0.101877 0.146962 0)
(-0.115973 0.145131 0)
(-0.130877 0.140542 0)
(-0.146536 0.13216 0)
(-0.162791 0.118856 0)
(-0.179362 0.0995569 0)
(-0.195849 0.0734122 0)
(-0.211714 0.039958 0)
(-0.226248 -0.000753399 0)
(-0.238541 -0.0480614 0)
(-0.247375 -0.100446 0)
(-0.2511 -0.155463 0)
(-0.247579 -0.209323 0)
(-0.234345 -0.256454 0)
(-0.209137 -0.289219 0)
(-0.171068 -0.298421 0)
(-0.122322 -0.275601 0)
(-0.0695456 -0.217834 0)
(-0.0241316 -0.133108 0)
(-0.00257398 -0.0400218 0)
(-0.000594998 0.0279206 0)
(-0.0041559 0.0697571 0)
(-0.0111715 0.0997805 0)
(-0.019876 0.120528 0)
(-0.0295122 0.134454 0)
(-0.0396281 0.143675 0)
(-0.0499653 0.149844 0)
(-0.0604444 0.154111 0)
(-0.071107 0.157133 0)
(-0.0820605 0.159112 0)
(-0.0934356 0.159832 0)
(-0.105353 0.158709 0)
(-0.117899 0.154851 0)
(-0.131106 0.147144 0)
(-0.144941 0.134371 0)
(-0.159302 0.115362 0)
(-0.174016 0.0891644 0)
(-0.188826 0.0551837 0)
(-0.203365 0.0132897 0)
(-0.217021 -0.0361269 0)
(-0.228851 -0.0919943 0)
(-0.237416 -0.152427 0)
(-0.24051 -0.214238 0)
(-0.235159 -0.272202 0)
(-0.217953 -0.318229 0)
(-0.186142 -0.341068 0)
(-0.139664 -0.327954 0)
(-0.0835999 -0.27004 0)
(-0.0306139 -0.17145 0)
(-0.00362242 -0.0538535 0)
(-0.00059849 0.0301202 0)
(-0.00421254 0.075307 0)
(-0.0112528 0.107528 0)
(-0.019775 0.129523 0)
(-0.0289269 0.144034 0)
(-0.0382071 0.153451 0)
(-0.0473379 0.159642 0)
(-0.056235 0.163911 0)
(-0.0649405 0.167009 0)
(-0.0735656 0.169183 0)
(-0.0822523 0.17023 0)
(-0.0911499 0.169556 0)
(-0.1004 0.16624 0)
(-0.110128 0.159134 0)
(-0.120445 0.146981 0)
(-0.131442 0.128573 0)
(-0.143191 0.102902 0)
(-0.155733 0.0692899 0)
(-0.169035 0.0274584 0)
(-0.182858 -0.0224449 0)
(-0.196653 -0.0798577 0)
(-0.209316 -0.14359 0)
(-0.218854 -0.211368 0)
(-0.222143 -0.278881 0)
(-0.214965 -0.33839 0)
(-0.192801 -0.377418 0)
(-0.152839 -0.379043 0)
(-0.0972027 -0.326782 0)
(-0.0380498 -0.216887 0)
(-0.00504592 -0.0714307 0)
(-0.000644571 0.0323858 0)
(-0.00447198 0.0809773 0)
(-0.0117341 0.115245 0)
(-0.0201647 0.138182 0)
(-0.0287839 0.152889 0)
(-0.0370446 0.162079 0)
(-0.0446649 0.167866 0)
(-0.0515735 0.171712 0)
(-0.057827 0.174465 0)
(-0.0635507 0.176424 0)
(-0.0689065 0.177412 0)
(-0.0740796 0.176843 0)
(-0.0792755 0.173806 0)
(-0.084723 0.167161 0)
(-0.0906792 0.155664 0)
(-0.0974317 0.138117 0)
(-0.105292 0.113508 0)
(-0.114581 0.0811214 0)
(-0.125575 0.0405729 0)
(-0.1384 -0.00822533 0)
(-0.152921 -0.0651741 0)
(-0.168463 -0.129796 0)
(-0.183474 -0.200916 0)
(-0.195089 -0.275598 0)
(-0.198809 -0.347325 0)
(-0.188802 -0.403618 0)
(-0.159466 -0.42441 0)
(-0.108859 -0.384838 0)
(-0.0462987 -0.268828 0)
(-0.00699364 -0.0933764 0)
(-0.000774288 0.0348697 0)
(-0.00509975 0.0870267 0)
(-0.0129263 0.123126 0)
(-0.0214469 0.146557 0)
(-0.0295253 0.160917 0)
(-0.0365946 0.169324 0)
(-0.0424077 0.174168 0)
(-0.0469421 0.177079 0)
(-0.0502972 0.178999 0)
(-0.0526334 0.180278 0)
(-0.0541482 0.180773 0)
(-0.0550748 0.179933 0)
(-0.0556911 0.176885 0)
(-0.0563319 0.170539 0)
(-0.0573984 0.159706 0)
(-0.0593602 0.143239 0)
(-0.0627444 0.120161 0)
(-0.0681076 0.0897496 0)
(-0.0759891 0.0515424 0)
(-0.0868398 0.00525906 0)
(-0.10086 -0.049349 0)
(-0.117813 -0.112477 0)
(-0.136745 -0.184045 0)
(-0.155397 -0.262729 0)
(-0.169605 -0.343969 0)
(-0.172974 -0.416698 0)
(-0.157592 -0.459521 0)
(-0.116917 -0.439908 0)
(-0.05512 -0.325724 0)
(-0.00969126 -0.120339 0)
(-0.00106402 0.037846 0)
(-0.00636053 0.0938885 0)
(-0.0152771 0.131495 0)
(-0.024153 0.154764 0)
(-0.0316907 0.168035 0)
(-0.0373722 0.17495 0)
(-0.0410574 0.17821 0)
(-0.0428316 0.179613 0)
(-0.0428797 0.180179 0)
(-0.0414265 0.180304 0)
(-0.038725 0.179881 0)
(-0.0350686 0.178408 0)
(-0.0308112 0.175078 0)
(-0.0263897 0.168885 0)
(-0.0223351 0.158724 0)
(-0.0192709 0.14353 0)
(-0.0179002 0.122379 0)
(-0.018969 0.0945587 0)
(-0.0232127 0.0595505 0)
(-0.0312946 0.0169306 0)
(-0.0436948 -0.03379 0)
(-0.0605903 -0.0933498 0)
(-0.0816161 -0.162589 0)
(-0.105348 -0.241757 0)
(-0.128523 -0.328676 0)
(-0.145106 -0.41501 0)
(-0.145826 -0.480417 0)
(-0.119707 -0.487042 0)
(-0.0641 -0.384921 0)
(-0.0134445 -0.153006 0)
(-0.0016639 0.0417982 0)
(-0.00869212 0.102238 0)
(-0.019428 0.140803 0)
(-0.0289526 0.162941 0)
(-0.0358698 0.174123 0)
(-0.0398537 0.17867 0)
(-0.0409906 0.179623 0)
(-0.0395571 0.178918 0)
(-0.0358777 0.177625 0)
(-0.0302748 0.176161 0)
(-0.0230758 0.174451 0)
(-0.014641 0.172046 0)
(-0.00539339 0.168223 0)
(0.00414123 0.162074 0)
(0.0133291 0.152606 0)
(0.0214349 0.138849 0)
(0.0276306 0.119944 0)
(0.0310421 0.0951944 0)
(0.0308037 0.06404 0)
(0.0261129 0.0259507 0)
(0.0162852 -0.0197552 0)
(0.000819625 -0.0741462 0)
(-0.0204581 -0.138679 0)
(-0.0470299 -0.214881 0)
(-0.0769253 -0.302972 0)
(-0.105381 -0.398286 0)
(-0.123086 -0.484111 0)
(-0.115485 -0.521116 0)
(-0.0724465 -0.442573 0)
(-0.0185588 -0.192046 0)
(-0.0028777 0.0475818 0)
(-0.0128339 0.113067 0)
(-0.0262713 0.151588 0)
(-0.036594 0.171137 0)
(-0.0425259 0.178899 0)
(-0.0441983 0.180034 0)
(-0.0421032 0.177905 0)
(-0.0368156 0.174519 0)
(-0.0288588 0.170933 0)
(-0.0186829 0.167542 0)
(-0.00670155 0.16428 0)
(0.00666423 0.160748 0)
(0.0209334 0.156305 0)
(0.0355274 0.150147 0)
(0.0497579 0.141406 0)
(0.062825 0.129212 0)
(0.0738372 0.112777 0)
(0.0818528 0.0914226 0)
(0.0859305 0.0645558 0)
(0.0851742 0.0315672 0)
(0.0787395 -0.00834354 0)
(0.0658979 -0.0563952 0)
(0.0460239 -0.114354 0)
(0.0187616 -0.184536 0)
(-0.0153555 -0.269102 0)
(-0.0535636 -0.367396 0)
(-0.0880532 -0.468636 0)
(-0.102095 -0.537051 0)
(-0.0785866 -0.493466 0)
(-0.0250694 -0.237804 0)
(-0.00531763 0.0567447 0)
(-0.0200201 0.127731 0)
(-0.0369089 0.164267 0)
(-0.0475758 0.179027 0)
(-0.0514103 0.181636 0)
(-0.0494497 0.178178 0)
(-0.0428389 0.172212 0)
(-0.0325731 0.165679 0)
(-0.01943 0.159515 0)
(-0.00400581 0.154028 0)
(0.0132081 0.149117 0)
(0.0317472 0.144409 0)
(0.051111 0.139331 0)
(0.0707189 0.13319 0)
(0.0898847 0.125226 0)
(0.107811 0.114679 0)
(0.123606 0.100832 0)
(0.136318 0.083036 0)
(0.144972 0.0606857 0)
(0.148604 0.0331304 0)
(0.146239 -0.000471598 0)
(0.136939 -0.0413408 0)
(0.119686 -0.0912955 0)
(0.0934299 -0.152925 0)
(0.0573673 -0.229561 0)
(0.0118684 -0.324093 0)
(-0.0383945 -0.43303 0)
(-0.0762892 -0.529678 0)
(-0.0796095 -0.530606 0)
(-0.0322209 -0.289755 0)
(-0.0101702 0.0721828 0)
(-0.032165 0.147817 0)
(-0.0521064 0.178575 0)
(-0.060866 0.185263 0)
(-0.0597171 0.18057 0)
(-0.0512853 0.171314 0)
(-0.0376643 0.160937 0)
(-0.0203762 0.151063 0)
(-0.000469638 0.14234 0)
(0.0213387 0.134884 0)
(0.0445235 0.128499 0)
(0.0686383 0.122796 0)
(0.0932319 0.117254 0)
(0.117792 0.111266 0)
(0.14171 0.104182 0)
(0.164265 0.095346 0)
(0.184633 0.0841265 0)
(0.201906 0.069928 0)
(0.215114 0.0521702 0)
(0.223243 0.0302239 0)
(0.225187 0.00329769 0)
(0.219797 -0.029757 0)
(0.205706 -0.070564 0)
(0.181307 -0.121565 0)
(0.144759 -0.186449 0)
(0.0943586 -0.270517 0)
(0.0303412 -0.377578 0)
(-0.0325002 -0.493868 0)
(-0.0707644 -0.545093 0)
(-0.037864 -0.346237 0)
(-0.0194821 0.0990018 0)
(-0.0514271 0.173838 0)
(-0.0695016 0.19192 0)
(-0.069359 0.185969 0)
(-0.0565829 0.171697 0)
(-0.0361434 0.15588 0)
(-0.0112179 0.141154 0)
(0.0162417 0.128405 0)
(0.0450788 0.117756 0)
(0.074627 0.109 0)
(0.104482 0.101775 0)
(0.134352 0.0956361 0)
(0.163954 0.0900867 0)
(0.192945 0.0845982 0)
(0.220885 0.0786266 0)
(0.247209 0.0716303 0)
(0.271226 0.0630846 0)
(0.292127 0.0524841 0)
(0.308992 0.0393238 0)
(0.320801 0.0230578 0)
(0.326293 0.00302249 0)
(0.324171 -0.0216523 0)
(0.312775 -0.0523038 0)
(0.290039 -0.0909769 0)
(0.253334 -0.140982 0)
(0.199454 -0.208439 0)
(0.125265 -0.302894 0)
(0.0389297 -0.426609 0)
(-0.0445425 -0.527501 0)
(-0.0373602 -0.402604 0)
(-0.0348633 0.143164 0)
(-0.0743629 0.198611 0)
(-0.0706557 0.193197 0)
(-0.0449885 0.170309 0)
(-0.00879229 0.146072 0)
(0.0313817 0.125065 0)
(0.072247 0.107963 0)
(0.112294 0.0943612 0)
(0.150914 0.0836395 0)
(0.187956 0.0751974 0)
(0.223465 0.0684925 0)
(0.257528 0.0630316 0)
(0.290192 0.0583551 0)
(0.321399 0.0540261 0)
(0.350959 0.0496251 0)
(0.378526 0.0447514 0)
(0.403595 0.0390239 0)
(0.425499 0.032079 0)
(0.443415 0.023555 0)
(0.456365 0.0130571 0)
(0.463129 7.82403e-05 0)
(0.462331 -0.0158384 0)
(0.452032 -0.0356112 0)
(0.429972 -0.0607183 0)
(0.392989 -0.0936246 0)
(0.337241 -0.139643 0)
(0.256365 -0.210206 0)
(0.152247 -0.32468 0)
(0.0149754 -0.465747 0)
(-0.0172443 -0.441599 0)
(-0.0376928 0.235666 0)
(-0.0483716 0.20297 0)
(0.0263718 0.1524 0)
(0.098034 0.116772 0)
(0.165058 0.0904739 0)
(0.22552 0.0712796 0)
(0.279125 0.0575201 0)
(0.326591 0.04761 0)
(0.368913 0.0403613 0)
(0.40704 0.0349751 0)
(0.44177 0.030901 0)
(0.473724 0.0277283 0)
(0.503337 0.0251279 0)
(0.530858 0.0228218 0)
(0.556347 0.0205654 0)
(0.579674 0.0181387 0)
(0.600529 0.0153423 0)
(0.618421 0.0119932 0)
(0.632686 0.00792335 0)
(0.642432 0.00296112 0)
(0.646722 -0.00304895 0)
(0.64434 -0.0104611 0)
(0.633413 -0.0196795 0)
(0.611892 -0.0313873 0)
(0.576411 -0.0468568 0)
(0.52334 -0.0694774 0)
(0.442852 -0.107504 0)
(0.333488 -0.18803 0)
(0.143255 -0.335803 0)
(0.0605752 -0.41273 0)
(0.231252 0.158597 0)
(0.291133 0.116923 0)
(0.440174 0.0757138 0)
(0.53858 0.0504041 0)
(0.605294 0.0341404 0)
(0.654678 0.0234771 0)
(0.692898 0.0165869 0)
(0.723288 0.0121538 0)
(0.748156 0.00926564 0)
(0.769115 0.0073477 0)
(0.787244 0.00604454 0)
(0.803261 0.00512737 0)
(0.817623 0.00444041 0)
(0.830594 0.00387156 0)
(0.842273 0.00333571 0)
(0.852618 0.002765 0)
(0.861465 0.00210403 0)
(0.868536 0.00130473 0)
(0.873463 0.000333932 0)
(0.875789 -0.000848016 0)
(0.874916 -0.00217673 0)
(0.870097 -0.00384372 0)
(0.860433 -0.00594432 0)
(0.844934 -0.00860329 0)
(0.821215 -0.0120771 0)
(0.787556 -0.0174133 0)
(0.732274 -0.0268031 0)
(0.655534 -0.0488115 0)
(0.453983 -0.109926 0)
(0.313149 -0.177428 0)
)
;

boundaryField
{
    movingWall
    {
        type            fixedValue;
        value           uniform (1 0 0);
    }
    fixedWalls
    {
        type            noSlip;
    }
    frontAndBack
    {
        type            empty;
    }
}


// ************************************************************************* //
