/*--------------------------------*- C++ -*----------------------------------*\
  =========                 |
  \\      /  F ield         | OpenFOAM: The Open Source CFD Toolbox
   \\    /   O peration     | Website:  https://openfoam.org
    \\  /    A nd           | Version:  7
     \\/     M anipulation  |
\*---------------------------------------------------------------------------*/
FoamFile
{
    version     2.0;
    format      ascii;
    class       volScalarField;
    location    "1.24";
    object      p;
}
// * * * * * * * * * * * * * * * * * * * * * * * * * * * * * * * * * * * * * //

dimensions      [0 2 -2 0 0 0 0];

internalField   nonuniform List<scalar> 
1936
(
-1.94424e-06
-2960.02
-6554.46
-6521.98
-5980.89
-6112.62
-5785.16
-4989.68
-4342.98
-4194.54
-4506.41
-5962.56
-7533.8
-6516.23
-4283.51
-3481.38
-3541.42
-4352.35
-6394.22
-7295.5
-5469.09
-3728.54
-3506.33
-4005.96
-6147.71
-7748.89
-5977.24
-3838.1
-3381.08
-3541.54
-4932.52
-7211.23
-6941.98
-4446.46
-3356.78
-3412.72
-4676.92
-7181.89
-7040.87
-4551.65
-3433.85
-3365.74
-4489.2
-7317.69
-105.467
-2961.48
-6498.86
-6483.71
-5964.81
-6090.95
-5768.11
-4993.45
-4372.81
-4234.5
-4524.77
-5930.37
-7470.34
-6473.87
-4289.64
-3531.57
-3597.11
-4375.42
-6373.72
-7243.56
-5447.92
-3772.12
-3567.23
-4019.36
-6091.05
-7674.26
-5942.92
-3859.8
-3437.5
-3591.15
-4936.36
-7166.77
-6890.01
-4450.54
-3417.77
-3466.02
-4667.98
-7121.2
-6990.09
-4555.16
-3489.7
-3422.14
-4485.67
-7255.8
-430.592
-2974.31
-6298.6
-6380.75
-5927.7
-6022.5
-5718.93
-5009.09
-4451.69
-4330.78
-4584.05
-5855.47
-7272.65
-6356.87
-4332.35
-3655.73
-3736.78
-4463
-6314.24
-7073.86
-5401.36
-3896.52
-3709.95
-4072.56
-5947.19
-7438.46
-5862.68
-3938.58
-3569.65
-3727.81
-4972.61
-7022.64
-6730.81
-4485.87
-3569.24
-3601.8
-4672.15
-6935.01
-6834.28
-4593.44
-3628.13
-3562.4
-4510.07
-7066.04
-876.863
-3018.89
-6012.1
-6222.7
-5871.84
-5924.96
-5647.64
-5032.54
-4561.73
-4462.82
-4675.23
-5756.99
-6978.76
-6187.57
-4413.53
-3837.3
-3927.25
-4580.87
-6206.07
-6812.33
-5338.94
-4068.51
-3902.81
-4170.51
-5762.51
-7088.39
-5749.18
-4067.43
-3757.77
-3916.37
-5016.54
-6791.22
-6493.48
-4545.6
-3778.57
-3796.53
-4695.58
-6659.4
-6594.75
-4651.94
-3821.14
-3762.62
-4561.38
-6782.12
-1388.36
-3102.9
-5691.13
-6021.97
-5789.64
-5807.46
-5565.01
-5060.61
-4684.66
-4606.48
-4779.45
-5649.79
-6638.51
-5994.47
-4523.72
-4050.91
-4135.92
-4702.52
-6061.36
-6502.54
-5268.61
-4252.04
-4110.57
-4299.78
-5575.08
-6686.05
-5619.56
-4227.98
-3974.12
-4121.62
-5052.22
-6509.08
-6219.56
-4616.87
-4007.5
-4016.98
-4735.57
-6344.68
-6311.35
-4716.06
-4034.22
-3987.49
-4630.31
-6455.13
-1926.83
-3228.92
-5373.42
-5793.45
-5678.72
-5677.97
-5478.65
-5089.2
-4805.58
-4745.29
-4881.93
-5544.07
-6293.05
-5798.09
-4650.19
-4274.45
-4341.57
-4813.12
-5890.41
-6180.75
-5196.96
-4426.33
-4312.41
-4445.2
-5409.03
-6282.32
-5486.49
-4400.09
-4197.26
-4321
-5072.49
-6205.92
-5941.31
-4692.62
-4230.9
-4237.36
-4787.82
-6029.33
-6016.02
-4778.09
-4243.56
-4211.12
-4708.56
-6123.98
-2462.69
-3396.06
-5086.9
-5553
-5543.08
-5543.3
-5393.6
-5114.15
-4912.14
-4867.84
-4971.41
-5447.39
-5973.04
-5613.96
-4777.36
-4488.58
-4531.92
-4905.54
-5706.61
-5875.99
-5133.3
-4580.18
-4495.6
-4590.14
-5276.65
-5914.65
-5359.7
-4565.17
-4408.2
-4501.59
-5078.4
-5907.84
-5683.26
-4767.91
-4434.01
-4439.8
-4845.44
-5740.08
-5734.52
-4834.39
-4434.66
-4416.17
-4787.24
-5816.74
-2970.32
-3597.69
-4852.44
-5318.75
-5391.82
-5408.91
-5312.7
-5130.45
-4997.16
-4966.58
-5041.71
-5362.71
-5698.58
-5453.6
-4890.38
-4677.74
-4698.9
-4977.52
-5525.9
-5609.43
-5085.81
-4709.24
-4652.89
-4720.76
-5179.16
-5606.21
-5246.82
-4709.1
-4592.3
-4656.68
-5074.69
-5637.54
-5462.49
-4838.3
-4608.21
-4613.63
-4899.92
-5494.51
-5487.87
-4882.34
-4599.53
-4592.15
-4857.75
-5552.31
-3423.67
-3820.79
-4686.02
-5109.76
-5237.7
-5280.35
-5236.43
-5134.68
-5056.81
-5038.24
-5090.81
-5288.82
-5480.22
-5324.38
-4979.42
-4831.37
-4838.1
-5026.63
-5364.56
-5395.05
-5055.54
-4814.03
-4779.67
-4828.64
-5110.93
-5367.81
-5154.78
-4823.22
-4741.71
-4784
-5063.93
-5411.75
-5288.44
-4899.28
-4748.66
-4753.25
-4944.8
-5301.28
-5290.07
-4920.15
-4734.36
-4733.86
-4914.22
-5341.09
-3800.91
-4044.37
-4595.58
-4943.8
-5095.6
-5163.16
-5165.09
-5125.56
-5090.58
-5083.27
-5117.44
-5225.78
-5319.54
-5228.71
-5039.72
-4945.42
-4943.96
-5054.54
-5235.56
-5237.75
-5038.49
-4895.12
-4874.59
-4909.4
-5065.48
-5200.85
-5087.67
-4905.78
-4853.51
-4881.04
-5049.26
-5239.75
-5163.5
-4945.43
-4854.7
-4858.81
-4975.02
-5162.15
-5147.82
-4946.47
-4837.84
-4840.67
-4953.18
-5186.61
-4094.28
-4244.62
-4572.95
-4832.19
-4979.86
-5063.63
-5100
-5104.56
-5101
-5103.71
-5124.04
-5173.85
-5210.46
-5163.85
-5073.3
-5019.97
-5013.93
-5065.84
-5144.55
-5134.2
-5029.61
-4952.44
-4940.33
-4962.75
-5037.4
-5097.33
-5045.09
-4959
-4930.11
-4946.92
-5034.13
-5123.17
-5082.8
-4975.49
-4927.54
-4931.16
-4991.51
-5072.89
-5058.69
-4963.34
-4909.77
-4914.03
-4975.76
-5085.82
-4310.93
-4406.87
-4594.92
-4773.72
-4899.58
-4987.41
-5044.14
-5076.3
-5093.19
-5103.84
-5115.35
-5132.76
-5142.16
-5122.29
-5085.97
-5059.74
-5051.44
-5066.32
-5088.49
-5074.43
-5025.07
-4988.2
-4981.53
-4993.06
-5021.96
-5042.49
-5022.61
-4989.24
-4976.35
-4984.92
-5021.61
-5054.91
-5036.97
-4992.69
-4971.54
-4974.2
-4998.5
-5023.84
-5012.13
-4973.65
-4953.63
-4958.42
-4986.75
-5029.16
-4464.49
-4529.42
-4639.36
-4754.93
-4854.82
-4936.61
-5000.27
-5045.6
-5074.66
-5090.16
-5097.34
-5101.23
-5101.57
-5095.49
-5084.7
-5073.52
-5064.87
-5061.16
-5058.3
-5044.93
-5022.95
-5007.56
-5004.06
-5007.73
-5015.02
-5019.14
-5013.28
-5003.93
-4999.81
-5002.58
-5013.25
-5021.54
-5014.89
-5000.86
-4994.15
-4995.29
-5000.62
-5002.31
-4993.63
-4980.98
-4977.09
-4981.27
-4991.29
-5003.08
-4576.78
-4618.6
-4685.86
-4761.93
-4837.28
-4907.5
-4968.44
-5016.29
-5049.18
-5067.62
-5075.12
-5076.81
-5076.86
-5076.9
-5075.88
-5071.94
-5063.92
-5053.91
-5043.66
-5032.75
-5022.76
-5016.59
-5014.42
-5013.82
-5013.11
-5012.1
-5010.85
-5009.71
-5009
-5008.55
-5008.84
-5008.62
-5006.52
-5004.08
-5003.4
-5003.19
-5001.15
-4996.1
-4989.98
-4986.81
-4988.26
-4991.06
-4993.19
-4994.32
-4662.7
-4687.43
-4729.12
-4780.06
-4836.23
-4893.17
-4946
-4990.1
-5022.37
-5042.32
-5052.36
-5056.7
-5059.3
-5061.98
-5063.69
-5062.07
-5055.88
-5046.44
-5036.5
-5028.42
-5023.15
-5020.07
-5018.19
-5016.03
-5013.44
-5011.44
-5010.85
-5011.28
-5011.13
-5009.6
-5007.2
-5005.23
-5004.52
-5005.14
-5005.95
-5005.13
-5001.51
-4996.16
-4992.04
-4991.36
-4993.19
-4994.71
-4994.37
-4993.21
-4730.67
-4744.22
-4769.57
-4803.49
-4843.86
-4887.69
-4930.46
-4968.03
-4997.44
-5017.84
-5030.63
-5038.44
-5043.8
-5047.93
-5050.36
-5049.85
-5045.82
-5039.31
-5032.4
-5026.88
-5023.33
-5021.08
-5019.11
-5016.69
-5014.12
-5012.22
-5011.5
-5011.37
-5010.8
-5009.15
-5006.89
-5005.19
-5004.81
-5005.46
-5005.91
-5004.84
-5001.93
-4998.21
-4995.46
-4994.79
-4995.5
-4995.93
-4995.33
-4994.36
-4784.45
-4791.83
-4807.02
-4829.09
-4856.98
-4888.63
-4921.22
-4951.35
-4976.69
-4996.27
-5010.52
-5020.73
-5028.16
-5033.49
-5036.7
-5037.43
-5035.71
-5032.3
-5028.42
-5025.06
-5022.55
-5020.54
-5018.62
-5016.53
-5014.5
-5012.9
-5011.87
-5011.09
-5010.12
-5008.71
-5007.16
-5006
-5005.54
-5005.54
-5005.33
-5004.31
-5002.36
-5000.04
-4998.15
-4997.22
-4996.98
-4996.76
-4996.24
-4995.71
-4826.54
-4830.83
-4840.15
-4854.37
-4873.04
-4894.95
-4918.29
-4941.12
-4961.66
-4979.01
-4993.01
-5004.03
-5012.54
-5018.85
-5023.09
-5025.3
-5025.74
-5024.9
-5023.43
-5021.84
-5020.33
-5018.86
-5017.32
-5015.72
-5014.2
-5012.88
-5011.77
-5010.77
-5009.71
-5008.56
-5007.46
-5006.59
-5006.01
-5005.58
-5005.01
-5004.07
-5002.76
-5001.28
-4999.94
-4998.96
-4998.31
-4997.8
-4997.35
-4997.03
-4859.28
-4862.04
-4868.01
-4877.26
-4889.6
-4904.35
-4920.53
-4937.02
-4952.7
-4966.91
-4979.27
-4989.71
-4998.29
-5005.09
-5010.17
-5013.68
-5015.81
-5016.88
-5017.21
-5017.08
-5016.64
-5015.96
-5015.08
-5014.09
-5013.07
-5012.09
-5011.17
-5010.26
-5009.35
-5008.43
-5007.58
-5006.85
-5006.22
-5005.62
-5004.94
-5004.13
-5003.17
-5002.14
-5001.16
-5000.3
-4999.6
-4999.04
-4998.63
-4998.39
-4884.69
-4886.56
-4890.53
-4896.65
-4904.8
-4914.63
-4925.62
-4937.15
-4948.7
-4959.69
-4969.81
-4978.85
-4986.72
-4993.36
-4998.79
-5003.05
-5006.27
-5008.6
-5010.19
-5011.21
-5011.77
-5011.97
-5011.87
-5011.56
-5011.11
-5010.59
-5010.02
-5009.4
-5008.75
-5008.09
-5007.45
-5006.84
-5006.25
-5005.66
-5005.04
-5004.36
-5003.63
-5002.88
-5002.14
-5001.47
-5000.88
-5000.4
-5000.06
-4999.86
-4904.19
-4905.48
-4908.17
-4912.27
-4917.71
-4924.29
-4931.74
-4939.76
-4948.01
-4956.23
-4964.12
-4971.52
-4978.27
-4984.29
-4989.54
-4994.01
-4997.72
-5000.73
-5003.12
-5004.97
-5006.35
-5007.32
-5007.96
-5008.34
-5008.5
-5008.49
-5008.36
-5008.13
-5007.82
-5007.45
-5007.05
-5006.62
-5006.17
-5005.71
-5005.21
-5004.69
-5004.15
-5003.61
-5003.08
-5002.58
-5002.14
-5001.79
-5001.53
-5001.39
-4918.76
-4919.67
-4921.51
-4924.3
-4927.99
-4932.47
-4937.6
-4943.21
-4949.13
-4955.2
-4961.22
-4967.08
-4972.66
-4977.85
-4982.61
-4986.88
-4990.65
-4993.94
-4996.74
-4999.1
-5001.05
-5002.63
-5003.88
-5004.84
-5005.55
-5006.06
-5006.39
-5006.57
-5006.63
-5006.58
-5006.46
-5006.27
-5006.03
-5005.74
-5005.42
-5005.07
-5004.71
-5004.35
-5003.99
-5003.66
-5003.37
-5003.13
-5002.96
-5002.86
-4928.41
-4929.08
-4930.4
-4932.42
-4935.08
-4938.33
-4942.08
-4946.23
-4950.68
-4955.32
-4960.07
-4964.8
-4969.44
-4973.9
-4978.12
-4982.07
-4985.69
-4988.98
-4991.93
-4994.53
-4996.81
-4998.76
-5000.42
-5001.8
-5002.94
-5003.85
-5004.56
-5005.09
-5005.48
-5005.73
-5005.87
-5005.91
-5005.88
-5005.78
-5005.64
-5005.45
-5005.25
-5005.03
-5004.81
-5004.6
-5004.41
-5004.26
-5004.15
-5004.1
-4933.86
-4934.39
-4935.44
-4937.04
-4939.17
-4941.77
-4944.78
-4948.15
-4951.8
-4955.67
-4959.66
-4963.72
-4967.77
-4971.74
-4975.59
-4979.27
-4982.74
-4985.97
-4988.94
-4991.64
-4994.07
-4996.23
-4998.12
-4999.76
-5001.15
-5002.33
-5003.3
-5004.08
-5004.69
-5005.16
-5005.49
-5005.71
-5005.84
-5005.89
-5005.87
-5005.81
-5005.71
-5005.59
-5005.46
-5005.33
-5005.21
-5005.11
-5005.04
-5005
-4936.64
-4937.1
-4938.01
-4939.4
-4941.25
-4943.52
-4946.16
-4949.13
-4952.37
-4955.82
-4959.42
-4963.11
-4966.84
-4970.54
-4974.18
-4977.7
-4981.06
-4984.25
-4987.22
-4989.97
-4992.49
-4994.76
-4996.79
-4998.58
-5000.14
-5001.47
-5002.6
-5003.54
-5004.3
-5004.9
-5005.36
-5005.7
-5005.93
-5006.07
-5006.14
-5006.15
-5006.11
-5006.05
-5005.97
-5005.89
-5005.81
-5005.74
-5005.69
-5005.66
-4937.89
-4938.31
-4939.15
-4940.44
-4942.15
-4944.25
-4946.71
-4949.48
-4952.51
-4955.75
-4959.16
-4962.67
-4966.23
-4969.81
-4973.34
-4976.78
-4980.11
-4983.28
-4986.27
-4989.06
-4991.64
-4993.98
-4996.1
-4997.99
-4999.65
-5001.09
-5002.32
-5003.35
-5004.2
-5004.89
-5005.43
-5005.83
-5006.12
-5006.32
-5006.43
-5006.49
-5006.49
-5006.46
-5006.41
-5006.35
-5006.28
-5006.23
-5006.19
-5006.16
-4938.26
-4938.67
-4939.47
-4940.71
-4942.36
-4944.39
-4946.76
-4949.44
-4952.38
-4955.54
-4958.86
-4962.3
-4965.8
-4969.33
-4972.82
-4976.26
-4979.58
-4982.77
-4985.79
-4988.62
-4991.24
-4993.65
-4995.83
-4997.78
-4999.51
-5001.02
-5002.31
-5003.4
-5004.31
-5005.04
-5005.62
-5006.06
-5006.38
-5006.6
-5006.74
-5006.81
-5006.82
-5006.81
-5006.76
-5006.71
-5006.65
-5006.6
-5006.56
-5006.54
-4938.15
-4938.56
-4939.35
-4940.57
-4942.2
-4944.21
-4946.56
-4949.22
-4952.13
-4955.27
-4958.58
-4962
-4965.51
-4969.03
-4972.54
-4975.99
-4979.34
-4982.56
-4985.61
-4988.48
-4991.15
-4993.6
-4995.82
-4997.82
-4999.58
-5001.13
-5002.45
-5003.57
-5004.5
-5005.25
-5005.85
-5006.3
-5006.63
-5006.85
-5006.99
-5007.06
-5007.08
-5007.05
-5007.01
-5006.95
-5006.89
-5006.84
-5006.8
-5006.78
-4937.88
-4938.28
-4939.07
-4940.29
-4941.93
-4943.94
-4946.3
-4948.97
-4951.9
-4955.06
-4958.38
-4961.84
-4965.36
-4968.92
-4972.46
-4975.94
-4979.32
-4982.57
-4985.65
-4988.55
-4991.25
-4993.72
-4995.97
-4997.98
-4999.76
-5001.32
-5002.65
-5003.77
-5004.7
-5005.45
-5006.03
-5006.47
-5006.79
-5007
-5007.13
-5007.18
-5007.18
-5007.15
-5007.09
-5007.03
-5006.96
-5006.9
-5006.86
-5006.84
-4937.62
-4938.02
-4938.81
-4940.04
-4941.69
-4943.73
-4946.12
-4948.81
-4951.78
-4954.97
-4958.34
-4961.83
-4965.39
-4968.98
-4972.55
-4976.06
-4979.47
-4982.75
-4985.85
-4988.77
-4991.48
-4993.96
-4996.21
-4998.22
-4999.99
-5001.53
-5002.84
-5003.94
-5004.84
-5005.56
-5006.12
-5006.53
-5006.81
-5006.99
-5007.09
-5007.12
-5007.1
-5007.05
-5006.97
-5006.89
-5006.82
-5006.75
-5006.7
-5006.68
-4937.48
-4937.88
-4938.67
-4939.92
-4941.59
-4943.66
-4946.08
-4948.82
-4951.83
-4955.06
-4958.46
-4961.99
-4965.59
-4969.21
-4972.81
-4976.34
-4979.77
-4983.06
-4986.17
-4989.09
-4991.79
-4994.26
-4996.49
-4998.48
-5000.22
-5001.72
-5003
-5004.05
-5004.91
-5005.57
-5006.08
-5006.44
-5006.67
-5006.81
-5006.86
-5006.85
-5006.79
-5006.71
-5006.62
-5006.52
-5006.44
-5006.37
-5006.31
-5006.29
-4937.53
-4937.92
-4938.72
-4939.99
-4941.69
-4943.79
-4946.25
-4949.02
-4952.06
-4955.32
-4958.75
-4962.3
-4965.92
-4969.57
-4973.18
-4976.73
-4980.16
-4983.45
-4986.56
-4989.46
-4992.15
-4994.59
-4996.79
-4998.74
-5000.44
-5001.89
-5003.11
-5004.11
-5004.9
-5005.5
-5005.93
-5006.22
-5006.39
-5006.46
-5006.44
-5006.38
-5006.27
-5006.15
-5006.02
-5005.91
-5005.81
-5005.73
-5005.68
-5005.66
-4937.81
-4938.21
-4939.02
-4940.3
-4942.02
-4944.14
-4946.61
-4949.39
-4952.44
-4955.72
-4959.16
-4962.72
-4966.35
-4970
-4973.62
-4977.17
-4980.6
-4983.88
-4986.97
-4989.86
-4992.52
-4994.93
-4997.1
-4999
-5000.65
-5002.04
-5003.2
-5004.12
-5004.84
-5005.36
-5005.72
-5005.92
-5006
-5005.98
-5005.89
-5005.74
-5005.57
-5005.38
-5005.2
-5005.05
-5004.93
-5004.84
-5004.79
-5004.78
-4938.38
-4938.78
-4939.58
-4940.86
-4942.57
-4944.68
-4947.14
-4949.91
-4952.94
-4956.2
-4959.64
-4963.2
-4966.82
-4970.47
-4974.08
-4977.62
-4981.05
-4984.31
-4987.39
-4990.26
-4992.89
-4995.27
-4997.39
-4999.25
-5000.84
-5002.18
-5003.27
-5004.12
-5004.76
-5005.2
-5005.47
-5005.58
-5005.57
-5005.45
-5005.25
-5005.01
-5004.73
-5004.45
-5004.19
-5003.97
-5003.8
-5003.69
-5003.65
-5003.65
-4939.26
-4939.65
-4940.44
-4941.66
-4943.33
-4945.38
-4947.78
-4950.5
-4953.5
-4956.72
-4960.13
-4963.67
-4967.29
-4970.92
-4974.53
-4978.06
-4981.47
-4984.73
-4987.79
-4990.63
-4993.24
-4995.59
-4997.67
-4999.48
-5001.03
-5002.31
-5003.33
-5004.12
-5004.68
-5005.04
-5005.22
-5005.24
-5005.13
-5004.9
-5004.6
-5004.23
-5003.84
-5003.43
-5003.05
-5002.71
-5002.45
-5002.27
-5002.22
-5002.23
-4940.53
-4940.87
-4941.58
-4942.67
-4944.22
-4946.16
-4948.47
-4951.11
-4954.04
-4957.22
-4960.6
-4964.11
-4967.71
-4971.34
-4974.93
-4978.45
-4981.86
-4985.1
-4988.15
-4990.98
-4993.56
-4995.88
-4997.93
-4999.7
-5001.2
-5002.43
-5003.4
-5004.12
-5004.62
-5004.9
-5005
-5004.93
-5004.72
-5004.4
-5003.97
-5003.48
-5002.95
-5002.39
-5001.85
-5001.34
-5000.93
-5000.59
-5000.48
-5000.48
-4942.3
-4942.43
-4942.98
-4943.82
-4945.19
-4946.96
-4949.14
-4951.69
-4954.54
-4957.67
-4961.01
-4964.5
-4968.08
-4971.69
-4975.28
-4978.8
-4982.19
-4985.43
-4988.46
-4991.28
-4993.84
-4996.14
-4998.16
-4999.9
-5001.37
-5002.55
-5003.47
-5004.14
-5004.58
-5004.8
-5004.82
-5004.67
-5004.38
-5003.95
-5003.42
-5002.81
-5002.13
-5001.41
-5000.68
-4999.96
-4999.31
-4998.7
-4998.45
-4998.27
-4944.7
-4944.31
-4944.57
-4945.01
-4946.13
-4947.71
-4949.75
-4952.18
-4954.97
-4958.04
-4961.34
-4964.81
-4968.38
-4971.98
-4975.57
-4979.08
-4982.47
-4985.7
-4988.73
-4991.53
-4994.09
-4996.37
-4998.37
-5000.08
-5001.52
-5002.67
-5003.55
-5004.17
-5004.56
-5004.72
-5004.69
-5004.47
-5004.1
-5003.59
-5002.96
-5002.23
-5001.42
-5000.54
-4999.62
-4998.64
-4997.71
-4996.68
-4996.16
-4995.48
-4947.87
-4946.41
-4946.22
-4946.14
-4946.98
-4948.34
-4950.25
-4952.58
-4955.3
-4958.32
-4961.6
-4965.05
-4968.6
-4972.2
-4975.79
-4979.3
-4982.69
-4985.92
-4988.95
-4991.74
-4994.29
-4996.56
-4998.54
-5000.24
-5001.64
-5002.77
-5003.62
-5004.21
-5004.55
-5004.67
-5004.59
-5004.32
-5003.89
-5003.31
-5002.6
-5001.77
-5000.85
-4999.82
-4998.72
-4997.48
-4996.24
-4994.66
-4993.73
-4991.98
-4951.9
-4948.54
-4947.77
-4947.11
-4947.67
-4948.84
-4950.62
-4952.88
-4955.53
-4958.52
-4961.78
-4965.21
-4968.77
-4972.37
-4975.95
-4979.46
-4982.86
-4986.08
-4989.11
-4991.91
-4994.44
-4996.7
-4998.68
-5000.36
-5001.75
-5002.85
-5003.68
-5004.25
-5004.56
-5004.65
-5004.53
-5004.22
-5003.74
-5003.1
-5002.33
-5001.44
-5000.42
-4999.28
-4998.01
-4996.55
-4995
-4992.83
-4991.34
-4987.68
-4956.7
-4950.5
-4949.07
-4947.86
-4948.18
-4949.19
-4950.88
-4953.07
-4955.69
-4958.66
-4961.89
-4965.32
-4968.88
-4972.47
-4976.06
-4979.57
-4982.97
-4986.2
-4989.23
-4992.02
-4994.55
-4996.81
-4998.78
-5000.45
-5001.83
-5002.92
-5003.73
-5004.28
-5004.57
-5004.64
-5004.49
-5004.16
-5003.64
-5002.97
-5002.16
-5001.21
-5000.13
-4998.9
-4997.52
-4995.87
-4994.06
-4991.33
-4989.21
-4982.66
-4961.93
-4952.05
-4949.98
-4948.35
-4948.5
-4949.4
-4951.03
-4953.18
-4955.78
-4958.73
-4961.96
-4965.39
-4968.94
-4972.54
-4976.12
-4979.64
-4983.04
-4986.27
-4989.29
-4992.09
-4994.62
-4996.87
-4998.84
-5000.5
-5001.88
-5002.96
-5003.76
-5004.3
-5004.58
-5004.64
-5004.48
-5004.12
-5003.59
-5002.9
-5002.06
-5001.08
-4999.95
-4998.67
-4997.22
-4995.45
-4993.46
-4990.3
-4987.55
-4977.3
-4966.86
-4953.04
-4950.47
-4948.6
-4948.65
-4949.51
-4951.11
-4953.24
-4955.82
-4958.76
-4961.99
-4965.42
-4968.96
-4972.56
-4976.15
-4979.67
-4983.07
-4986.3
-4989.33
-4992.12
-4994.65
-4996.9
-4998.86
-5000.53
-5001.9
-5002.98
-5003.78
-5004.31
-5004.59
-5004.64
-5004.47
-5004.11
-5003.57
-5002.86
-5002.01
-5001.01
-4999.87
-4998.56
-4997.07
-4995.24
-4993.16
-4989.75
-4986.52
-4972.29
-4970.81
-4953.47
-4950.64
-4948.69
-4948.71
-4949.54
-4951.13
-4953.26
-4955.84
-4958.78
-4962
-4965.42
-4968.97
-4972.57
-4976.16
-4979.68
-4983.07
-4986.31
-4989.34
-4992.13
-4994.66
-4996.91
-4998.87
-5000.54
-5001.91
-5002.98
-5003.78
-5004.31
-5004.59
-5004.63
-5004.47
-5004.1
-5003.56
-5002.85
-5002
-5001
-4999.85
-4998.53
-4997.02
-4995.18
-4993.05
-4989.57
-4986.07
-4968.32
)
;

boundaryField
{
    movingWall
    {
        type            zeroGradient;
    }
    fixedWalls
    {
        type            zeroGradient;
    }
    frontAndBack
    {
        type            empty;
    }
    defaultFaces
    {
        type            empty;
    }
}


// ************************************************************************* //
