/*--------------------------------*- C++ -*----------------------------------*\
  =========                 |
  \\      /  F ield         | OpenFOAM: The Open Source CFD Toolbox
   \\    /   O peration     | Website:  https://openfoam.org
    \\  /    A nd           | Version:  7
     \\/     M anipulation  |
\*---------------------------------------------------------------------------*/
FoamFile
{
    version     2.0;
    format      ascii;
    class       volVectorField;
    location    "1.8";
    object      U;
}
// * * * * * * * * * * * * * * * * * * * * * * * * * * * * * * * * * * * * * //

dimensions      [0 1 -1 0 0 0 0];

internalField   nonuniform List<vector> 
900
(
(5.1399e-05 -5.07723e-05 0)
(-4.10314e-05 3.96204e-05 0)
(-0.000430847 0.000128009 0)
(-0.000986986 0.000178033 0)
(-0.00163618 0.000198396 0)
(-0.0023177 0.000200806 0)
(-0.00299142 0.000193824 0)
(-0.00363434 0.000182276 0)
(-0.00423317 0.000168256 0)
(-0.00477887 0.000152388 0)
(-0.005264 0.000134681 0)
(-0.00568154 0.000114979 0)
(-0.00602456 9.31452e-05 0)
(-0.00628624 6.91207e-05 0)
(-0.00646005 4.29417e-05 0)
(-0.00654 1.47471e-05 0)
(-0.00652087 -1.52084e-05 0)
(-0.00639855 -4.65847e-05 0)
(-0.00617035 -7.89045e-05 0)
(-0.00583538 -0.000111571 0)
(-0.00539497 -0.000143851 0)
(-0.00485324 -0.000174801 0)
(-0.00421804 -0.000203077 0)
(-0.00350269 -0.000226513 0)
(-0.0027291 -0.000241363 0)
(-0.00193299 -0.000241302 0)
(-0.0011703 -0.000216848 0)
(-0.000517848 -0.00015634 0)
(-5.94815e-05 -5.19969e-05 0)
(5.54883e-05 5.33565e-05 0)
(-3.84501e-05 4.02096e-05 0)
(-0.000496104 0.000493982 0)
(-0.00153869 0.000887268 0)
(-0.00290912 0.00112883 0)
(-0.00446386 0.00124025 0)
(-0.00608913 0.00126127 0)
(-0.00770014 0.00122609 0)
(-0.0092415 0.00115719 0)
(-0.0106773 0.00106671 0)
(-0.0119821 0.000960198 0)
(-0.0131356 0.000839776 0)
(-0.01412 0.000706205 0)
(-0.0149191 0.000559892 0)
(-0.0155174 0.000401372 0)
(-0.0159012 0.000231509 0)
(-0.016058 5.15982e-05 0)
(-0.0159778 -0.000136609 0)
(-0.0156533 -0.000330683 0)
(-0.0150804 -0.000527617 0)
(-0.0142596 -0.000723675 0)
(-0.0131963 -0.000914175 0)
(-0.011903 -0.00109302 0)
(-0.0104008 -0.00125168 0)
(-0.00872364 -0.00137743 0)
(-0.00692384 -0.00145073 0)
(-0.00508058 -0.00144277 0)
(-0.00330734 -0.00131604 0)
(-0.00174613 -0.00103217 0)
(-0.00056264 -0.000576152 0)
(-4.38795e-05 -5.70126e-05 0)
(-0.000130597 0.000432973 0)
(-0.000915643 0.00154307 0)
(-0.00248499 0.00242558 0)
(-0.00446477 0.00297807 0)
(-0.00666729 0.0032415 0)
(-0.00895158 0.00329313 0)
(-0.0112092 0.00320413 0)
(-0.0133661 0.00302474 0)
(-0.0153721 0.0027846 0)
(-0.0171908 0.00249904 0)
(-0.0187932 0.00217534 0)
(-0.0201543 0.00181707 0)
(-0.0212517 0.00142654 0)
(-0.0220651 0.00100604 0)
(-0.0225764 0.00055847 0)
(-0.0227701 8.75989e-05 0)
(-0.0226336 -0.000401692 0)
(-0.0221582 -0.00090307 0)
(-0.0213401 -0.00140874 0)
(-0.0201811 -0.00190904 0)
(-0.0186904 -0.00239186 0)
(-0.0168862 -0.00284141 0)
(-0.0147987 -0.0032359 0)
(-0.0124749 -0.00354388 0)
(-0.00998515 -0.00371942 0)
(-0.00743276 -0.00369885 0)
(-0.00496125 -0.00340446 0)
(-0.0027459 -0.00276308 0)
(-0.00100287 -0.00174974 0)
(-0.000140135 -0.000495093 0)
(-0.000189733 0.00101501 0)
(-0.00121539 0.00297185 0)
(-0.00318532 0.00443635 0)
(-0.00561553 0.00534063 0)
(-0.0082829 0.00576767 0)
(-0.011029 0.00584235 0)
(-0.0137325 0.00567788 0)
(-0.0163094 0.00535528 0)
(-0.0187018 0.00492391 0)
(-0.0208673 0.00441054 0)
(-0.0227714 0.00382889 0)
(-0.0243849 0.00318637 0)
(-0.0256818 0.00248806 0)
(-0.0266387 0.00173875 0)
(-0.0272348 0.000944017 0)
(-0.0274526 0.000110836 0)
(-0.027278 -0.000751995 0)
(-0.0267014 -0.00163348 0)
(-0.0257185 -0.00252 0)
(-0.024332 -0.00339471 0)
(-0.0225527 -0.00423647 0)
(-0.0204021 -0.00501782 0)
(-0.0179159 -0.00570127 0)
(-0.0151484 -0.00623363 0)
(-0.0121807 -0.00653919 0)
(-0.00913013 -0.0065153 0)
(-0.00615866 -0.00603844 0)
(-0.00346441 -0.0049906 0)
(-0.0013037 -0.00331508 0)
(-0.000197246 -0.001122 0)
(-0.000224054 0.00173003 0)
(-0.0014168 0.00467913 0)
(-0.00368239 0.0067946 0)
(-0.00644683 0.0080752 0)
(-0.00945626 0.00866687 0)
(-0.0125379 0.00875297 0)
(-0.0155616 0.00849366 0)
(-0.0184377 0.0080029 0)
(-0.0211047 0.00735076 0)
(-0.0235168 0.00657616 0)
(-0.0256367 0.00569981 0)
(-0.0274329 0.00473345 0)
(-0.0288768 0.00368532 0)
(-0.0299432 0.00256304 0)
(-0.0306094 0.00137521 0)
(-0.0308559 0.000132245 0)
(-0.030667 -0.00115291 0)
(-0.0300312 -0.00246415 0)
(-0.0289432 -0.00378152 0)
(-0.0274044 -0.00508027 0)
(-0.0254257 -0.00632923 0)
(-0.0230296 -0.00748792 0)
(-0.0202541 -0.00850141 0)
(-0.0171584 -0.00929273 0)
(-0.0138307 -0.00975374 0)
(-0.0103994 -0.00973932 0)
(-0.00704242 -0.00907435 0)
(-0.0039795 -0.00758548 0)
(-0.00150346 -0.00516536 0)
(-0.000227997 -0.00187826 0)
(-0.000244648 0.00253371 0)
(-0.00155827 0.00659321 0)
(-0.00405161 0.00942135 0)
(-0.00707966 0.0111014 0)
(-0.0103614 0.0118589 0)
(-0.0137103 0.0119461 0)
(-0.0169884 0.0115757 0)
(-0.0201024 0.010897 0)
(-0.0229884 0.010002 0)
(-0.025599 0.00894197 0)
(-0.0278957 0.00774484 0)
(-0.0298453 0.00642676 0)
(-0.0314181 0.00499917 0)
(-0.0325868 0.00347252 0)
(-0.033327 0.00185828 0)
(-0.033617 0.000170214 0)
(-0.0334386 -0.00157466 0)
(-0.0327775 -0.00335515 0)
(-0.0316253 -0.00514479 0)
(-0.029981 -0.00691048 0)
(-0.0278531 -0.00861018 0)
(-0.025263 -0.0101891 0)
(-0.0222495 -0.0115729 0)
(-0.0188751 -0.0126582 0)
(-0.0152347 -0.0133012 0)
(-0.0114687 -0.0133093 0)
(-0.0077728 -0.0124492 0)
(-0.00439113 -0.0104822 0)
(-0.00165215 -0.00723704 0)
(-0.000246348 -0.00272198 0)
(-0.000259996 0.00340183 0)
(-0.00167403 0.00867086 0)
(-0.00436405 0.0122688 0)
(-0.00762546 0.0143726 0)
(-0.0111521 0.0152996 0)
(-0.0147435 0.0153803 0)
(-0.018254 0.0148857 0)
(-0.0215864 0.0140035 0)
(-0.0246754 0.0128484 0)
(-0.0274727 0.0114848 0)
(-0.0299392 0.0099478 0)
(-0.0320408 0.00825771 0)
(-0.0337465 0.00642893 0)
(-0.0350277 0.00447437 0)
(-0.0358576 0.00240797 0)
(-0.0362119 0.00024631 0)
(-0.0360687 -0.00198999 0)
(-0.0354096 -0.00427503 0)
(-0.0342215 -0.00657599 0)
(-0.0324986 -0.00885115 0)
(-0.0302449 -0.0110468 0)
(-0.0274789 -0.0130921 0)
(-0.0242385 -0.014891 0)
(-0.020589 -0.0163102 0)
(-0.0166332 -0.017165 0)
(-0.0125261 -0.0172094 0)
(-0.00848549 -0.016144 0)
(-0.00478465 -0.0136563 0)
(-0.00178967 -0.00950293 0)
(-0.00026177 -0.00363549 0)
(-0.000275348 0.00432778 0)
(-0.00178828 0.0108988 0)
(-0.004673 0.0153233 0)
(-0.00816828 0.0178773 0)
(-0.011943 0.0189801 0)
(-0.0157822 0.0190492 0)
(-0.0195316 0.0184193 0)
(-0.0230903 0.01732 0)
(-0.0263914 0.0158903 0)
(-0.0293863 0.014208 0)
(-0.0320353 0.0123153 0)
(-0.0343041 0.0102367 0)
(-0.0361608 0.00798893 0)
(-0.0375751 0.00558672 0)
(-0.038518 0.00304568 0)
(-0.0389614 0.000384361 0)
(-0.0388789 -0.00237394 0)
(-0.0382464 -0.00519941 0)
(-0.0370441 -0.00805335 0)
(-0.0352589 -0.0108854 0)
(-0.0328881 -0.0136292 0)
(-0.0299443 -0.0161961 0)
(-0.0264632 -0.0184649 0)
(-0.0225124 -0.0202669 0)
(-0.0182042 -0.0213702 0)
(-0.0137119 -0.021467 0)
(-0.00928162 -0.0201833 0)
(-0.00522214 -0.0171247 0)
(-0.00194273 -0.0119711 0)
(-0.000279535 -0.0046207 0)
(-0.000293462 0.00531595 0)
(-0.00191598 0.0132854 0)
(-0.0050135 0.0185962 0)
(-0.0087644 0.0216299 0)
(-0.0128108 0.0229168 0)
(-0.0169222 0.02297 0)
(-0.0209348 0.0221944 0)
(-0.0247437 0.0208647 0)
(-0.0282805 0.0191463 0)
(-0.0314963 0.0171309 0)
(-0.0343518 0.0148682 0)
(-0.0368126 0.012386 0)
(-0.0388461 0.009703 0)
(-0.0404207 0.00683489 0)
(-0.0415047 0.00379779 0)
(-0.0420661 0.000610897 0)
(-0.0420726 -0.0027012 0)
(-0.0414928 -0.00610605 0)
(-0.0402979 -0.00956006 0)
(-0.0384646 -0.0130045 0)
(-0.0359799 -0.0163598 0)
(-0.0328479 -0.0195169 0)
(-0.029099 -0.0223246 0)
(-0.0248023 -0.0245727 0)
(-0.0200809 -0.0259722 0)
(-0.0151313 -0.0261432 0)
(-0.0102356 -0.0246263 0)
(-0.00574728 -0.0209371 0)
(-0.00212816 -0.0146752 0)
(-0.000302138 -0.00569129 0)
(-0.000315678 0.00637682 0)
(-0.00206587 0.0158522 0)
(-0.0054075 0.0221155 0)
(-0.00944971 0.0256612 0)
(-0.0138046 0.0271414 0)
(-0.0182242 0.0271742 0)
(-0.0225345 0.0262413 0)
(-0.026626 0.0246669 0)
(-0.0304294 0.0226447 0)
(-0.033896 0.0202815 0)
(-0.0369873 0.0176341 0)
(-0.0396695 0.0147339 0)
(-0.0419101 0.0116004 0)
(-0.0436765 0.00824902 0)
(-0.0449344 0.00469507 0)
(-0.0456473 0.00095658 0)
(-0.0457765 -0.00294259 0)
(-0.0452812 -0.0069694 0)
(-0.0441208 -0.011077 0)
(-0.0422586 -0.0151994 0)
(-0.0396668 -0.0192431 0)
(-0.0363361 -0.0230761 0)
(-0.0322877 -0.0265118 0)
(-0.0275896 -0.0292887 0)
(-0.0223769 -0.0310488 0)
(-0.0168743 -0.0313254 0)
(-0.0114099 -0.02956 0)
(-0.00639494 -0.0251684 0)
(-0.00235787 -0.0176677 0)
(-0.000330717 -0.00686778 0)
(-0.000342722 0.00752434 0)
(-0.00224357 0.0186294 0)
(-0.00586964 0.0259197 0)
(-0.0102484 0.0300127 0)
(-0.0149571 0.0316951 0)
(-0.019728 0.0317008 0)
(-0.024376 0.0305967 0)
(-0.028787 0.0287608 0)
(-0.0328909 0.026418 0)
(-0.0366404 0.023691 0)
(-0.0399988 0.0206442 0)
(-0.0429338 0.0173118 0)
(-0.0454141 0.0137135 0)
(-0.0474068 0.00986316 0)
(-0.0488757 0.00577317 0)
(-0.0497799 0.00145807 0)
(-0.0500731 -0.00306176 0)
(-0.0497039 -0.0077557 0)
(-0.0486167 -0.0125766 0)
(-0.0467567 -0.0174529 0)
(-0.0440758 -0.0222779 0)
(-0.0405442 -0.0268938 0)
(-0.0361673 -0.0310719 0)
(-0.0310074 -0.0344875 0)
(-0.0252107 -0.0366967 0)
(-0.019036 -0.0371259 0)
(-0.0128705 -0.0350986 0)
(-0.00720089 -0.0299183 0)
(-0.00264315 -0.0210174 0)
(-0.00036596 -0.00817592 0)
(-0.000375191 0.00877491 0)
(-0.00245367 0.0216536 0)
(-0.00641184 0.0300551 0)
(-0.0111798 0.0347332 0)
(-0.016294 0.036625 0)
(-0.021464 0.0365938 0)
(-0.0264924 0.0353005 0)
(-0.0312609 0.0331829 0)
(-0.0356998 0.0304999 0)
(-0.0397641 0.0273915 0)
(-0.0434203 0.0239301 0)
(-0.0466396 0.0201523 0)
(-0.049393 0.016077 0)
(-0.0516489 0.0117149 0)
(-0.0533703 0.00707322 0)
(-0.0545125 0.00215991 0)
(-0.0550217 -0.00301188 0)
(-0.0548338 -0.00841827 0)
(-0.0538755 -0.0140161 0)
(-0.0520683 -0.0197324 0)
(-0.0493361 -0.0254488 0)
(-0.0456192 -0.0309802 0)
(-0.0408965 -0.036048 0)
(-0.0352156 -0.0402493 0)
(-0.0287301 -0.0430311 0)
(-0.0217383 -0.0436849 0)
(-0.0147026 -0.0413888 0)
(-0.00821147 -0.0353162 0)
(-0.00299833 -0.0248133 0)
(-0.000408575 -0.00964709 0)
(-0.000413824 0.0101473 0)
(-0.00270122 0.0249671 0)
(-0.00704663 0.0345748 0)
(-0.0122637 0.0398779 0)
(-0.0178405 0.0419834 0)
(-0.0234606 0.0418998 0)
(-0.0289135 0.0403936 0)
(-0.0340772 0.0379692 0)
(-0.0388836 0.0349228 0)
(-0.0432921 0.0314136 0)
(-0.0472744 0.0275222 0)
(-0.0508071 0.0232874 0)
(-0.0538662 0.0187266 0)
(-0.0564235 0.013845 0)
(-0.058443 0.00864232 0)
(-0.0598777 0.00311612 0)
(-0.0606671 -0.00273251 0)
(-0.0607336 -0.00889255 0)
(-0.0599831 -0.0153314 0)
(-0.0583075 -0.0219812 0)
(-0.0555931 -0.0287166 0)
(-0.0517368 -0.0353256 0)
(-0.046675 -0.0414723 0)
(-0.0404252 -0.0466571 0)
(-0.0331381 -0.0501867 0)
(-0.025154 -0.0511772 0)
(-0.0170309 -0.0486204 0)
(-0.00949559 -0.0415326 0)
(-0.00344486 -0.029172 0)
(-0.000459602 -0.0113205 0)
(-0.000459692 0.0116632 0)
(-0.0029928 0.0286189 0)
(-0.00778961 0.0395396 0)
(-0.0135239 0.0455084 0)
(-0.0196259 0.0478262 0)
(-0.0257498 0.0476671 0)
(-0.0316711 0.0459166 0)
(-0.0372652 0.0431536 0)
(-0.042468 0.0397161 0)
(-0.0472453 0.0357842 0)
(-0.0515772 0.0314475 0)
(-0.0554484 0.0267469 0)
(-0.0588428 0.0216969 0)
(-0.0617388 0.0162962 0)
(-0.0641045 0.0105332 0)
(-0.0658937 0.00439123 0)
(-0.0670412 -0.00214686 0)
(-0.0674567 -0.00909095 0)
(-0.0670227 -0.0164285 0)
(-0.0655965 -0.024107 0)
(-0.0630149 -0.032004 0)
(-0.0591141 -0.039885 0)
(-0.0537643 -0.0473519 0)
(-0.0469264 -0.0537872 0)
(-0.038727 -0.0583165 0)
(-0.0295426 -0.0598217 0)
(-0.0200493 -0.0570447 0)
(-0.0111637 -0.0487995 0)
(-0.00401796 -0.0342529 0)
(-0.000520912 -0.0132477 0)
(-0.000514407 0.0133486 0)
(-0.00333768 0.0326669 0)
(-0.00866194 0.0450199 0)
(-0.0149914 0.0516936 0)
(-0.0216877 0.0542137 0)
(-0.0283713 0.0539449 0)
(-0.0348034 0.051908 0)
(-0.0408589 0.0487663 0)
(-0.0464804 0.0449039 0)
(-0.051644 0.0405243 0)
(-0.0563409 0.0357271 0)
(-0.060568 0.0305553 0)
(-0.0643211 0.0250199 0)
(-0.0675892 0.0191108 0)
(-0.0703494 0.0128029 0)
(-0.0725606 0.00605988 0)
(-0.0741574 -0.00116081 0)
(-0.07504 -0.00889808 0)
(-0.0750681 -0.0171743 0)
(-0.0740599 -0.0259682 0)
(-0.0717918 -0.0351762 0)
(-0.0680168 -0.0445546 0)
(-0.0625062 -0.0536443 0)
(-0.055122 -0.06169 0)
(-0.0459247 -0.0675848 0)
(-0.0353037 -0.0698916 0)
(-0.02407 -0.0670012 0)
(-0.013401 -0.0574457 0)
(-0.00477914 -0.0402864 0)
(-0.000596506 -0.0155014 0)
(-0.000580423 0.0152353 0)
(-0.00374921 0.0371813 0)
(-0.00969321 0.0510982 0)
(-0.0167089 0.0585113 0)
(-0.0240756 0.0612105 0)
(-0.031376 0.0607821 0)
(-0.0383579 0.0584026 0)
(-0.0448988 0.0548305 0)
(-0.050952 0.0505017 0)
(-0.0565079 0.0456455 0)
(-0.0615736 0.0403726 0)
(-0.0661624 0.0347285 0)
(-0.0702867 0.0287201 0)
(-0.0739518 0.0223275 0)
(-0.0771498 0.0155094 0)
(-0.0798519 0.008205 0)
(-0.0819985 0.000339526 0)
(-0.0834885 -0.00816658 0)
(-0.0841655 -0.0173877 0)
(-0.0838073 -0.0273562 0)
(-0.0821209 -0.0380147 0)
(-0.0787531 -0.0491366 0)
(-0.0733325 -0.0602175 0)
(-0.0655585 -0.0703529 0)
(-0.0553506 -0.0781451 0)
(-0.0430503 -0.0817205 0)
(-0.0295991 -0.0789558 0)
(-0.0165234 -0.0679531 0)
(-0.00583962 -0.0476224 0)
(-0.000695685 -0.0181928 0)
(-0.000661555 0.0173638 0)
(-0.0042471 0.0422492 0)
(-0.0109256 0.0578738 0)
(-0.0187352 0.0660504 0)
(-0.0268563 0.0688852 0)
(-0.0348306 0.0682256 0)
(-0.0423947 0.0654284 0)
(-0.0494339 0.0613595 0)
(-0.0559178 0.0565129 0)
(-0.0618564 0.051146 0)
(-0.0672777 0.0453817 0)
(-0.0722165 0.0392685 0)
(-0.0767072 0.0328096 0)
(-0.0807781 0.025975 0)
(-0.0844439 0.0187053 0)
(-0.0876971 0.0109129 0)
(-0.0904954 0.00248367 0)
(-0.0927494 -0.0067171 0)
(-0.0942991 -0.0168328 0)
(-0.0948913 -0.0279795 0)
(-0.0941625 -0.0401864 0)
(-0.0916333 -0.0532914 0)
(-0.0867392 -0.0667876 0)
(-0.0789281 -0.0796341 0)
(-0.0678547 -0.09009 0)
(-0.0536867 -0.0956912 0)
(-0.0374353 -0.0935443 0)
(-0.0210623 -0.0810432 0)
(-0.00740061 -0.0568154 0)
(-0.000839877 -0.0215053 0)
(-0.000763927 0.0197881 0)
(-0.004861 0.0479825 0)
(-0.0124203 0.0654681 0)
(-0.0211523 0.074413 0)
(-0.0301198 0.07731 0)
(-0.0388214 0.0763177 0)
(-0.0469886 0.0730023 0)
(-0.0545221 0.0683519 0)
(-0.0614155 0.0629233 0)
(-0.0677046 0.0570044 0)
(-0.0734439 0.0507313 0)
(-0.0786952 0.0441562 0)
(-0.083521 0.0372795 0)
(-0.0879788 0.0300618 0)
(-0.092115 0.0224266 0)
(-0.0959549 0.0142582 0)
(-0.09949 0.0053989 0)
(-0.102661 -0.0043514 0)
(-0.105325 -0.0152249 0)
(-0.107223 -0.0274565 0)
(-0.107937 -0.0412176 0)
(-0.106854 -0.0564865 0)
(-0.103169 -0.0728387 0)
(-0.0959701 -0.0891608 0)
(-0.0844647 -0.103352 0)
(-0.0684219 -0.11218 0)
(-0.0487473 -0.1116 0)
(-0.0278649 -0.0977894 0)
(-0.00981398 -0.068757 0)
(-0.00107588 -0.0257564 0)
(-0.000897761 0.0225824 0)
(-0.00563654 0.0545285 0)
(-0.0142661 0.074032 0)
(-0.0240748 0.0837165 0)
(-0.0339854 0.0865573 0)
(-0.0434575 0.0850898 0)
(-0.052228 0.0811239 0)
(-0.0602252 0.0757835 0)
(-0.0674762 0.0696933 0)
(-0.0740505 0.063172 0)
(-0.0800348 0.0563691 0)
(-0.0855233 0.0493412 0)
(-0.0906115 0.0420875 0)
(-0.0953931 0.0345619 0)
(-0.099954 0.0266736 0)
(-0.104365 0.0182818 0)
(-0.10867 0.00918618 0)
(-0.112863 -0.00088215 0)
(-0.116854 -0.0122592 0)
(-0.120417 -0.0253369 0)
(-0.123118 -0.040497 0)
(-0.124239 -0.0579659 0)
(-0.12271 -0.0775466 0)
(-0.117148 -0.0982021 0)
(-0.106089 -0.11754 0)
(-0.0885621 -0.131414 0)
(-0.065006 -0.134106 0)
(-0.0381493 -0.119716 0)
(-0.0136585 -0.0848562 0)
(-0.0015 -0.0315005 0)
(-0.00108091 0.0258532 0)
(-0.00664563 0.0620859 0)
(-0.0165943 0.0837547 0)
(-0.0276606 0.0940925 0)
(-0.0386073 0.0966933 0)
(-0.0488676 0.0945523 0)
(-0.0582038 0.0897623 0)
(-0.0665894 0.0835954 0)
(-0.0740978 0.0767449 0)
(-0.0808404 0.0695587 0)
(-0.0869422 0.0621982 0)
(-0.0925338 0.0547249 0)
(-0.0977482 0.0471387 0)
(-0.102719 0.0393906 0)
(-0.107578 0.0313821 0)
(-0.112452 0.0229552 0)
(-0.117453 0.0138759 0)
(-0.122653 0.00381284 0)
(-0.128057 -0.00768231 0)
(-0.133528 -0.0211835 0)
(-0.138691 -0.0373533 0)
(-0.142783 -0.0568027 0)
(-0.144507 -0.0797744 0)
(-0.141955 -0.105574 0)
(-0.132776 -0.131742 0)
(-0.114843 -0.15319 0)
(-0.0875427 -0.161959 0)
(-0.0533764 -0.148762 0)
(-0.0198108 -0.107216 0)
(-0.00230276 -0.0396854 0)
(-0.00134605 0.0297603 0)
(-0.00800429 0.0709281 0)
(-0.0195973 0.0948712 0)
(-0.0321223 0.105679 0)
(-0.04417 0.107759 0)
(-0.0551793 0.104673 0)
(-0.0649717 0.0988336 0)
(-0.0735911 0.0916694 0)
(-0.0811731 0.0839372 0)
(-0.0878806 0.0760083 0)
(-0.0938825 0.0680521 0)
(-0.099349 0.0601336 0)
(-0.104452 0.0522548 0)
(-0.109365 0.044369 0)
(-0.114268 0.0363781 0)
(-0.119345 0.0281203 0)
(-0.124784 0.0193455 0)
(-0.130757 0.00967909 0)
(-0.137394 -0.00142836 0)
(-0.144706 -0.0147471 0)
(-0.152469 -0.0312629 0)
(-0.160001 -0.0521146 0)
(-0.165905 -0.078247 0)
(-0.167822 -0.109695 0)
(-0.162439 -0.144365 0)
(-0.146125 -0.17647 0)
(-0.116484 -0.195414 0)
(-0.0747164 -0.186883 0)
(-0.0294655 -0.138661 0)
(-0.00385313 -0.0518696 0)
(-0.00175581 0.0345543 0)
(-0.00990444 0.0814348 0)
(-0.0235562 0.107663 0)
(-0.0377294 0.118595 0)
(-0.0508584 0.119733 0)
(-0.0624536 0.115329 0)
(-0.072451 0.108153 0)
(-0.081 0.099781 0)
(-0.0883191 0.0910196 0)
(-0.0946342 0.0822517 0)
(-0.100164 0.0736473 0)
(-0.105121 0.0652708 0)
(-0.109714 0.0571263 0)
(-0.114153 0.049172 0)
(-0.118659 0.0413191 0)
(-0.123463 0.0334164 0)
(-0.128819 0.0252207 0)
(-0.134997 0.0163448 0)
(-0.142264 0.0061773 0)
(-0.150809 -0.00622088 0)
(-0.160635 -0.0221971 0)
(-0.171318 -0.0434879 0)
(-0.181602 -0.0719931 0)
(-0.188969 -0.108926 0)
(-0.189384 -0.153194 0)
(-0.177686 -0.198964 0)
(-0.14907 -0.233151 0)
(-0.101893 -0.235014 0)
(-0.0439647 -0.182348 0)
(-0.00683145 -0.0704916 0)
(-0.0024352 0.0406455 0)
(-0.0126706 0.0941303 0)
(-0.02887 0.122432 0)
(-0.0447793 0.132872 0)
(-0.058757 0.132441 0)
(-0.0705114 0.126218 0)
(-0.0801795 0.11734 0)
(-0.0880666 0.107504 0)
(-0.0945023 0.097539 0)
(-0.0997915 0.087819 0)
(-0.104212 0.0785017 0)
(-0.108021 0.0696425 0)
(-0.111463 0.0612425 0)
(-0.114774 0.053264 0)
(-0.118197 0.0456305 0)
(-0.12199 0.0382124 0)
(-0.126439 0.0307943 0)
(-0.131869 0.0230121 0)
(-0.138647 0.0142465 0)
(-0.147138 0.00346095 0)
(-0.157593 -0.0110002 0)
(-0.169973 -0.0314872 0)
(-0.183517 -0.0609483 0)
(-0.196093 -0.102147 0)
(-0.203633 -0.155716 0)
(-0.200021 -0.21687 0)
(-0.177958 -0.271158 0)
(-0.131421 -0.291254 0)
(-0.0640542 -0.240531 0)
(-0.0123069 -0.0990679 0)
(-0.00364135 0.0487355 0)
(-0.0168615 0.109715 0)
(-0.0360707 0.139409 0)
(-0.0534745 0.148292 0)
(-0.0675791 0.145367 0)
(-0.0785194 0.136659 0)
(-0.0867698 0.125628 0)
(-0.0928652 0.114032 0)
(-0.0972888 0.102674 0)
(-0.100451 0.0918911 0)
(-0.102703 0.0818066 0)
(-0.104351 0.0724512 0)
(-0.105668 0.0638098 0)
(-0.106903 0.0558387 0)
(-0.108298 0.0484673 0)
(-0.110097 0.0415867 0)
(-0.112566 0.0350181 0)
(-0.116017 0.0284468 0)
(-0.120828 0.0213005 0)
(-0.127448 0.012545 0)
(-0.136338 0.00039174 0)
(-0.147885 -0.0180017 0)
(-0.162092 -0.0464736 0)
(-0.177912 -0.0893945 0)
(-0.192338 -0.14969 0)
(-0.199595 -0.225043 0)
(-0.190799 -0.301958 0)
(-0.154922 -0.348752 0)
(-0.0880153 -0.312018 0)
(-0.0213699 -0.141812 0)
(-0.00590968 0.0600835 0)
(-0.0234421 0.12904 0)
(-0.0457502 0.158478 0)
(-0.0635347 0.164016 0)
(-0.0759808 0.15727 0)
(-0.0840507 0.14522 0)
(-0.0887702 0.131519 0)
(-0.091015 0.11787 0)
(-0.0914842 0.104981 0)
(-0.0907274 0.0930986 0)
(-0.0891807 0.0822773 0)
(-0.0871949 0.0724948 0)
(-0.0850564 0.063696 0)
(-0.0830039 0.0558101 0)
(-0.0812426 0.048754 0)
(-0.0799614 0.042423 0)
(-0.0793508 0.036664 0)
(-0.0796282 0.0312135 0)
(-0.0810741 0.0255786 0)
(-0.0840867 0.018826 0)
(-0.0892297 0.00924968 0)
(-0.097192 -0.00605623 0)
(-0.108775 -0.0314619 0)
(-0.124484 -0.0724528 0)
(-0.143515 -0.134284 0)
(-0.162261 -0.218372 0)
(-0.172402 -0.315481 0)
(-0.159025 -0.394775 0)
(-0.109031 -0.388658 0)
(-0.0337247 -0.201846 0)
(-0.0103397 0.0770987 0)
(-0.0340209 0.152896 0)
(-0.0580949 0.178523 0)
(-0.0730106 0.177824 0)
(-0.0798238 0.165458 0)
(-0.0809895 0.1491 0)
(-0.0783931 0.132289 0)
(-0.0733845 0.116482 0)
(-0.0669262 0.102157 0)
(-0.0597055 0.0893939 0)
(-0.0522115 0.0781134 0)
(-0.0447934 0.0681988 0)
(-0.0377021 0.0595216 0)
(-0.0311138 0.0519568 0)
(-0.0251521 0.0453847 0)
(-0.0199056 0.0396811 0)
(-0.0154462 0.0346949 0)
(-0.0118513 0.0301957 0)
(-0.00924333 0.0257713 0)
(-0.00785792 0.0206428 0)
(-0.00815954 0.0133691 0)
(-0.0110152 0.00142082 0)
(-0.017755 -0.0193629 0)
(-0.0302051 -0.054694 0)
(-0.0502584 -0.11129 0)
(-0.0781163 -0.194505 0)
(-0.109202 -0.302468 0)
(-0.127919 -0.412752 0)
(-0.114263 -0.45328 0)
(-0.0453675 -0.278222 0)
(-0.0189937 0.104245 0)
(-0.0507119 0.180777 0)
(-0.0705747 0.195897 0)
(-0.0744146 0.184696 0)
(-0.0675728 0.164683 0)
(-0.0548353 0.143405 0)
(-0.0391519 0.123636 0)
(-0.0222942 0.106216 0)
(-0.0053465 0.0911857 0)
(0.0110362 0.0783226 0)
(0.0264767 0.0673499 0)
(0.040776 0.058007 0)
(0.0538369 0.0500658 0)
(0.0656396 0.0433317 0)
(0.0762125 0.0376361 0)
(0.0856136 0.0328242 0)
(0.093915 0.0287326 0)
(0.101183 0.0251471 0)
(0.107447 0.0217248 0)
(0.112627 0.0178559 0)
(0.116402 0.0124386 0)
(0.117921 0.00354431 0)
(0.115688 -0.0120372 0)
(0.107162 -0.039171 0)
(0.0885571 -0.084429 0)
(0.0557317 -0.155613 0)
(0.00670621 -0.258886 0)
(-0.047304 -0.387377 0)
(-0.088264 -0.482459 0)
(-0.0474155 -0.362436 0)
(-0.0338301 0.147096 0)
(-0.0710181 0.204845 0)
(-0.0662427 0.198825 0)
(-0.0415779 0.172852 0)
(-0.00818962 0.144852 0)
(0.0273118 0.120103 0)
(0.0618009 0.0994838 0)
(0.0939452 0.0826263 0)
(0.1232 0.0689001 0)
(0.149453 0.0577035 0)
(0.172803 0.048546 0)
(0.19345 0.0410327 0)
(0.211636 0.0348564 0)
(0.227617 0.029776 0)
(0.241647 0.0255975 0)
(0.253967 0.0221559 0)
(0.264799 0.019293 0)
(0.274325 0.0168249 0)
(0.282666 0.0144871 0)
(0.289816 0.0118403 0)
(0.295527 0.00812087 0)
(0.29897 0.00203259 0)
(0.298694 -0.00840475 0)
(0.291943 -0.0264658 0)
(0.274084 -0.0569671 0)
(0.238824 -0.107201 0)
(0.178271 -0.187855 0)
(0.094569 -0.311187 0)
(-0.0159445 -0.452643 0)
(-0.0252483 -0.428817 0)
(-0.0370143 0.237192 0)
(-0.0446512 0.206782 0)
(0.0332321 0.15651 0)
(0.106269 0.119685 0)
(0.173531 0.0915769 0)
(0.232488 0.0704497 0)
(0.282824 0.0548636 0)
(0.32541 0.0432965 0)
(0.361361 0.0345733 0)
(0.391729 0.0278955 0)
(0.417425 0.0227267 0)
(0.439219 0.0186905 0)
(0.457761 0.0155178 0)
(0.473597 0.0130129 0)
(0.487185 0.0110288 0)
(0.498909 0.00944808 0)
(0.509081 0.00816567 0)
(0.517936 0.00706737 0)
(0.525606 0.00600083 0)
(0.53206 0.00472995 0)
(0.536999 0.00287205 0)
(0.539691 -0.000211924 0)
(0.538747 -0.00543464 0)
(0.531488 -0.0144452 0)
(0.513122 -0.0296143 0)
(0.477483 -0.0551953 0)
(0.412428 -0.0992538 0)
(0.313795 -0.186577 0)
(0.132025 -0.33703 0)
(0.0568161 -0.414387 0)
(0.231341 0.158488 0)
(0.292459 0.11782 0)
(0.44382 0.0767418 0)
(0.544264 0.0513373 0)
(0.612269 0.0347323 0)
(0.661836 0.0236114 0)
(0.699076 0.0162577 0)
(0.727433 0.0114058 0)
(0.74935 0.00816213 0)
(0.766569 0.00595552 0)
(0.780294 0.0044315 0)
(0.791375 0.00336544 0)
(0.800431 0.00261186 0)
(0.807924 0.00207502 0)
(0.814202 0.00169027 0)
(0.819531 0.00141152 0)
(0.824105 0.00120182 0)
(0.82805 0.00102475 0)
(0.831414 0.000835304 0)
(0.834129 0.000569313 0)
(0.835943 0.00013668 0)
(0.836328 -0.000596175 0)
(0.834177 -0.00185553 0)
(0.827792 -0.00408513 0)
(0.813703 -0.00781521 0)
(0.78857 -0.0142429 0)
(0.738544 -0.0252897 0)
(0.662582 -0.049402 0)
(0.458483 -0.111734 0)
(0.31436 -0.179248 0)
)
;

boundaryField
{
    movingWall
    {
        type            fixedValue;
        value           uniform (1 0 0);
    }
    fixedWalls
    {
        type            noSlip;
    }
    frontAndBack
    {
        type            empty;
    }
}


// ************************************************************************* //
