/*--------------------------------*- C++ -*----------------------------------*\
  =========                 |
  \\      /  F ield         | OpenFOAM: The Open Source CFD Toolbox
   \\    /   O peration     | Website:  https://openfoam.org
    \\  /    A nd           | Version:  7
     \\/     M anipulation  |
\*---------------------------------------------------------------------------*/
FoamFile
{
    version     2.0;
    format      ascii;
    class       volScalarField;
    location    "0.02";
    object      p;
}
// * * * * * * * * * * * * * * * * * * * * * * * * * * * * * * * * * * * * * //

dimensions      [0 2 -2 0 0 0 0];

internalField   nonuniform List<scalar> 
1936
(
7.23941e-05
-1745.57
-4176.48
-2891.68
-1226.29
-1065.35
-1791.61
-3324.98
-3620.01
-2576.66
-1705.46
-1403.73
-1508.72
-1985.47
-2578.76
-2855.6
-2687.49
-2326.79
-2040.3
-1922.56
-1965.21
-2133.74
-2360.73
-2539.45
-2566.76
-2394.94
-2090.64
-1813.13
-1696.3
-1824.59
-2257.08
-2929.22
-3278.89
-2632.37
-1496.48
-980.476
-1105.99
-2149.15
-3710.23
-3148.26
-1313.03
-709.964
-1470.01
-3495.1
-56.426
-1733.69
-4122.05
-2872.31
-1262.07
-1108.85
-1796.94
-3288.71
-3583.59
-2568.88
-1723.75
-1431.67
-1528.22
-1986.01
-2562.62
-2834.13
-2672.96
-2324.04
-2046.4
-1931.72
-1972.2
-2135.11
-2355.29
-2528.44
-2554.19
-2386.41
-2090.65
-1822.77
-1711.89
-1837.7
-2257.17
-2908.71
-3244.84
-2610.25
-1509.79
-1020.89
-1140.46
-2146.26
-3669.99
-3112.98
-1334.58
-765.943
-1484.75
-3454.73
-203.503
-1723.84
-3939.95
-2828.64
-1369.66
-1218.19
-1821.13
-3181.38
-3474.36
-2556.32
-1778.8
-1504.04
-1580.53
-1989.63
-2518.21
-2773.42
-2632.92
-2317.32
-2063.23
-1956.29
-1991.28
-2139.3
-2340.52
-2497.95
-2519.18
-2363.03
-2091.29
-1848.83
-1753.21
-1874.14
-2261.28
-2853.11
-3145.05
-2549.29
-1550.55
-1123.65
-1237.92
-2155.56
-3542.96
-3010.6
-1401.46
-911.302
-1540.97
-3331.68
-421.486
-1719.48
-3660.7
-2756.82
-1519.79
-1373.98
-1865.11
-3027.89
-3309.33
-2535.48
-1856.62
-1605.44
-1656.79
-1998.6
-2456.48
-2686.44
-2575.59
-2307.9
-2087.15
-1991.07
-2018.49
-2145.54
-2319.66
-2454.51
-2469.44
-2330.43
-2093.45
-1886.74
-1811.73
-1925.69
-2266.66
-2770.98
-2999.68
-2466.63
-1615.81
-1268.64
-1375.43
-2167.72
-3348.48
-2864.42
-1503.52
-1113.88
-1625.18
-3147.91
-674.786
-1724.74
-3339.68
-2666.57
-1679.64
-1547.51
-1922.73
-2856.07
-3115
-2506.15
-1941.85
-1719.35
-1746.25
-2013.99
-2388.45
-2586.6
-2508.37
-2295.47
-2113.32
-2030.28
-2049.57
-2152.63
-2295.21
-2403.91
-2412.06
-2293.77
-2097.66
-1931.26
-1878.33
-1982.81
-2269.55
-2672.92
-2832.58
-2378.74
-1697.82
-1432.15
-1527.73
-2178.52
-3122.35
-2703.51
-1622.46
-1332.08
-1721.56
-2939.94
-938.656
-1743.45
-3018.82
-2566.86
-1826.37
-1716.71
-1987.17
-2687.94
-2913.61
-2467.78
-2022.3
-1833.08
-1839.96
-2035.86
-2323.38
-2485.79
-2437.95
-2280
-2137.81
-2069.19
-2080.93
-2159.51
-2269.39
-2351.35
-2353.4
-2257.61
-2104.01
-1978.25
-1945.71
-2037.75
-2266.84
-2568.34
-2664.34
-2298.93
-1788.3
-1596.55
-1676.36
-2184.71
-2892.55
-2550.02
-1742.73
-1539.2
-1817.66
-2735.61
-1195.68
-1778.2
-2728.71
-2465.53
-1946.74
-1865.24
-2050.17
-2539.68
-2723.22
-2422.1
-2089.96
-1936.3
-1929.87
-2062.38
-2268.25
-2393.5
-2370.35
-2262.13
-2157.8
-2104.04
-2109.55
-2165.31
-2244.21
-2301.31
-2298.68
-2225.34
-2112.42
-2024
-2007.98
-2084.52
-2257.47
-2465.99
-2511.38
-2235.95
-1878.63
-1747.56
-1809.39
-2186.03
-2679.97
-2418.01
-1853.3
-1719.2
-1905.56
-2553.62
-1433.41
-1828.9
-2489.33
-2367.83
-2036.12
-1983.09
-2104.01
-2420.54
-2557.32
-2371.47
-2140.93
-2022.91
-2009.42
-2090.77
-2226.46
-2316.31
-2310.22
-2242.89
-2171.94
-2132.47
-2133.45
-2169.4
-2221.18
-2257.17
-2251.72
-2199.21
-2122.21
-2065.23
-2060.74
-2120.53
-2241.88
-2373.28
-2384.7
-2192.7
-1960.97
-1875.85
-1921.21
-2182.27
-2499.16
-2314.8
-1947.04
-1864.21
-1981.11
-2404.3
-1641.75
-1890.97
-2311.61
-2280.22
-2094.18
-2066.8
-2143.69
-2332.38
-2423.94
-2320.61
-2174.17
-2089.92
-2073.92
-2117.66
-2198.5
-2257.43
-2260.75
-2223.84
-2180.05
-2153.27
-2151.39
-2171.47
-2201.44
-2221.1
-2214.68
-2180.02
-2132.27
-2099.61
-2101.74
-2144.81
-2222.38
-2295.95
-2289.49
-2167.36
-2029.37
-1977.41
-2009.03
-2174.33
-2358.02
-2240.7
-2021.43
-1972.62
-2041.77
-2292.17
-1811.85
-1955.89
-2196.88
-2209.89
-2125.38
-2118.7
-2167.82
-2271.25
-2325.31
-2274.53
-2191.11
-2136.66
-2121.53
-2140.3
-2182.35
-2216.73
-2223.36
-2206.61
-2182.93
-2166.46
-2163.03
-2171.58
-2185.67
-2194
-2188.05
-2167.49
-2141.38
-2125.69
-2130.64
-2158.49
-2202.23
-2237.11
-2224.96
-2155.34
-2080.95
-2051.97
-2071.96
-2164.72
-2258.31
-2192.64
-2075.63
-2047.92
-2086.21
-2216.85
-1937.69
-2014.04
-2136.43
-2162.42
-2138.1
-2145.5
-2177.93
-2230.43
-2258.4
-2237.15
-2196.02
-2165.1
-2152.8
-2157.38
-2174.56
-2191.59
-2197.73
-2192.51
-2182.02
-2172.99
-2168.98
-2170.17
-2174.06
-2175.57
-2170.89
-2160.41
-2148.77
-2143.33
-2148.56
-2164.09
-2184.49
-2196.84
-2185.92
-2151.14
-2116.27
-2101.63
-2112.26
-2156.14
-2196.33
-2165.1
-2110.92
-2096.3
-2115.16
-2173.25
-2022.36
-2059.1
-2114.72
-2137.95
-2141.95
-2155.9
-2178.04
-2203.33
-2216.5
-2209.95
-2193.75
-2179.18
-2170.71
-2168.44
-2172.02
-2178.11
-2182.12
-2182.15
-2178.91
-2174.5
-2170.59
-2167.93
-2166.38
-2164.57
-2161.36
-2157.25
-2153.91
-2153.77
-2157.81
-2164.68
-2171.08
-2172.53
-2165.27
-2150.9
-2137.63
-2131.3
-2134.93
-2150.51
-2163.77
-2151.64
-2130.94
-2124.33
-2131.85
-2152.75
-2074.49
-2090.25
-2113.42
-2130.29
-2142.74
-2157.98
-2172.87
-2185.24
-2191.8
-2191.92
-2188.46
-2183.97
-2178.84
-2174.32
-2171.97
-2172.26
-2174
-2175.38
-2175.11
-2172.94
-2169.54
-2165.62
-2162.03
-2159.19
-2157.23
-2156.44
-2156.95
-2158.78
-2161.15
-2162.72
-2162.39
-2159.99
-2156.12
-2151.99
-2148.81
-2146.59
-2145.99
-2148.16
-2150.15
-2146.5
-2140.67
-2138.57
-2140.6
-2145.88
-2105.1
-2111.09
-2120.96
-2131.54
-2143.41
-2155.97
-2166.31
-2173.38
-2177.77
-2180.67
-2182.57
-2182.85
-2180.71
-2176.62
-2172.63
-2170.61
-2170.61
-2171.4
-2171.53
-2170.28
-2167.53
-2163.86
-2160.2
-2157.54
-2156.42
-2156.87
-2158.46
-2160.33
-2161.26
-2160.31
-2157.71
-2154.82
-2153.07
-2153.06
-2153.58
-2152.84
-2150.54
-2148.02
-2146.41
-2145.4
-2144.76
-2144.62
-2144.71
-2145.03
-2123.09
-2125.08
-2129.59
-2136.13
-2144.67
-2153.65
-2160.96
-2166.03
-2169.94
-2173.75
-2177.26
-2179.28
-2178.83
-2176.21
-2172.97
-2170.62
-2169.56
-2169.21
-2168.78
-2167.68
-2165.67
-2162.87
-2159.96
-2157.9
-2157.22
-2157.82
-2159.13
-2160.25
-2160.16
-2158.41
-2155.7
-2153.37
-2152.72
-2153.71
-2154.87
-2154.45
-2151.88
-2148.54
-2146.24
-2145.71
-2146.24
-2146.63
-2146.32
-2145.77
-2134.05
-2134.64
-2136.94
-2140.93
-2146.47
-2152.47
-2157.7
-2161.88
-2165.6
-2169.36
-2172.82
-2175.16
-2175.69
-2174.56
-2172.62
-2170.69
-2169.15
-2168
-2167.04
-2165.99
-2164.53
-2162.58
-2160.52
-2159.02
-2158.45
-2158.66
-2159.21
-2159.47
-2158.86
-2157.22
-2155.13
-2153.58
-2153.24
-2153.88
-2154.5
-2153.91
-2151.83
-2149.18
-2147.19
-2146.49
-2146.68
-2146.91
-2146.71
-2146.33
-2141.11
-2141.34
-2142.69
-2145.15
-2148.63
-2152.55
-2156.37
-2159.84
-2163.16
-2166.42
-2169.35
-2171.5
-2172.52
-2172.42
-2171.5
-2170.1
-2168.59
-2167.24
-2166.18
-2165.24
-2164.13
-2162.74
-2161.3
-2160.16
-2159.51
-2159.26
-2159.12
-2158.75
-2157.92
-2156.6
-2155.14
-2154.05
-2153.63
-2153.66
-2153.6
-2152.84
-2151.26
-2149.38
-2147.83
-2146.99
-2146.76
-2146.74
-2146.65
-2146.52
-2146.08
-2146.29
-2147.2
-2148.78
-2150.99
-2153.59
-2156.33
-2159.11
-2161.84
-2164.46
-2166.79
-2168.62
-2169.76
-2170.13
-2169.77
-2168.88
-2167.73
-2166.68
-2165.83
-2165.03
-2164.11
-2163.04
-2161.96
-2161
-2160.23
-2159.6
-2159.01
-2158.29
-2157.37
-2156.29
-2155.19
-2154.29
-2153.69
-2153.25
-2152.72
-2151.84
-2150.59
-2149.21
-2148
-2147.16
-2146.71
-2146.52
-2146.45
-2146.41
-2149.98
-2150.19
-2150.85
-2151.91
-2153.36
-2155.12
-2157.08
-2159.16
-2161.24
-2163.23
-2165.01
-2166.46
-2167.46
-2167.93
-2167.84
-2167.35
-2166.73
-2166.15
-2165.59
-2164.91
-2164.09
-2163.22
-2162.35
-2161.48
-2160.59
-2159.73
-2158.89
-2158.01
-2157.05
-2156.06
-2155.12
-2154.27
-2153.52
-2152.81
-2152.03
-2151.1
-2150.01
-2148.88
-2147.9
-2147.15
-2146.64
-2146.37
-2146.25
-2146.2
-2153.26
-2153.42
-2153.88
-2154.59
-2155.56
-2156.77
-2158.15
-2159.63
-2161.12
-2162.53
-2163.79
-2164.85
-2165.61
-2166.01
-2166.08
-2165.95
-2165.75
-2165.52
-2165.17
-2164.59
-2163.87
-2163.13
-2162.41
-2161.58
-2160.63
-2159.64
-2158.7
-2157.76
-2156.78
-2155.82
-2154.92
-2154.08
-2153.24
-2152.39
-2151.51
-2150.58
-2149.6
-2148.64
-2147.8
-2147.14
-2146.65
-2146.33
-2146.16
-2146.08
-2155.99
-2156.08
-2156.38
-2156.85
-2157.52
-2158.34
-2159.28
-2160.27
-2161.25
-2162.18
-2163.02
-2163.73
-2164.26
-2164.59
-2164.74
-2164.82
-2164.85
-2164.78
-2164.5
-2163.99
-2163.38
-2162.75
-2162.09
-2161.3
-2160.35
-2159.33
-2158.37
-2157.43
-2156.47
-2155.52
-2154.62
-2153.77
-2152.92
-2152.04
-2151.14
-2150.26
-2149.39
-2148.57
-2147.84
-2147.25
-2146.79
-2146.48
-2146.3
-2146.21
-2158.1
-2158.16
-2158.36
-2158.7
-2159.17
-2159.73
-2160.35
-2160.97
-2161.58
-2162.15
-2162.67
-2163.12
-2163.47
-2163.72
-2163.88
-2164
-2164.05
-2163.98
-2163.7
-2163.23
-2162.65
-2162.05
-2161.41
-2160.65
-2159.75
-2158.78
-2157.85
-2156.95
-2156.04
-2155.14
-2154.26
-2153.41
-2152.58
-2151.74
-2150.91
-2150.11
-2149.35
-2148.66
-2148.04
-2147.53
-2147.14
-2146.87
-2146.71
-2146.64
-2159.54
-2159.61
-2159.78
-2160.05
-2160.4
-2160.8
-2161.22
-2161.62
-2162
-2162.35
-2162.69
-2162.98
-2163.21
-2163.38
-2163.48
-2163.52
-2163.48
-2163.31
-2162.96
-2162.45
-2161.84
-2161.2
-2160.53
-2159.79
-2158.95
-2158.06
-2157.19
-2156.34
-2155.5
-2154.66
-2153.83
-2153.03
-2152.26
-2151.5
-2150.77
-2150.07
-2149.44
-2148.87
-2148.37
-2147.96
-2147.64
-2147.43
-2147.3
-2147.24
-2160.47
-2160.54
-2160.7
-2160.92
-2161.2
-2161.5
-2161.82
-2162.11
-2162.39
-2162.65
-2162.89
-2163.09
-2163.24
-2163.33
-2163.34
-2163.28
-2163.12
-2162.83
-2162.39
-2161.81
-2161.15
-2160.46
-2159.76
-2159.02
-2158.24
-2157.41
-2156.59
-2155.79
-2155
-2154.21
-2153.44
-2152.69
-2151.98
-2151.3
-2150.67
-2150.08
-2149.55
-2149.09
-2148.7
-2148.38
-2148.13
-2147.95
-2147.83
-2147.77
-2161.11
-2161.17
-2161.29
-2161.45
-2161.67
-2161.92
-2162.17
-2162.43
-2162.66
-2162.88
-2163.06
-2163.21
-2163.29
-2163.3
-2163.23
-2163.07
-2162.82
-2162.45
-2161.97
-2161.36
-2160.69
-2159.98
-2159.27
-2158.54
-2157.79
-2157.01
-2156.21
-2155.43
-2154.65
-2153.89
-2153.14
-2152.43
-2151.76
-2151.15
-2150.59
-2150.09
-2149.65
-2149.28
-2148.97
-2148.71
-2148.51
-2148.35
-2148.23
-2148.16
-2161.6
-2161.63
-2161.7
-2161.8
-2161.94
-2162.13
-2162.34
-2162.55
-2162.76
-2162.94
-2163.09
-2163.18
-2163.21
-2163.16
-2163.02
-2162.81
-2162.51
-2162.13
-2161.66
-2161.09
-2160.45
-2159.77
-2159.08
-2158.37
-2157.63
-2156.86
-2156.06
-2155.26
-2154.48
-2153.71
-2152.96
-2152.27
-2151.63
-2151.05
-2150.55
-2150.11
-2149.73
-2149.42
-2149.16
-2148.95
-2148.77
-2148.62
-2148.5
-2148.43
-2161.98
-2161.99
-2162.01
-2162.04
-2162.11
-2162.22
-2162.36
-2162.53
-2162.69
-2162.83
-2162.94
-2163
-2162.99
-2162.91
-2162.75
-2162.52
-2162.23
-2161.88
-2161.46
-2160.96
-2160.39
-2159.77
-2159.11
-2158.41
-2157.67
-2156.89
-2156.08
-2155.26
-2154.44
-2153.65
-2152.91
-2152.21
-2151.58
-2151.03
-2150.55
-2150.14
-2149.8
-2149.51
-2149.28
-2149.08
-2148.92
-2148.77
-2148.65
-2148.57
-2162.31
-2162.29
-2162.27
-2162.24
-2162.24
-2162.28
-2162.36
-2162.46
-2162.56
-2162.66
-2162.72
-2162.75
-2162.73
-2162.64
-2162.49
-2162.28
-2162.02
-2161.72
-2161.37
-2160.95
-2160.45
-2159.89
-2159.26
-2158.57
-2157.83
-2157.03
-2156.19
-2155.33
-2154.49
-2153.67
-2152.91
-2152.21
-2151.58
-2151.02
-2150.55
-2150.14
-2149.81
-2149.52
-2149.29
-2149.1
-2148.93
-2148.78
-2148.66
-2148.57
-2162.61
-2162.58
-2162.52
-2162.47
-2162.43
-2162.42
-2162.44
-2162.47
-2162.5
-2162.53
-2162.54
-2162.55
-2162.52
-2162.46
-2162.33
-2162.16
-2161.93
-2161.67
-2161.36
-2161
-2160.57
-2160.05
-2159.45
-2158.76
-2158
-2157.18
-2156.3
-2155.41
-2154.53
-2153.69
-2152.91
-2152.19
-2151.54
-2150.97
-2150.48
-2150.06
-2149.7
-2149.4
-2149.15
-2148.95
-2148.78
-2148.63
-2148.51
-2148.42
-2162.93
-2162.88
-2162.83
-2162.79
-2162.76
-2162.73
-2162.7
-2162.65
-2162.59
-2162.54
-2162.5
-2162.48
-2162.45
-2162.4
-2162.3
-2162.15
-2161.95
-2161.71
-2161.44
-2161.12
-2160.72
-2160.24
-2159.65
-2158.96
-2158.17
-2157.31
-2156.39
-2155.45
-2154.53
-2153.65
-2152.82
-2152.07
-2151.4
-2150.8
-2150.28
-2149.82
-2149.43
-2149.1
-2148.83
-2148.61
-2148.43
-2148.29
-2148.18
-2148.11
-2163.29
-2163.27
-2163.26
-2163.27
-2163.28
-2163.25
-2163.17
-2163.04
-2162.9
-2162.76
-2162.65
-2162.58
-2162.52
-2162.47
-2162.38
-2162.24
-2162.06
-2161.84
-2161.58
-2161.28
-2160.92
-2160.46
-2159.87
-2159.16
-2158.33
-2157.41
-2156.43
-2155.42
-2154.44
-2153.5
-2152.63
-2151.83
-2151.11
-2150.47
-2149.9
-2149.4
-2148.96
-2148.6
-2148.29
-2148.05
-2147.87
-2147.73
-2147.65
-2147.6
-2163.75
-2163.79
-2163.86
-2163.95
-2164
-2163.97
-2163.84
-2163.64
-2163.41
-2163.17
-2162.98
-2162.83
-2162.73
-2162.65
-2162.55
-2162.41
-2162.23
-2162.01
-2161.78
-2161.5
-2161.16
-2160.7
-2160.11
-2159.36
-2158.47
-2157.47
-2156.41
-2155.33
-2154.27
-2153.26
-2152.32
-2151.47
-2150.69
-2149.99
-2149.36
-2148.8
-2148.31
-2147.89
-2147.55
-2147.28
-2147.08
-2146.96
-2146.9
-2146.88
-2164.39
-2164.54
-2164.69
-2164.84
-2164.91
-2164.85
-2164.68
-2164.4
-2164.08
-2163.74
-2163.44
-2163.21
-2163.03
-2162.9
-2162.76
-2162.61
-2162.43
-2162.22
-2162
-2161.75
-2161.42
-2160.97
-2160.36
-2159.56
-2158.6
-2157.51
-2156.35
-2155.18
-2154.03
-2152.95
-2151.94
-2151.02
-2150.18
-2149.4
-2148.7
-2148.07
-2147.5
-2147.01
-2146.61
-2146.29
-2146.07
-2145.96
-2145.92
-2145.92
-2165.25
-2165.54
-2165.77
-2165.93
-2165.97
-2165.84
-2165.61
-2165.25
-2164.85
-2164.39
-2163.98
-2163.64
-2163.38
-2163.19
-2163.01
-2162.84
-2162.64
-2162.45
-2162.24
-2162.01
-2161.7
-2161.25
-2160.61
-2159.76
-2158.72
-2157.54
-2156.28
-2155.01
-2153.77
-2152.61
-2151.53
-2150.54
-2149.62
-2148.77
-2147.99
-2147.26
-2146.6
-2146.01
-2145.52
-2145.12
-2144.85
-2144.72
-2144.7
-2144.71
-2166.39
-2166.85
-2167.1
-2167.2
-2167.14
-2166.89
-2166.58
-2166.12
-2165.63
-2165.06
-2164.53
-2164.09
-2163.74
-2163.49
-2163.26
-2163.06
-2162.85
-2162.67
-2162.48
-2162.27
-2161.98
-2161.52
-2160.86
-2159.95
-2158.83
-2157.55
-2156.2
-2154.83
-2153.52
-2152.28
-2151.13
-2150.08
-2149.08
-2148.15
-2147.27
-2146.44
-2145.67
-2144.95
-2144.33
-2143.8
-2143.43
-2143.23
-2143.22
-2143.24
-2167.9
-2168.49
-2168.69
-2168.6
-2168.36
-2167.94
-2167.52
-2166.94
-2166.36
-2165.67
-2165.04
-2164.51
-2164.07
-2163.78
-2163.49
-2163.29
-2163.06
-2162.87
-2162.71
-2162.51
-2162.24
-2161.77
-2161.08
-2160.12
-2158.92
-2157.56
-2156.12
-2154.67
-2153.28
-2151.99
-2150.78
-2149.66
-2148.6
-2147.59
-2146.62
-2145.67
-2144.78
-2143.9
-2143.12
-2142.4
-2141.87
-2141.51
-2141.45
-2141.43
-2169.87
-2170.46
-2170.48
-2170.06
-2169.58
-2168.91
-2168.38
-2167.66
-2166.99
-2166.2
-2165.47
-2164.88
-2164.36
-2164.05
-2163.71
-2163.49
-2163.24
-2163.06
-2162.91
-2162.72
-2162.46
-2161.99
-2161.28
-2160.26
-2159.01
-2157.57
-2156.05
-2154.54
-2153.09
-2151.75
-2150.48
-2149.32
-2148.19
-2147.11
-2146.06
-2144.99
-2143.97
-2142.92
-2141.95
-2141.01
-2140.23
-2139.6
-2139.41
-2139.2
-2172.42
-2172.69
-2172.39
-2171.51
-2170.71
-2169.77
-2169.11
-2168.25
-2167.51
-2166.62
-2165.81
-2165.17
-2164.59
-2164.27
-2163.9
-2163.67
-2163.41
-2163.22
-2163.08
-2162.89
-2162.65
-2162.17
-2161.44
-2160.38
-2159.07
-2157.58
-2155.99
-2154.44
-2152.93
-2151.56
-2150.25
-2149.05
-2147.87
-2146.73
-2145.6
-2144.42
-2143.29
-2142.07
-2140.91
-2139.7
-2138.63
-2137.58
-2137.13
-2136.41
-2175.71
-2175.08
-2174.31
-2172.83
-2171.71
-2170.48
-2169.7
-2168.71
-2167.9
-2166.93
-2166.05
-2165.39
-2164.76
-2164.45
-2164.05
-2163.83
-2163.54
-2163.35
-2163.21
-2163.03
-2162.8
-2162.31
-2161.57
-2160.48
-2159.13
-2157.59
-2155.96
-2154.36
-2152.82
-2151.43
-2150.09
-2148.86
-2147.64
-2146.44
-2145.25
-2143.98
-2142.76
-2141.38
-2140.04
-2138.57
-2137.17
-2135.58
-2134.72
-2132.9
-2179.81
-2177.45
-2176.08
-2173.94
-2172.5
-2171.02
-2170.13
-2169.03
-2168.17
-2167.15
-2166.22
-2165.54
-2164.88
-2164.59
-2164.17
-2163.94
-2163.65
-2163.45
-2163.32
-2163.14
-2162.92
-2162.42
-2161.67
-2160.55
-2159.17
-2157.6
-2155.93
-2154.32
-2152.75
-2151.34
-2149.97
-2148.72
-2147.48
-2146.24
-2145.01
-2143.67
-2142.37
-2140.86
-2139.37
-2137.66
-2135.95
-2133.77
-2132.35
-2128.61
-2184.66
-2179.57
-2177.52
-2174.78
-2173.08
-2171.38
-2170.42
-2169.24
-2168.35
-2167.28
-2166.32
-2165.63
-2164.96
-2164.68
-2164.25
-2164.03
-2163.72
-2163.52
-2163.39
-2163.21
-2162.99
-2162.49
-2161.73
-2160.6
-2159.2
-2157.6
-2155.91
-2154.28
-2152.7
-2151.28
-2149.9
-2148.64
-2147.38
-2146.11
-2144.85
-2143.46
-2142.1
-2140.51
-2138.9
-2137
-2135.04
-2132.29
-2130.23
-2123.61
-2189.92
-2181.23
-2178.52
-2175.33
-2173.44
-2171.6
-2170.59
-2169.36
-2168.44
-2167.36
-2166.37
-2165.69
-2165
-2164.73
-2164.29
-2164.08
-2163.77
-2163.56
-2163.43
-2163.25
-2163.04
-2162.53
-2161.77
-2160.63
-2159.22
-2157.61
-2155.91
-2154.27
-2152.67
-2151.25
-2149.86
-2148.59
-2147.32
-2146.03
-2144.76
-2143.34
-2141.95
-2140.3
-2138.62
-2136.6
-2134.45
-2131.27
-2128.58
-2118.26
-2194.88
-2182.25
-2179.06
-2175.6
-2173.61
-2171.71
-2170.67
-2169.42
-2168.49
-2167.39
-2166.39
-2165.71
-2165.02
-2164.76
-2164.32
-2164.1
-2163.79
-2163.59
-2163.45
-2163.27
-2163.06
-2162.55
-2161.79
-2160.64
-2159.22
-2157.61
-2155.9
-2154.26
-2152.66
-2151.24
-2149.84
-2148.57
-2147.3
-2146
-2144.72
-2143.28
-2141.88
-2140.2
-2138.49
-2136.4
-2134.16
-2130.73
-2127.56
-2113.26
-2198.85
-2182.69
-2179.23
-2175.7
-2173.66
-2171.75
-2170.69
-2169.43
-2168.5
-2167.4
-2166.4
-2165.72
-2165.03
-2164.76
-2164.33
-2164.11
-2163.8
-2163.59
-2163.46
-2163.28
-2163.07
-2162.56
-2161.79
-2160.65
-2159.23
-2157.61
-2155.9
-2154.26
-2152.65
-2151.23
-2149.84
-2148.57
-2147.29
-2145.99
-2144.71
-2143.26
-2141.86
-2140.17
-2138.44
-2136.34
-2134.06
-2130.55
-2127.12
-2109.29
)
;

boundaryField
{
    movingWall
    {
        type            zeroGradient;
    }
    fixedWalls
    {
        type            zeroGradient;
    }
    frontAndBack
    {
        type            empty;
    }
    defaultFaces
    {
        type            empty;
    }
}


// ************************************************************************* //
