/*--------------------------------*- C++ -*----------------------------------*\
  =========                 |
  \\      /  F ield         | OpenFOAM: The Open Source CFD Toolbox
   \\    /   O peration     | Website:  https://openfoam.org
    \\  /    A nd           | Version:  7
     \\/     M anipulation  |
\*---------------------------------------------------------------------------*/
FoamFile
{
    version     2.0;
    format      ascii;
    class       volVectorField;
    location    "0.02";
    object      U;
}
// * * * * * * * * * * * * * * * * * * * * * * * * * * * * * * * * * * * * * //

dimensions      [0 1 -1 0 0 0 0];

internalField   nonuniform List<vector> 
1936
(
(2.7281 1.67162 0)
(-44.3609 112.514 0)
(-6.66707 266.985 0)
(29.1191 186.422 0)
(-1.37804 80.9187 0)
(-6.48461 70.6762 0)
(-27.2483 116.324 0)
(-19.8193 213.676 0)
(6.0564 232.499 0)
(12.1069 166.429 0)
(5.39571 111.272 0)
(-2.73255 92.1504 0)
(-12.1062 98.6477 0)
(-16.7351 128.787 0)
(-13.4132 166.484 0)
(-4.67185 184.148 0)
(2.59874 173.559 0)
(4.94969 150.705 0)
(3.56287 132.524 0)
(0.448534 125.026 0)
(-2.59626 127.701 0)
(-4.295 138.382 0)
(-3.70149 152.796 0)
(-0.704175 164.139 0)
(3.82244 165.852 0)
(8.13365 154.911 0)
(9.87553 135.575 0)
(7.99486 117.996 0)
(3.23462 110.649 0)
(-2.32548 118.826 0)
(-5.95432 146.24 0)
(-4.89621 188.806 0)
(6.92343 210.859 0)
(23.3618 169.668 0)
(24.2242 97.5414 0)
(9.37638 65.0583 0)
(-1.12417 72.9843 0)
(-16.4444 138.948 0)
(-10.8987 237.887 0)
(27.1406 202.235 0)
(20.0475 85.9309 0)
(1.60318 47.9577 0)
(-17.9742 95.8684 0)
(-23.6125 219.414 0)
(7.29822 3.59793 0)
(-41.8847 -0.397916 0)
(-6.92546 -4.10362 0)
(29.2268 -1.1167 0)
(-3.80988 2.54969 0)
(-5.24669 2.73286 0)
(-24.9105 0.515285 0)
(-19.3579 -2.51839 0)
(6.8022 -2.55066 0)
(12.2004 -0.364571 0)
(4.1354 1.29725 0)
(-3.18347 1.7884 0)
(-11.0305 1.27718 0)
(-15.6163 0.072168 0)
(-12.9202 -1.06881 0)
(-4.57981 -1.44818 0)
(2.42516 -0.963077 0)
(4.59268 -0.168191 0)
(3.25118 0.405908 0)
(0.437376 0.598193 0)
(-2.31083 0.461975 0)
(-3.97395 0.0980038 0)
(-3.47498 -0.357276 0)
(-0.625349 -0.732828 0)
(3.69513 -0.83984 0)
(7.80979 -0.564053 0)
(9.30361 0.0111663 0)
(7.45659 0.63346 0)
(3.28195 1.01142 0)
(-1.70722 0.878213 0)
(-5.49439 0.0714679 0)
(-5.04573 -1.34128 0)
(6.55662 -2.35054 0)
(22.5288 -1.46451 0)
(22.1334 0.955506 0)
(8.75673 2.55933 0)
(1.1145 2.34636 0)
(-16.2497 0.10107 0)
(-12.0777 -2.91864 0)
(26.5935 -2.41369 0)
(16.846 1.56359 0)
(2.01403 3.60428 0)
(-15.2394 1.24665 0)
(-24.413 -2.81661 0)
(5.84816 7.44537 0)
(-46.1058 -0.295718 0)
(-9.86049 -9.07434 0)
(28.9969 -2.30477 0)
(-1.84849 5.30871 0)
(-3.42678 5.46672 0)
(-24.4375 1.36764 0)
(-20.6721 -5.21665 0)
(6.09729 -5.46599 0)
(13.1194 -0.66773 0)
(5.81083 2.7052 0)
(-1.20624 3.56733 0)
(-9.28282 2.62779 0)
(-14.6854 0.250843 0)
(-12.5299 -2.14357 0)
(-4.40484 -2.97498 0)
(2.52693 -1.96436 0)
(4.66287 -0.326832 0)
(3.33098 0.827437 0)
(0.543835 1.20723 0)
(-2.20112 0.940456 0)
(-3.87051 0.211169 0)
(-3.42073 -0.720959 0)
(-0.64148 -1.49349 0)
(3.5748 -1.71195 0)
(7.51318 -1.1331 0)
(8.81428 0.0553739 0)
(6.7142 1.30189 0)
(2.37826 2.03767 0)
(-2.53188 1.79114 0)
(-6.10769 0.192556 0)
(-5.13394 -2.76473 0)
(6.96842 -4.91305 0)
(22.5363 -2.8946 0)
(20.5268 2.14809 0)
(6.13824 5.1085 0)
(-1.22758 4.82111 0)
(-17.9622 0.432615 0)
(-11.7119 -6.37801 0)
(28.2503 -4.96212 0)
(15.9348 3.43401 0)
(1.25923 7.21355 0)
(-15.4606 2.84927 0)
(-25.498 -5.98848 0)
(9.19982 10.8841 0)
(-36.5879 0.00496139 0)
(-9.21453 -13.0936 0)
(20.095 -3.60555 0)
(-4.82347 7.22565 0)
(-0.301142 7.69991 0)
(-16.2591 2.29204 0)
(-15.9278 -7.252 0)
(3.81356 -7.97493 0)
(8.56247 -1.11602 0)
(3.47123 3.73211 0)
(-0.0322193 4.98928 0)
(-5.08825 3.81762 0)
(-9.64187 0.546958 0)
(-8.89833 -2.93296 0)
(-3.56951 -4.20595 0)
(1.13102 -2.80812 0)
(2.68761 -0.49274 0)
(2.04573 1.14313 0)
(0.432235 1.69067 0)
(-1.25248 1.32967 0)
(-2.35859 0.303194 0)
(-2.02283 -1.0257 0)
(-0.0704363 -2.12484 0)
(2.78268 -2.42052 0)
(5.39375 -1.56983 0)
(6.05563 0.142327 0)
(4.36759 1.88563 0)
(1.5145 2.87393 0)
(-1.34896 2.487 0)
(-3.31396 0.192146 0)
(-2.5945 -4.03459 0)
(5.81477 -6.98589 0)
(16.3735 -3.84311 0)
(12.8771 3.35644 0)
(2.4061 7.20477 0)
(0.433347 6.7116 0)
(-12.1639 0.518798 0)
(-9.07614 -9.28091 0)
(21.9678 -6.82881 0)
(7.43717 5.06152 0)
(1.11398 9.91988 0)
(-7.49231 4.11877 0)
(-20.6752 -8.46742 0)
(11.7469 13.2742 0)
(-28.3774 0.565032 0)
(-8.65911 -15.3528 0)
(12.494 -4.64396 0)
(-6.89078 7.9467 0)
(1.57172 8.94186 0)
(-8.99941 3.05001 0)
(-11.2839 -8.34213 0)
(1.75483 -9.65187 0)
(4.72598 -1.65443 0)
(1.80396 4.19961 0)
(1.04051 5.86444 0)
(-1.27591 4.6882 0)
(-4.80247 0.92842 0)
(-5.21157 -3.32504 0)
(-2.52305 -4.98477 0)
(0.0179978 -3.42345 0)
(0.99158 -0.694103 0)
(0.935575 1.2813 0)
(0.343195 1.97768 0)
(-0.393098 1.57744 0)
(-0.968475 0.351848 0)
(-0.742281 -1.25707 0)
(0.400793 -2.57365 0)
(1.92428 -2.89594 0)
(3.26161 -1.8251 0)
(3.3581 0.26245 0)
(2.08849 2.32041 0)
(0.572223 3.41393 0)
(-0.520166 2.84239 0)
(-1.07174 0.0144578 0)
(-0.520892 -4.99491 0)
(4.36562 -8.25879 0)
(10.2473 -4.17523 0)
(5.86622 4.3626 0)
(-0.530377 8.53947 0)
(1.34162 7.73888 0)
(-7.60823 0.426722 0)
(-6.65184 -11.0467 0)
(16.1203 -7.69216 0)
(0.814386 6.07989 0)
(1.08535 11.2021 0)
(-1.55327 4.85886 0)
(-16.3006 -9.73794 0)
(13.1487 14.5755 0)
(-20.7167 1.39631 0)
(-7.89095 -15.8922 0)
(6.42862 -5.3358 0)
(-8.3102 7.56335 0)
(2.05331 9.09579 0)
(-2.98954 3.48304 0)
(-6.95655 -8.4521 0)
(0.163663 -10.3852 0)
(1.61236 -2.23264 0)
(0.311194 4.09566 0)
(1.40712 6.11663 0)
(1.51548 5.14582 0)
(-0.669332 1.32095 0)
(-1.82801 -3.27944 0)
(-1.34572 -5.22917 0)
(-0.683817 -3.74021 0)
(-0.290807 -0.904004 0)
(0.0443922 1.23017 0)
(0.238673 2.04067 0)
(0.284559 1.65569 0)
(0.173973 0.34928 0)
(0.292685 -1.39053 0)
(0.707074 -2.79043 0)
(1.06674 -3.08561 0)
(1.31394 -1.87194 0)
(0.992151 0.401104 0)
(0.193638 2.57028 0)
(-0.128673 3.61163 0)
(0.173354 2.81868 0)
(0.596417 -0.314919 0)
(0.871263 -5.5481 0)
(2.66975 -8.61508 0)
(4.62552 -3.88382 0)
(0.143771 5.00721 0)
(-2.15498 9.0104 0)
(2.16207 7.91018 0)
(-4.02315 0.209888 0)
(-4.47572 -11.6474 0)
(10.8777 -7.60133 0)
(-3.74772 6.4141 0)
(1.15764 11.1858 0)
(2.5164 5.06543 0)
(-12.3442 -9.85595 0)
(12.7513 14.7745 0)
(-13.2124 2.4175 0)
(-6.58913 -14.8445 0)
(2.1066 -5.66272 0)
(-8.56634 6.36633 0)
(1.60306 8.20576 0)
(1.32268 3.44305 0)
(-3.19985 -7.68075 0)
(-0.775729 -10.1443 0)
(-0.696746 -2.74456 0)
(-1.03153 3.52287 0)
(1.10904 5.74971 0)
(2.98817 5.1112 0)
(2.2807 1.61663 0)
(0.867988 -2.84811 0)
(-0.185864 -4.9358 0)
(-0.932342 -3.71906 0)
(-1.07266 -1.0806 0)
(-0.579317 1.01671 0)
(0.10998 1.88332 0)
(0.711851 1.55966 0)
(0.960335 0.293982 0)
(0.978273 -1.41236 0)
(0.808816 -2.75322 0)
(0.289547 -2.97524 0)
(-0.252785 -1.71938 0)
(-0.788858 0.533147 0)
(-1.08123 2.59331 0)
(-0.457633 3.44603 0)
(0.756651 2.46546 0)
(1.64055 -0.711821 0)
(1.48816 -5.616 0)
(0.891238 -8.06696 0)
(0.0445711 -3.1167 0)
(-3.68204 5.15507 0)
(-2.6198 8.58402 0)
(2.78126 7.37183 0)
(-1.25411 -0.0594466 0)
(-2.60395 -11.1358 0)
(6.3858 -6.73538 0)
(-6.13119 6.10557 0)
(1.10814 10.0921 0)
(4.77325 4.82986 0)
(-8.70562 -9.01775 0)
(10.8818 13.9018 0)
(-5.93205 3.39932 0)
(-4.35415 -12.4635 0)
(-0.287895 -5.58176 0)
(-7.46055 4.70962 0)
(1.01057 6.53873 0)
(3.68547 2.92291 0)
(-0.276565 -6.30924 0)
(-1.01099 -9.03029 0)
(-2.08276 -3.06279 0)
(-1.99579 2.64284 0)
(0.517273 4.9003 0)
(3.29133 4.58681 0)
(3.80616 1.72521 0)
(2.58483 -2.17398 0)
(0.771336 -4.19747 0)
(-0.799157 -3.37594 0)
(-1.35637 -1.17887 0)
(-0.9087 0.703128 0)
(-0.0187246 1.5493 0)
(0.877617 1.31416 0)
(1.3409 0.195166 0)
(1.27273 -1.32464 0)
(0.712141 -2.48051 0)
(-0.331906 -2.60158 0)
(-1.30385 -1.41307 0)
(-1.85069 0.615916 0)
(-1.68915 2.38184 0)
(-0.483873 2.96473 0)
(1.12542 1.89825 0)
(2.03513 -1.06483 0)
(1.4031 -5.18266 0)
(-0.69847 -6.78711 0)
(-3.04315 -2.13893 0)
(-5.40853 4.76489 0)
(-2.37233 7.43612 0)
(3.00723 6.32363 0)
(0.75964 -0.34435 0)
(-1.14193 -9.67697 0)
(2.77775 -5.38399 0)
(-6.57476 5.30391 0)
(0.886861 8.26973 0)
(5.4371 4.24851 0)
(-5.34156 -7.4873 0)
(8.27971 12.0341 0)
(0.175274 4.00774 0)
(-1.1965 -9.18315 0)
(-0.769841 -4.96659 0)
(-5.30433 2.94836 0)
(0.799631 4.53298 0)
(4.33297 2.07781 0)
(1.65627 -4.73251 0)
(-0.649516 -7.30121 0)
(-2.49637 -3.04818 0)
(-2.37568 1.63919 0)
(-0.0243317 3.74672 0)
(2.83725 3.69181 0)
(4.04001 1.6062 0)
(3.25689 -1.43298 0)
(1.37081 -3.1978 0)
(-0.446864 -2.78164 0)
(-1.24514 -1.16014 0)
(-0.965033 0.364136 0)
(-0.112164 1.11102 0)
(0.829672 0.965357 0)
(1.34908 0.0742908 0)
(1.21545 -1.14195 0)
(0.471338 -2.03056 0)
(-0.746249 -2.05074 0)
(-1.81165 -1.02869 0)
(-2.22877 0.618332 0)
(-1.76541 1.97398 0)
(-0.380861 2.28814 0)
(1.1873 1.24173 0)
(1.85823 -1.2547 0)
(0.847205 -4.32272 0)
(-1.8324 -5.09611 0)
(-4.48607 -1.21792 0)
(-5.42471 3.93424 0)
(-1.8467 5.86698 0)
(2.78533 4.93208 0)
(1.94831 -0.546503 0)
(-0.232719 -7.57205 0)
(0.161742 -3.87329 0)
(-5.71211 4.20151 0)
(0.588044 6.15856 0)
(4.92689 3.40026 0)
(-2.46907 -5.55748 0)
(5.77246 9.39216 0)
(3.92876 3.99032 0)
(1.86896 -5.68348 0)
(0.0580865 -3.80737 0)
(-2.76683 1.47577 0)
(0.978459 2.65738 0)
(3.91996 1.14372 0)
(2.56544 -3.30102 0)
(0.00431801 -5.33435 0)
(-2.10361 -2.68513 0)
(-2.15929 0.734652 0)
(-0.326585 2.50847 0)
(2.07697 2.63237 0)
(3.42397 1.31031 0)
(3.08151 -0.795094 0)
(1.56389 -2.15934 0)
(-0.0635428 -2.05948 0)
(-0.910849 -1.02098 0)
(-0.820562 0.0726581 0)
(-0.151378 0.658043 0)
(0.648292 0.586433 0)
(1.09208 -0.0387605 0)
(0.917643 -0.896735 0)
(0.172923 -1.49268 0)
(-0.940745 -1.43876 0)
(-1.85955 -0.648872 0)
(-2.10406 0.542156 0)
(-1.53476 1.4503 0)
(-0.29133 1.55651 0)
(0.95866 0.645247 0)
(1.3062 -1.22578 0)
(0.14013 -3.21866 0)
(-2.36028 -3.38208 0)
(-4.5258 -0.543124 0)
(-4.48048 2.89293 0)
(-1.36246 4.1739 0)
(2.16378 3.42483 0)
(2.20522 -0.584457 0)
(0.0676311 -5.22343 0)
(-1.37406 -2.45914 0)
(-4.30191 2.96939 0)
(0.291455 4.17 0)
(3.67776 2.41751 0)
(-0.54682 -3.58384 0)
(3.72675 6.52432 0)
(4.824 3.36642 0)
(3.43668 -2.70864 0)
(1.13697 -2.34876 0)
(-0.630566 0.555794 0)
(1.25671 1.24819 0)
(3.1187 0.352275 0)
(2.58496 -2.19856 0)
(0.544296 -3.5181 0)
(-1.3188 -2.08369 0)
(-1.56876 0.101489 0)
(-0.376981 1.41215 0)
(1.3388 1.63061 0)
(2.46793 0.926037 0)
(2.41516 -0.34511 0)
(1.415 -1.26858 0)
(0.203822 -1.34855 0)
(-0.531028 -0.796367 0)
(-0.577019 -0.124693 0)
(-0.143158 0.271486 0)
(0.415549 0.254742 0)
(0.71198 -0.115993 0)
(0.52588 -0.630906 0)
(-0.0937699 -0.965068 0)
(-0.944651 -0.877646 0)
(-1.60352 -0.339578 0)
(-1.71057 0.411086 0)
(-1.19951 0.927727 0)
(-0.266303 0.900621 0)
(0.566106 0.211086 0)
(0.640587 -1.00998 0)
(-0.425086 -2.10412 0)
(-2.3139 -1.95571 0)
(-3.70695 -0.152375 0)
(-3.27162 1.87695 0)
(-1.03407 2.63756 0)
(1.3343 2.07945 0)
(1.68327 -0.461345 0)
(-0.0610111 -3.07757 0)
(-1.85087 -1.34197 0)
(-2.89278 1.82771 0)
(0.0272576 2.54456 0)
(2.25128 1.50065 0)
(0.301012 -1.92589 0)
(2.17108 4.06208 0)
(3.7207 2.44328 0)
(3.25675 -0.766937 0)
(1.63592 -1.0429 0)
(0.619339 0.1529 0)
(1.38449 0.411952 0)
(2.30736 -0.147169 0)
(2.05672 -1.43106 0)
(0.728419 -2.1141 0)
(-0.596797 -1.43239 0)
(-0.927951 -0.23043 0)
(-0.290982 0.615119 0)
(0.761188 0.843919 0)
(1.53951 0.54568 0)
(1.61504 -0.0870788 0)
(1.06268 -0.624144 0)
(0.300718 -0.76161 0)
(-0.227852 -0.54626 0)
(-0.332193 -0.215836 0)
(-0.112823 0.0051799 0)
(0.196434 0.0235281 0)
(0.340937 -0.143053 0)
(0.172689 -0.385699 0)
(-0.266807 -0.527384 0)
(-0.817663 -0.441821 0)
(-1.21606 -0.130446 0)
(-1.24306 0.262508 0)
(-0.874254 0.499537 0)
(-0.28104 0.410193 0)
(0.173342 -0.0373711 0)
(0.0897721 -0.703586 0)
(-0.700156 -1.18049 0)
(-1.88465 -0.960067 0)
(-2.61977 0.0238 0)
(-2.19227 1.05151 0)
(-0.814318 1.45482 0)
(0.570855 1.08834 0)
(0.865246 -0.257105 0)
(-0.263692 -1.485 0)
(-1.55207 -0.600881 0)
(-1.76628 0.960792 0)
(-0.158826 1.36806 0)
(1.09791 0.817695 0)
(0.397264 -0.805129 0)
(1.12693 2.31304 0)
(2.16443 1.59893 0)
(2.24645 0.168842 0)
(1.50109 -0.211736 0)
(1.02472 0.0442229 0)
(1.26495 0.0108003 0)
(1.58804 -0.349188 0)
(1.38639 -0.909835 0)
(0.620879 -1.18129 0)
(-0.165004 -0.891192 0)
(-0.449974 -0.334228 0)
(-0.188287 0.12311 0)
(0.356548 0.314321 0)
(0.814086 0.253928 0)
(0.913898 0.0166763 0)
(0.660782 -0.234524 0)
(0.263332 -0.356031 0)
(-0.0456531 -0.329343 0)
(-0.150908 -0.222611 0)
(-0.0870678 -0.124688 0)
(0.0295686 -0.0899436 0)
(0.0649024 -0.123601 0)
(-0.0632145 -0.191342 0)
(-0.328374 -0.219367 0)
(-0.628932 -0.155652 0)
(-0.827983 -0.0142222 0)
(-0.81944 0.140474 0)
(-0.601355 0.204914 0)
(-0.288702 0.110955 0)
(-0.0946809 -0.130356 0)
(-0.218101 -0.410127 0)
(-0.698749 -0.547532 0)
(-1.31896 -0.379678 0)
(-1.64517 0.0649963 0)
(-1.35951 0.494473 0)
(-0.620532 0.668998 0)
(0.0765892 0.483792 0)
(0.232185 -0.0796094 0)
(-0.323146 -0.541959 0)
(-0.978429 -0.195962 0)
(-0.98088 0.428237 0)
(-0.220358 0.629277 0)
(0.398352 0.396523 0)
(0.226148 -0.220017 0)
(0.545209 1.25963 0)
(1.08042 1.00624 0)
(1.29432 0.456778 0)
(1.08696 0.158544 0)
(0.918316 0.0532377 0)
(0.958609 -0.121658 0)
(1.00417 -0.338411 0)
(0.823425 -0.550574 0)
(0.411981 -0.628347 0)
(0.00309818 -0.521027 0)
(-0.18646 -0.317071 0)
(-0.113252 -0.127292 0)
(0.118533 0.00711865 0)
(0.33321 0.0588924 0)
(0.404553 0.0289061 0)
(0.322953 -0.0495736 0)
(0.165865 -0.130044 0)
(0.0255324 -0.177822 0)
(-0.0525267 -0.180619 0)
(-0.0751781 -0.148726 0)
(-0.071772 -0.109767 0)
(-0.0886588 -0.0793766 0)
(-0.16804 -0.061684 0)
(-0.299545 -0.0404968 0)
(-0.432174 -0.00345374 0)
(-0.507443 0.0381763 0)
(-0.489068 0.0633979 0)
(-0.384762 0.0451126 0)
(-0.255662 -0.0255135 0)
(-0.201957 -0.122833 0)
(-0.298742 -0.194618 0)
(-0.537857 -0.194449 0)
(-0.805239 -0.101761 0)
(-0.921596 0.049375 0)
(-0.767329 0.178242 0)
(-0.425827 0.2319 0)
(-0.127385 0.17317 0)
(-0.057985 0.00944391 0)
(-0.256115 -0.117515 0)
(-0.500897 -0.0251037 0)
(-0.481934 0.162811 0)
(-0.17763 0.236251 0)
(0.0841813 0.166818 0)
(0.0820079 -0.00548361 0)
(0.259038 0.686571 0)
(0.511096 0.62819 0)
(0.691831 0.422496 0)
(0.688362 0.246087 0)
(0.647848 0.0790898 0)
(0.623899 -0.0935725 0)
(0.576972 -0.228825 0)
(0.443418 -0.306461 0)
(0.23607 -0.324411 0)
(0.0417135 -0.300024 0)
(-0.0664644 -0.256249 0)
(-0.0715205 -0.199835 0)
(-0.00694623 -0.12878 0)
(0.066714 -0.0514733 0)
(0.10561 0.000991923 0)
(0.101955 0.00196453 0)
(0.0702686 -0.0393593 0)
(0.024961 -0.0907441 0)
(-0.0265379 -0.119318 0)
(-0.0745249 -0.113861 0)
(-0.108132 -0.0799367 0)
(-0.134041 -0.0350109 0)
(-0.17179 0.00703085 0)
(-0.220847 0.037469 0)
(-0.259766 0.0522344 0)
(-0.272425 0.0471549 0)
(-0.256924 0.0206511 0)
(-0.222061 -0.0210326 0)
(-0.189613 -0.062503 0)
(-0.190691 -0.082117 0)
(-0.244714 -0.0701775 0)
(-0.336361 -0.0354726 0)
(-0.422727 0.00282704 0)
(-0.449777 0.0223506 0)
(-0.381375 0.0271885 0)
(-0.253858 0.0319302 0)
(-0.152345 0.0363388 0)
(-0.119725 0.0303178 0)
(-0.157062 0.0183573 0)
(-0.213448 0.027704 0)
(-0.197225 0.0522717 0)
(-0.0979875 0.0630036 0)
(-0.00984205 0.0548206 0)
(0.0175262 0.0304289 0)
(0.125354 0.386439 0)
(0.240595 0.395538 0)
(0.357414 0.316947 0)
(0.394562 0.217113 0)
(0.395512 0.0941364 0)
(0.366023 -0.0285685 0)
(0.311217 -0.1129 0)
(0.230002 -0.1515 0)
(0.132901 -0.165325 0)
(0.0442976 -0.177499 0)
(-0.0164876 -0.190317 0)
(-0.0460042 -0.186599 0)
(-0.0521767 -0.150636 0)
(-0.0437728 -0.0894891 0)
(-0.0260218 -0.0337902 0)
(-0.00500088 -0.011239 0)
(0.00724228 -0.023011 0)
(-0.00168675 -0.0479447 0)
(-0.0334765 -0.0634522 0)
(-0.0719702 -0.0600832 0)
(-0.0987563 -0.0380853 0)
(-0.112696 -0.00372664 0)
(-0.123642 0.031552 0)
(-0.133053 0.0539505 0)
(-0.133047 0.0551466 0)
(-0.123273 0.0347035 0)
(-0.112527 -7.05376e-05 0)
(-0.107233 -0.0360021 0)
(-0.109434 -0.0542821 0)
(-0.121573 -0.0442693 0)
(-0.142529 -0.0143832 0)
(-0.166143 0.015679 0)
(-0.1828 0.0218946 0)
(-0.18175 -0.000361584 0)
(-0.160242 -0.0293827 0)
(-0.12589 -0.0376996 0)
(-0.101081 -0.0139847 0)
(-0.0872161 0.0208181 0)
(-0.0788495 0.0386453 0)
(-0.0783908 0.0312574 0)
(-0.0669435 0.0130806 0)
(-0.0401507 0.00334068 0)
(-0.0176314 0.0084562 0)
(-0.000459672 0.0162131 0)
(0.0602829 0.230841 0)
(0.110225 0.255101 0)
(0.178144 0.223927 0)
(0.208692 0.17059 0)
(0.219244 0.0974868 0)
(0.205621 0.0228312 0)
(0.173059 -0.0314941 0)
(0.129296 -0.0618872 0)
(0.0842907 -0.0828816 0)
(0.0435611 -0.107348 0)
(0.00775304 -0.13154 0)
(-0.0233016 -0.14235 0)
(-0.0466989 -0.128556 0)
(-0.0567699 -0.0953027 0)
(-0.0494162 -0.0604997 0)
(-0.031656 -0.0381203 0)
(-0.0196594 -0.0302824 0)
(-0.0235694 -0.0287455 0)
(-0.0402491 -0.0270329 0)
(-0.0571893 -0.0214721 0)
(-0.0658627 -0.00967884 0)
(-0.0676606 0.00985996 0)
(-0.0663212 0.031158 0)
(-0.0615186 0.0431916 0)
(-0.0515427 0.0390296 0)
(-0.0394891 0.0207441 0)
(-0.0325064 -0.00430948 0)
(-0.0345915 -0.0259148 0)
(-0.0427635 -0.032744 0)
(-0.050806 -0.0206889 0)
(-0.0549229 0.00129591 0)
(-0.0560102 0.0156287 0)
(-0.0535536 0.0102002 0)
(-0.0490985 -0.0132632 0)
(-0.0476946 -0.0385292 0)
(-0.0447346 -0.0448577 0)
(-0.0438275 -0.0265771 0)
(-0.0415778 0.00122175 0)
(-0.0302432 0.0182218 0)
(-0.0211579 0.0148999 0)
(-0.0159563 0.000732096 0)
(-0.011485 -0.00832837 0)
(-0.00827446 -0.00556438 0)
(-0.00227507 0.00191339 0)
(0.0283807 0.150995 0)
(0.050246 0.172814 0)
(0.088256 0.159254 0)
(0.109135 0.131539 0)
(0.121053 0.0915657 0)
(0.118742 0.0490567 0)
(0.106363 0.0127142 0)
(0.0878677 -0.0142812 0)
(0.0669345 -0.0379981 0)
(0.0456539 -0.0625696 0)
(0.0236401 -0.0850805 0)
(0.00133737 -0.0984487 0)
(-0.0182871 -0.098263 0)
(-0.0294491 -0.087013 0)
(-0.0283081 -0.070419 0)
(-0.0223647 -0.0528015 0)
(-0.022202 -0.0356098 0)
(-0.0277303 -0.0211388 0)
(-0.0327258 -0.0116694 0)
(-0.0329309 -0.00635148 0)
(-0.0302928 -0.00070222 0)
(-0.0276239 0.00929995 0)
(-0.0230491 0.0207112 0)
(-0.0149325 0.0259865 0)
(-0.00564934 0.021255 0)
(0.0021301 0.00937648 0)
(0.00642953 -0.00426092 0)
(0.00539317 -0.0146511 0)
(0.000323675 -0.0172092 0)
(-0.00294812 -0.0105982 0)
(-0.00154438 -0.000137974 0)
(0.00134687 0.00469686 0)
(0.00496973 -0.00168771 0)
(0.00681814 -0.0165517 0)
(0.00284431 -0.0306418 0)
(-0.000256726 -0.0338987 0)
(-0.00318566 -0.0243189 0)
(-0.00689706 -0.00941693 0)
(-0.00373036 0.00164384 0)
(0.000992517 0.00316666 0)
(0.00165136 -0.00225173 0)
(-9.3326e-05 -0.00720065 0)
(-0.00173491 -0.00768985 0)
(-0.000797986 -0.00516549 0)
(0.0135627 0.108006 0)
(0.0264112 0.123657 0)
(0.0489762 0.115799 0)
(0.0640634 0.100569 0)
(0.0744593 0.0787524 0)
(0.0773336 0.054368 0)
(0.0743647 0.0308037 0)
(0.0679121 0.00847156 0)
(0.0594835 -0.0129187 0)
(0.0491132 -0.0338011 0)
(0.0362463 -0.0522285 0)
(0.0217632 -0.0654802 0)
(0.00889418 -0.0718854 0)
(-3.78736e-05 -0.0711492 0)
(-0.00515577 -0.0635285 0)
(-0.00886039 -0.0504571 0)
(-0.0142616 -0.0340009 0)
(-0.0186236 -0.0197036 0)
(-0.016842 -0.0111823 0)
(-0.0106534 -0.00739038 0)
(-0.00581829 -0.00392989 0)
(-0.00344344 0.00189874 0)
(0.00103372 0.00816833 0)
(0.00914917 0.0104128 0)
(0.016151 0.00723531 0)
(0.0195692 0.000931571 0)
(0.0218163 -0.00516521 0)
(0.0229957 -0.00914801 0)
(0.0215225 -0.0101909 0)
(0.0201523 -0.00805655 0)
(0.0218727 -0.00454068 0)
(0.0244235 -0.00344952 0)
(0.0262786 -0.00746882 0)
(0.0261781 -0.0148546 0)
(0.0222208 -0.0209982 0)
(0.0185953 -0.0218775 0)
(0.0155144 -0.0171365 0)
(0.0110957 -0.00989797 0)
(0.00933805 -0.00338431 0)
(0.00944208 -0.000368457 0)
(0.00804567 -0.00108068 0)
(0.00513685 -0.00336318 0)
(0.00209538 -0.00504334 0)
(0.00079897 -0.00502924 0)
(0.00840592 0.0796685 0)
(0.0175501 0.0901422 0)
(0.0325921 0.0845133 0)
(0.043324 0.0755342 0)
(0.0514045 0.0634207 0)
(0.0556162 0.0490884 0)
(0.0567511 0.033357 0)
(0.0558652 0.0167435 0)
(0.0531549 -0.000150622 0)
(0.048332 -0.0163008 0)
(0.0412108 -0.0305896 0)
(0.0322343 -0.0418814 0)
(0.0227061 -0.0491305 0)
(0.0142687 -0.0512178 0)
(0.00706592 -0.0474088 0)
(1.20263e-07 -0.0387523 0)
(-0.00585631 -0.0287345 0)
(-0.00739366 -0.0207008 0)
(-0.00360309 -0.0162191 0)
(0.00184479 -0.0136704 0)
(0.00451642 -0.0105818 0)
(0.00527959 -0.00678323 0)
(0.00901425 -0.00352321 0)
(0.0163493 -0.00227511 0)
(0.0216643 -0.00335187 0)
(0.0228608 -0.00575249 0)
(0.0237607 -0.0078477 0)
(0.0257314 -0.00871304 0)
(0.0264803 -0.00863563 0)
(0.0258207 -0.00809559 0)
(0.0261117 -0.00739543 0)
(0.0274723 -0.00745182 0)
(0.0286482 -0.00910063 0)
(0.0280462 -0.0117646 0)
(0.024867 -0.0136761 0)
(0.0217957 -0.0130652 0)
(0.0194558 -0.0095925 0)
(0.016193 -0.00495183 0)
(0.0132781 -0.00101722 0)
(0.0115232 0.00138525 0)
(0.00978063 0.00207553 0)
(0.00711626 0.00149242 0)
(0.00383114 0.000524874 0)
(0.00161971 -0.000129192 0)
(0.00686439 0.0564007 0)
(0.012906 0.0638122 0)
(0.0235001 0.0603566 0)
(0.0303171 0.0553057 0)
(0.0363483 0.0485126 0)
(0.0405662 0.0398642 0)
(0.0432016 0.0294962 0)
(0.0444001 0.0179273 0)
(0.0440433 0.00597557 0)
(0.0415889 -0.00535201 0)
(0.0369366 -0.0154207 0)
(0.0309212 -0.0235798 0)
(0.0243794 -0.0290779 0)
(0.0176925 -0.0311724 0)
(0.010993 -0.0298243 0)
(0.00482162 -0.026324 0)
(0.000514897 -0.0227927 0)
(-0.000357694 -0.0206005 0)
(0.00204739 -0.0194326 0)
(0.00497845 -0.0180289 0)
(0.00539696 -0.0160147 0)
(0.00491493 -0.014152 0)
(0.00756023 -0.0129917 0)
(0.0128912 -0.0120795 0)
(0.0168101 -0.0114276 0)
(0.0174954 -0.011267 0)
(0.0175213 -0.0112725 0)
(0.019038 -0.0107342 0)
(0.0206492 -0.00973835 0)
(0.020682 -0.00901635 0)
(0.0200299 -0.00880163 0)
(0.0202949 -0.00881934 0)
(0.0212693 -0.00881764 0)
(0.0211332 -0.00867421 0)
(0.0191162 -0.0080879 0)
(0.016763 -0.00647875 0)
(0.0150241 -0.00352854 0)
(0.0132385 1.92969e-05 0)
(0.0113274 0.00305591 0)
(0.00962719 0.00514288 0)
(0.00799683 0.0063589 0)
(0.00567893 0.00692052 0)
(0.00310301 0.00708723 0)
(0.00122842 0.00621673 0)
(0.0047186 0.0374256 0)
(0.00857453 0.043002 0)
(0.0155838 0.0415038 0)
(0.0199446 0.0389769 0)
(0.02447 0.0351367 0)
(0.0281597 0.0299191 0)
(0.0309552 0.0235002 0)
(0.0326337 0.0163333 0)
(0.0328507 0.00901022 0)
(0.0313666 0.00199721 0)
(0.0283855 -0.00423237 0)
(0.0245143 -0.00934266 0)
(0.0202871 -0.0129541 0)
(0.0158505 -0.0148858 0)
(0.011188 -0.0155328 0)
(0.00686158 -0.0158361 0)
(0.00384183 -0.0166182 0)
(0.00275335 -0.0178278 0)
(0.00321242 -0.0186764 0)
(0.00368284 -0.0187328 0)
(0.00303339 -0.0185742 0)
(0.00203746 -0.0186452 0)
(0.00307022 -0.0188206 0)
(0.00604697 -0.0182321 0)
(0.00824169 -0.0167784 0)
(0.00857156 -0.0153043 0)
(0.00828928 -0.0142571 0)
(0.0089282 -0.0131739 0)
(0.0101335 -0.0117433 0)
(0.0106899 -0.0104086 0)
(0.0104807 -0.00957395 0)
(0.010301 -0.008958 0)
(0.0104923 -0.00801421 0)
(0.0104539 -0.00648169 0)
(0.00962762 -0.00453122 0)
(0.00840634 -0.00224528 0)
(0.00737308 0.000494273 0)
(0.00652354 0.00352315 0)
(0.00567519 0.00635173 0)
(0.00477766 0.0086281 0)
(0.00383206 0.0102896 0)
(0.0023551 0.0113905 0)
(0.00105834 0.0120161 0)
(0.00032144 0.0106907 0)
(0.0022896 0.0246642 0)
(0.00491659 0.0286907 0)
(0.00900883 0.0280607 0)
(0.0119192 0.0266734 0)
(0.0151645 0.0243613 0)
(0.0179676 0.02128 0)
(0.0202421 0.0176561 0)
(0.0217362 0.0137614 0)
(0.0221926 0.00985746 0)
(0.0215683 0.00613335 0)
(0.0200176 0.00273483 0)
(0.0179035 -0.000220422 0)
(0.0156349 -0.00263664 0)
(0.0133347 -0.00460047 0)
(0.0109359 -0.0064639 0)
(0.00849824 -0.00865319 0)
(0.00658242 -0.0112534 0)
(0.0056833 -0.013824 0)
(0.00550276 -0.0157827 0)
(0.0051954 -0.0170503 0)
(0.00418723 -0.0181087 0)
(0.00290949 -0.0192685 0)
(0.00237378 -0.0199845 0)
(0.00281253 -0.0197001 0)
(0.00323541 -0.018288 0)
(0.00279532 -0.0165627 0)
(0.00190011 -0.0151848 0)
(0.00150476 -0.0140153 0)
(0.00176412 -0.0126647 0)
(0.00203255 -0.0111889 0)
(0.00192402 -0.00989104 0)
(0.0016714 -0.00873601 0)
(0.00158381 -0.00732292 0)
(0.00157564 -0.00536002 0)
(0.00137533 -0.00293942 0)
(0.000978104 -0.000292817 0)
(0.000575757 0.00247765 0)
(0.000270729 0.00530212 0)
(4.71361e-05 0.00798937 0)
(-0.000126776 0.0102928 0)
(-0.000236726 0.0120256 0)
(-0.000558094 0.0130754 0)
(-0.000677512 0.0135372 0)
(-0.000197341 0.0118126 0)
(0.000440534 0.0179494 0)
(0.00246764 0.0206086 0)
(0.00462056 0.0198091 0)
(0.00690023 0.0184521 0)
(0.00930854 0.0166254 0)
(0.0115665 0.0146041 0)
(0.013724 0.0125666 0)
(0.0155097 0.010602 0)
(0.0166828 0.00872477 0)
(0.0171785 0.0068924 0)
(0.0171602 0.00500373 0)
(0.0169506 0.0030796 0)
(0.0168136 0.00111715 0)
(0.0167841 -0.000964409 0)
(0.0167257 -0.00331527 0)
(0.0165352 -0.00600455 0)
(0.0163178 -0.00882845 0)
(0.0162662 -0.0113315 0)
(0.0162522 -0.0131389 0)
(0.0157377 -0.0143034 0)
(0.0142965 -0.0152189 0)
(0.0121429 -0.0161087 0)
(0.0099767 -0.0166647 0)
(0.00825255 -0.0164026 0)
(0.00672773 -0.0152949 0)
(0.00493381 -0.0139028 0)
(0.00293586 -0.0127941 0)
(0.00123975 -0.0120009 0)
(0.000128822 -0.0111976 0)
(-0.00056234 -0.0102142 0)
(-0.00114942 -0.00913785 0)
(-0.00172803 -0.00799873 0)
(-0.00217913 -0.0065929 0)
(-0.00247025 -0.00472826 0)
(-0.00269718 -0.00240166 0)
(-0.00291278 0.000202075 0)
(-0.00307648 0.00288916 0)
(-0.00312313 0.00551595 0)
(-0.00301568 0.00793381 0)
(-0.00274516 0.00996363 0)
(-0.00232623 0.0114281 0)
(-0.00175121 0.0121813 0)
(-0.00139126 0.0123499 0)
(-6.52964e-05 0.0105831 0)
(-0.00012982 0.0147369 0)
(0.00146579 0.0163516 0)
(0.00297017 0.0149914 0)
(0.00492137 0.0131369 0)
(0.0068311 0.0111131 0)
(0.00890575 0.0092488 0)
(0.0113005 0.00770311 0)
(0.0137415 0.00646833 0)
(0.0159861 0.00537512 0)
(0.0178786 0.00420839 0)
(0.0195595 0.00285376 0)
(0.0213111 0.00124226 0)
(0.0232099 -0.000621194 0)
(0.02515 -0.00269546 0)
(0.0268894 -0.00493495 0)
(0.0282063 -0.00720823 0)
(0.0290438 -0.00921398 0)
(0.0294516 -0.0105618 0)
(0.0293497 -0.0110402 0)
(0.0284168 -0.0108373 0)
(0.0263569 -0.0104319 0)
(0.0233016 -0.0101825 0)
(0.0198201 -0.0100227 0)
(0.0164866 -0.00963609 0)
(0.0134504 -0.00892339 0)
(0.0105279 -0.00817635 0)
(0.00767412 -0.00775991 0)
(0.00511571 -0.00770802 0)
(0.00305737 -0.0077293 0)
(0.00143869 -0.00754554 0)
(7.05066e-05 -0.00707167 0)
(-0.00110775 -0.00630015 0)
(-0.00212367 -0.00521617 0)
(-0.003002 -0.00371262 0)
(-0.00370873 -0.00178808 0)
(-0.00422893 0.000421005 0)
(-0.0045383 0.00271663 0)
(-0.00460163 0.00491921 0)
(-0.00439387 0.00687939 0)
(-0.00391457 0.00846224 0)
(-0.00322734 0.00954873 0)
(-0.00213826 0.0100506 0)
(-0.0016121 0.010077 0)
(0.000153508 0.00858271 0)
(1.19425e-05 0.0128921 0)
(0.00114558 0.0139629 0)
(0.00262397 0.0122514 0)
(0.00421589 0.00991718 0)
(0.00557328 0.00737844 0)
(0.00725024 0.00503092 0)
(0.00942688 0.00308022 0)
(0.0118759 0.00154772 0)
(0.014484 0.000289961 0)
(0.0173184 -0.000928835 0)
(0.0203328 -0.00224269 0)
(0.0233619 -0.00372697 0)
(0.0262966 -0.00531158 0)
(0.0289493 -0.00688354 0)
(0.0310393 -0.00832893 0)
(0.032358 -0.00948135 0)
(0.0328927 -0.01007 0)
(0.0327675 -0.00980158 0)
(0.0320397 -0.00858764 0)
(0.0305746 -0.00672121 0)
(0.0281836 -0.00478527 0)
(0.0249208 -0.00330647 0)
(0.0211938 -0.00243429 0)
(0.0175204 -0.00197095 0)
(0.0141683 -0.00172304 0)
(0.0110896 -0.00171878 0)
(0.00818112 -0.00208244 0)
(0.00548036 -0.00274737 0)
(0.0030911 -0.00343791 0)
(0.00104376 -0.00385832 0)
(-0.0007376 -0.00389303 0)
(-0.00245314 -0.00359065 0)
(-0.00409863 -0.00296456 0)
(-0.00546758 -0.00197515 0)
(-0.00649739 -0.000664931 0)
(-0.00717624 0.000855842 0)
(-0.00746855 0.00243492 0)
(-0.00734969 0.00392683 0)
(-0.00682772 0.0052177 0)
(-0.00594195 0.00622148 0)
(-0.00480738 0.00687155 0)
(-0.00324426 0.00711831 0)
(-0.00218795 0.00702585 0)
(-3.61643e-05 0.00593172 0)
(-8.22772e-05 0.0118691 0)
(0.000474988 0.0127051 0)
(0.00178688 0.0109423 0)
(0.00278609 0.00848414 0)
(0.00304081 0.00568964 0)
(0.00330146 0.0029198 0)
(0.0038982 0.000376882 0)
(0.00505343 -0.00187043 0)
(0.00684527 -0.00382675 0)
(0.00912062 -0.00555107 0)
(0.0115894 -0.00710442 0)
(0.0139768 -0.00841707 0)
(0.016049 -0.00939143 0)
(0.0175638 -0.00998891 0)
(0.0183112 -0.010214 0)
(0.0181747 -0.0100326 0)
(0.0172521 -0.0093025 0)
(0.0158443 -0.00780861 0)
(0.0142093 -0.00549174 0)
(0.0123441 -0.00262553 0)
(0.0101092 0.000211304 0)
(0.0074476 0.002411 0)
(0.00453002 0.00366876 0)
(0.00166906 0.00409632 0)
(-0.00092483 0.00395301 0)
(-0.00323783 0.00342024 0)
(-0.00534424 0.00256458 0)
(-0.00729662 0.0014603 0)
(-0.00911213 0.000345777 0)
(-0.0108203 -0.000501375 0)
(-0.0124857 -0.000954115 0)
(-0.0140473 -0.00106461 0)
(-0.0153579 -0.000881611 0)
(-0.0163245 -0.00049006 0)
(-0.0168421 5.24323e-05 0)
(-0.0168123 0.000674706 0)
(-0.0161975 0.00130369 0)
(-0.015011 0.00187969 0)
(-0.0133047 0.00236499 0)
(-0.0111657 0.00273531 0)
(-0.00877437 0.00295924 0)
(-0.00594916 0.00296533 0)
(-0.00358642 0.00275581 0)
(-0.000426757 0.00216222 0)
(-0.000339934 0.011884 0)
(-0.000568934 0.0126241 0)
(5.65948e-05 0.0111372 0)
(-0.000258308 0.00926999 0)
(-0.00217791 0.00708596 0)
(-0.00466363 0.00458483 0)
(-0.00720036 0.00179047 0)
(-0.00932237 -0.00115861 0)
(-0.0107779 -0.00404564 0)
(-0.0116141 -0.00659663 0)
(-0.0120894 -0.00855031 0)
(-0.0125033 -0.00970743 0)
(-0.0131415 -0.0100347 0)
(-0.0142187 -0.0096633 0)
(-0.0158897 -0.0088232 0)
(-0.0181729 -0.00769152 0)
(-0.0209361 -0.00627237 0)
(-0.0238255 -0.00441365 0)
(-0.0264344 -0.0019659 0)
(-0.0286503 0.000934405 0)
(-0.0306128 0.00380799 0)
(-0.0325485 0.00606678 0)
(-0.0344632 0.00735934 0)
(-0.0361748 0.00763549 0)
(-0.0375269 0.00713691 0)
(-0.0385123 0.00615035 0)
(-0.0393159 0.00486784 0)
(-0.0400451 0.00342007 0)
(-0.0406175 0.00199919 0)
(-0.0409482 0.000806858 0)
(-0.0410238 -4.17715e-05 0)
(-0.0408114 -0.000556925 0)
(-0.0402373 -0.000893079 0)
(-0.0392143 -0.00119099 0)
(-0.0376301 -0.00150913 0)
(-0.0354002 -0.00186205 0)
(-0.0325038 -0.00223768 0)
(-0.0289791 -0.00260369 0)
(-0.0248984 -0.0029128 0)
(-0.0203708 -0.00312105 0)
(-0.0156172 -0.00321074 0)
(-0.010415 -0.00323688 0)
(-0.00590212 -0.00329223 0)
(-0.000896043 -0.00298619 0)
(-0.0003789 0.0130502 0)
(-0.00217513 0.0141471 0)
(-0.00341548 0.013595 0)
(-0.00669601 0.0133039 0)
(-0.0121735 0.0126914 0)
(-0.0187197 0.0110985 0)
(-0.0256511 0.00835569 0)
(-0.0324216 0.00476597 0)
(-0.0386387 0.000931791 0)
(-0.0442183 -0.00250922 0)