/*--------------------------------*- C++ -*----------------------------------*\
  =========                 |
  \\      /  F ield         | OpenFOAM: The Open Source CFD Toolbox
   \\    /   O peration     | Website:  https://openfoam.org
    \\  /    A nd           | Version:  7
     \\/     M anipulation  |
\*---------------------------------------------------------------------------*/
FoamFile
{
    version     2.0;
    format      ascii;
    class       volScalarField;
    location    "3.2";
    object      p;
}
// * * * * * * * * * * * * * * * * * * * * * * * * * * * * * * * * * * * * * //

dimensions      [0 2 -2 0 0 0 0];

internalField   nonuniform List<scalar> 
900
(
9.36496e-10
-0.000114861
-0.000233857
-0.000324273
-0.000359826
-0.000328032
-0.000225756
-5.41741e-05
0.000183952
0.000485412
0.000846809
0.00126436
0.00173352
0.00224848
0.00280178
0.00338398
0.00398341
0.00458618
0.00517632
0.00573621
0.00624734
0.00669138
0.00705156
0.0073144
0.0074718
0.00752338
0.00747935
0.00736425
0.00721776
0.0070902
0.000113533
-2.67405e-06
-8.50151e-05
-0.000136373
-0.000143078
-9.4778e-05
1.24566e-05
0.000179422
0.000405439
0.000688919
0.00102754
0.00141816
0.00185659
0.0023373
0.00285311
0.00339495
0.00395173
0.00451048
0.00505642
0.00557351
0.00604526
0.00645575
0.00679105
0.00704074
0.00719964
0.00726929
0.00725964
0.0071913
0.00709018
0.00696305
0.000235974
7.67831e-05
-7.56893e-06
-5.03637e-05
-4.86552e-05
4.99783e-06
0.000113293
0.000276907
0.000495693
0.000768791
0.00109459
0.00147056
0.00189306
0.00235701
0.00285563
0.00338023
0.00392022
0.00446284
0.00499367
0.00549703
0.00595679
0.00635745
0.00668552
0.00693115
0.00708956
0.00716219
0.00715802
0.00709531
0.00698927
0.00681663
0.000332075
0.000122606
2.42123e-05
-2.11111e-05
-1.89096e-05
3.53018e-05
0.00014245
0.000302483
0.000515325
0.000780583
0.00109727
0.00146356
0.00187644
0.00233143
0.00282229
0.00334074
0.0038764
0.00441663
0.00494689
0.00545118
0.00591285
0.00631574
0.00664574
0.00689238
0.00705032
0.00712032
0.00711043
0.00703772
0.00691104
0.00668555
0.00037072
0.000115207
3.11243e-07
-5.18997e-05
-5.3176e-05
-1.28753e-06
0.0001031
0.000259188
0.000466877
0.000726177
0.00103673
0.00139742
0.00180599
0.00225865
0.00274973
0.00327137
0.00381334
0.00436289
0.00490497
0.00542268
0.00589812
0.00631368
0.00665369
0.0069063
0.00706512
0.00713013
0.00710905
0.00701925
0.00686701
0.00659253
0.000332221
3.67108e-05
-9.49636e-05
-0.000156295
-0.000163454
-0.000115777
-1.51711e-05
0.000136974
0.000340577
0.000596063
0.000903727
0.00126324
0.00167316
0.0021305
0.00263022
0.00316491
0.00372443
0.00429569
0.00486274
0.00540724
0.00590931
0.00634897
0.00670812
0.00697275
0.0071349
0.0071939
0.00715788
0.00704611
0.00686532
0.00654619
0.000205159
-0.000125101
-0.000272969
-0.00034433
-0.000358578
-0.000316112
-0.000219746
-7.12679e-05
0.000129366
0.000383068
0.000690867
0.00105332
0.00146993
0.00193862
0.00245515
0.00301259
0.00360089
0.0042065
0.00481226
0.00539781
0.00594051
0.00641708
0.00680591
0.00708989
0.007259
0.00731191
0.00725798
0.00711997
0.00690745
0.00654526
-1.7771e-05
-0.000379501
-0.000542956
-0.000624631
-0.000646497
-0.000609709
-0.000517751
-0.000372642
-0.000174092
7.94088e-05
0.000389746
0.000758508
0.00118634
0.00167227
0.00221305
0.00280244
0.00343058
0.00408347
0.00474244
0.00538465
0.00598385
0.0065123
0.00694358
0.00725628
0.0074374
0.00748487
0.00741002
0.00724074
0.00699159
0.00658345
-0.000342268
-0.000734413
-0.000913346
-0.00100557
-0.00103542
-0.00100466
-0.000917341
-0.000775609
-0.000578826
-0.000324761
-1.05152e-05
0.000366733
0.000809003
0.00131676
0.00188809
0.00251777
0.0031964
0.00390971
0.00463745
0.00535386
0.00602819
0.00662684
0.0071169
0.00747082
0.00767127
0.00771482
0.00761542
0.00740799
0.00711423
0.00665179
-0.000773824
-0.0011973
-0.00139226
-0.00149553
-0.00153388
-0.00150972
-0.00142768
-0.00128999
-0.00109562
-0.000841494
-0.000523525
-0.000137419
0.000320548
0.000852684
0.00145893
0.00213566
0.00287438
0.00366099
0.00447395
0.00528435
0.00605605
0.00674797
0.00731839
0.00773102
0.00796183
0.00800469
0.00787646
0.00762123
0.00727065
0.00673886
-0.00131852
-0.00177584
-0.00198802
-0.00210321
-0.00215092
-0.0021344
-0.00205894
-0.00192697
-0.00173701
-0.00148507
-0.00116571
-0.000772894
-0.000300823
0.000255177
0.000897603
0.00162519
0.00243105
0.00330274
0.00421764
0.00514394
0.00603948
0.00685393
0.00753382
0.00803032
0.00830886
0.00835782
0.00819644
0.00788051
0.00745517
0.0068299
-0.00198345
-0.00247845
-0.00270962
-0.00283799
-0.00289635
-0.00288905
-0.00282235
-0.00269899
-0.00251713
-0.00227181
-0.00195614
-0.00156209
-0.00108139
-0.000506442
0.00016857
0.000945665
0.00182083
0.00278662
0.00381887
0.00488395
0.00593388
0.00690761
0.00773641
0.00835365
0.00870799
0.00877706
0.00858012
0.00818719
0.00766159
0.00690554
-0.002777
-0.00331467
-0.00356707
-0.00371018
-0.00378082
-0.00378488
-0.00372997
-0.00361945
-0.00345125
-0.00321956
-0.00291595
-0.00253027
-0.00205145
-0.00146844
-0.000771348
4.72864e-05
0.000990253
0.00204833
0.00320708
0.00443153
0.00566866
0.00684621
0.00787678
0.00866895
0.00914509
0.00926228
0.00903386
0.00854544
0.00788435
0.0069407
-0.00370895
-0.00429548
-0.00457175
-0.00473128
-0.00481594
-0.00483379
-0.00479439
-0.00470213
-0.00455507
-0.00434671
-0.00406724
-0.00370442
-0.00324427
-0.00267184
-0.00197224
-0.00113196
-0.000141389
0.000999554
0.00228366
0.00367932
0.0051335
0.00656499
0.00786567
0.00891146
0.00958444
0.0098041
0.0095644
0.00896419
0.00812102
0.0069046
-0.0047908
-0.00543385
-0.00573681
-0.00591421
-0.00601426
-0.00604814
-0.00602815
-0.0059604
-0.0058435
-0.0056707
-0.00543122
-0.00511105
-0.00469352
-0.0041598
-0.00348959
-0.0026622
-0.00165933
-0.000470728
0.000915682
0.00247398
0.00416065
0.00589333
0.00754603
0.00895554
0.00994519
0.0103687
0.0101732
0.00945872
0.00837667
0.00676286
-0.00603613
-0.00674532
-0.00707781
-0.00727364
-0.00738931
-0.00744038
-0.00744306
-0.00740599
-0.00732907
-0.00720595
-0.00702554
-0.00677288
-0.00642942
-0.00597324
-0.00537916
-0.00461918
-0.00366331
-0.0024819
-0.00106446
0.000606704
0.0025059
0.00456491
0.00665314
0.00856937
0.0100584
0.0108657
0.01084
0.0100488
0.00867008
0.0064827
-0.0074615
-0.00824922
-0.0086136
-0.00882659
-0.00895565
-0.00902264
-0.00904919
-0.00904758
-0.00901987
-0.00896098
-0.00886062
-0.00870412
-0.00847271
-0.00814323
-0.00768765
-0.00707252
-0.00625852
-0.00520152
-0.00385972
-0.00218495
-0.000159444
0.00219392
0.00477223
0.0073565
0.00960195
0.011091
0.0114865
0.0107479
0.0090411
0.00604308
-0.0090879
-0.00997055
-0.0103679
-0.0105932
-0.010729
-0.0108062
-0.0108537
-0.0108889
-0.0109169
-0.010935
-0.0109349
-0.0109042
-0.0108262
-0.0106797
-0.0104376
-0.0100654
-0.00951853
-0.0087395
-0.00765421
-0.00617943
-0.00422049
-0.00171204
0.00132732
0.00471447
0.00803327
0.0106507
0.0119169
0.0115374
0.00955933
0.00545468
-0.0109434
-0.0119431
-0.0123716
-0.012598
-0.0127265
-0.0128005
-0.0128594
-0.0129265
-0.0130111
-0.0131138
-0.0132297
-0.0133506
-0.013465
-0.0135579
-0.0136089
-0.0135895
-0.0134584
-0.0131533
-0.0125782
-0.0115922
-0.0100207
-0.00764882
-0.0043293
-0.000112135
0.00458961
0.00891518
0.0117577
0.0123327
0.0103381
0.00480446
-0.013068
-0.0142147
-0.0146665
-0.0148718
-0.0149664
-0.0150126
-0.0150625
-0.0151471
-0.0152801
-0.0154657
-0.0157037
-0.0159918
-0.016327
-0.0167049
-0.0171189
-0.0175558
-0.017989
-0.0183644
-0.0185797
-0.0184485
-0.0176646
-0.0158713
-0.0126472
-0.00777369
-0.00151515
0.00512008
0.0104758
0.0129794
0.0115678
0.00435487
-0.0155217
-0.0168555
-0.0173106
-0.0174531
-0.017468
-0.0174442
-0.0174499
-0.017524
-0.017684
-0.0179374
-0.0182886
-0.0187423
-0.0193062
-0.0199909
-0.0208094
-0.021773
-0.0228817
-0.0241054
-0.0253492
-0.026391
-0.0268087
-0.0261008
-0.023481
-0.0183391
-0.0106084
-0.00124394
0.00761809
0.0133694
0.0135963
0.00473891
-0.0184009
-0.0199726
-0.0203855
-0.0203901
-0.0202489
-0.0200879
-0.0199938
-0.020012
-0.0201613
-0.0204502
-0.0208865
-0.0214818
-0.0222548
-0.0232331
-0.024453
-0.0259555
-0.0277756
-0.0299162
-0.0323023
-0.0347118
-0.0366805
-0.0373477
-0.0357648
-0.0308294
-0.0219685
-0.00980805
0.00332413
0.0137608
0.0170994
0.00727514
-0.0218703
-0.0237327
-0.0240058
-0.0237389
-0.0233179
-0.0229176
-0.0226424
-0.0225386
-0.0226211
-0.0228955
-0.0233695
-0.0240595
-0.0249937
-0.0262155
-0.0277835
-0.0297679
-0.0322374
-0.0352279
-0.0386853
-0.0423776
-0.045778
-0.0479201
-0.047524
-0.0430909
-0.0334879
-0.0187881
-0.00107205
0.0152678
0.0233973
0.0143569
-0.0262323
-0.0284005
-0.028328
-0.027555
-0.0266592
-0.0258711
-0.0253024
-0.0249889
-0.0249323
-0.0251279
-0.0255788
-0.0263016
-0.0273308
-0.0287206
-0.0305466
-0.0329006
-0.0358744
-0.0395228
-0.0437978
-0.0484479
-0.0528926
-0.0560853
-0.0565001
-0.0523809
-0.0420768
-0.0250614
-0.00278936
0.0202855
0.0349198
0.0297543
-0.03208
-0.034396
-0.0335481
-0.031866
-0.0301984
-0.0288159
-0.0278087
-0.02718
-0.0269026
-0.0269519
-0.0273191
-0.0280156
-0.0290754
-0.0305575
-0.0325446
-0.0351365
-0.0384296
-0.0424712
-0.0471978
-0.0523093
-0.0571547
-0.0606041
-0.0609999
-0.0564321
-0.0447886
-0.0251351
0.00188398
0.0324869
0.0555698
0.0585328
-0.0406621
-0.0423701
-0.0398494
-0.0365941
-0.033726
-0.0314798
-0.0298637
-0.0288099
-0.0282398
-0.0280939
-0.0283414
-0.0289808
-0.0300373
-0.0315669
-0.0336469
-0.0363689
-0.0398116
-0.0439925
-0.0487911
-0.0538359
-0.0583845
-0.0612124
-0.0604817
-0.054115
-0.0399242
-0.0164918
0.0163077
0.0559211
0.0902221
0.106487
-0.0549698
-0.053315
-0.0472661
-0.041402
-0.036757
-0.033333
-0.0309432
-0.0293912
-0.0285109
-0.0281819
-0.0283377
-0.0289515
-0.0300332
-0.0316229
-0.0337824
-0.0365789
-0.0400525
-0.044163
-0.0487101
-0.053224
-0.0568546
-0.0582831
-0.0553766
-0.0459841
-0.0276686
0.00144887
0.0419515
0.0929929
0.142561
0.181086
-0.0826691
-0.0682707
-0.0556013
-0.0456003
-0.0384452
-0.0335667
-0.0303449
-0.0283536
-0.0272737
-0.0268931
-0.0270863
-0.0277916
-0.0289955
-0.0307182
-0.0329983
-0.0358692
-0.0393206
-0.0432407
-0.0473321
-0.0510048
-0.0532663
-0.0526103
-0.0471378
-0.0339999
-0.010441
0.0261271
0.0772725
0.143491
0.214466
0.297076
-0.135023
-0.0834568
-0.0624844
-0.0466594
-0.0365084
-0.030399
-0.0268205
-0.024859
-0.0239837
-0.0238838
-0.0243825
-0.0253906
-0.0268782
-0.0288521
-0.0313327
-0.0343249
-0.0377769
-0.0415201
-0.0451868
-0.0481007
-0.0491611
-0.0467439
-0.0388358
-0.0224638
0.00579169
0.0498885
0.113634
0.202062
0.311167
0.481852
-0.307137
-0.0928941
-0.0447773
-0.0276643
-0.0189893
-0.0151632
-0.0141199
-0.0144093
-0.0153462
-0.0166754
-0.0183062
-0.020216
-0.0224226
-0.0249651
-0.0278826
-0.0311861
-0.0348197
-0.0386037
-0.0421622
-0.044834
-0.0455882
-0.0429163
-0.0345084
-0.0174678
0.0117311
0.0584159
0.129966
0.244301
0.42026
0.764843
)
;

boundaryField
{
    movingWall
    {
        type            zeroGradient;
    }
    fixedWalls
    {
        type            zeroGradient;
    }
    frontAndBack
    {
        type            empty;
    }
}


// ************************************************************************* //
