/*--------------------------------*- C++ -*----------------------------------*\
  =========                 |
  \\      /  F ield         | OpenFOAM: The Open Source CFD Toolbox
   \\    /   O peration     | Website:  https://openfoam.org
    \\  /    A nd           | Version:  7
     \\/     M anipulation  |
\*---------------------------------------------------------------------------*/
FoamFile
{
    version     2.0;
    format      ascii;
    class       surfaceScalarField;
    location    "3.2";
    object      phi;
}
// * * * * * * * * * * * * * * * * * * * * * * * * * * * * * * * * * * * * * //

dimensions      [0 3 -1 0 0 0 0];

internalField   nonuniform List<scalar> 
1740
(
2.83248e-07
-2.83249e-07
-7.67022e-07
1.05027e-06
-3.16344e-06
2.39642e-06
-6.53623e-06
3.37279e-06
-1.04983e-05
3.96206e-06
-1.47343e-05
4.23596e-06
-1.90162e-05
4.28196e-06
-2.31883e-05
4.17205e-06
-2.71425e-05
3.95426e-06
-3.07981e-05
3.65559e-06
-3.4086e-05
3.28787e-06
-3.69396e-05
2.85363e-06
-3.92905e-05
2.35084e-06
-4.10669e-05
1.77648e-06
-4.2196e-05
1.12906e-06
-4.26067e-05
4.10667e-07
-4.22352e-05
-3.71449e-07
-4.10319e-05
-1.20333e-06
-3.89693e-05
-2.06257e-06
-3.60521e-05
-2.91727e-06
-3.23271e-05
-3.72493e-06
-2.7895e-05
-4.43212e-06
-2.29199e-05
-4.97504e-06
-1.76385e-05
-5.28142e-06
-1.23645e-05
-5.27399e-06
-7.48739e-06
-4.87715e-06
-3.45413e-06
-4.03325e-06
-7.17364e-07
-2.73677e-06
3.87139e-07
-1.10451e-06
3.87133e-07
-1.04801e-06
7.6476e-07
-4.97349e-06
4.97575e-06
-1.15494e-05
8.97232e-06
-2.01188e-05
1.19422e-05
-2.99657e-05
1.3809e-05
-4.04514e-05
1.47216e-05
-5.10645e-05
1.48951e-05
-6.14187e-05
1.45262e-05
-7.12243e-05
1.37599e-05
-8.02557e-05
1.26869e-05
-8.83224e-05
1.13546e-05
-9.52505e-05
9.78176e-06
-0.000100871
7.97177e-06
-0.000105019
5.92372e-06
-0.00010753
3.64063e-06
-0.000108255
1.13563e-06
-0.000107067
-1.56013e-06
-0.000103872
-4.39793e-06
-9.86352e-05
-7.2993e-06
-9.1395e-05
-1.01575e-05
-8.2287e-05
-1.28329e-05
-7.15666e-05
-1.51525e-05
-5.96279e-05
-1.69138e-05
-4.7016e-05
-1.78933e-05
-3.44267e-05
-1.78633e-05
-2.2683e-05
-1.66209e-05
-1.26753e-05
-1.4041e-05
-5.24895e-06
-1.01631e-05
-1.02967e-06
-5.3238e-06
-6.42541e-07
-2.48283e-06
3.24759e-06
-9.26694e-06
1.17599e-05
-1.95501e-05
1.92555e-05
-3.24083e-05
2.48003e-05
-4.69065e-05
2.83072e-05
-6.22114e-05
3.00266e-05
-7.76387e-05
3.03223e-05
-9.26519e-05
2.95395e-05
-0.000106835
2.79433e-05
-0.000119857
2.57085e-05
-0.000131436
2.29342e-05
-0.000141321
1.96665e-05
-0.000149272
1.59226e-05
-0.000155059
1.17104e-05
-0.000158462
7.0442e-06
-0.000159285
1.95827e-06
-0.000157361
-3.48432e-06
-0.000152579
-9.17904e-06
-0.000144908
-1.49712e-05
-0.000134415
-2.06498e-05
-0.000121306
-2.59418e-05
-0.000105946
-3.05126e-05
-8.88853e-05
-3.39747e-05
-7.08703e-05
-3.59083e-05
-5.28361e-05
-3.58975e-05
-3.58678e-05
-3.35892e-05
-2.11223e-05
-2.87865e-05
-9.70404e-06
-2.15814e-05
-2.4894e-06
-1.25384e-05
-3.13194e-06
-3.67172e-06
6.91931e-06
-1.29358e-05
2.10239e-05
-2.64132e-05
3.27329e-05
-4.28516e-05
4.12388e-05
-6.11158e-05
4.65714e-05
-8.02305e-05
4.91412e-05
-9.93989e-05
4.94908e-05
-0.000117991
4.81316e-05
-0.000135511
4.54628e-05
-0.000151556
4.17544e-05
-0.000165788
3.71654e-05
-0.000177897
3.17762e-05
-0.000187598
2.56229e-05
-0.000194613
1.87261e-05
-0.000198685
1.11159e-05
-0.000199579
2.85171e-06
-0.0001971
-5.96314e-06
-0.00019112
-1.51588e-05
-0.000181602
-2.44892e-05
-0.000168633
-3.36185e-05
-0.000152461
-4.21137e-05
-0.000133527
-4.9447e-05
-0.00011249
-5.50114e-05
-9.02418e-05
-5.81568e-05
-6.78888e-05
-5.82505e-05
-4.67092e-05
-5.47688e-05
-2.80693e-05
-4.74264e-05
-1.33078e-05
-3.63428e-05
-3.61332e-06
-2.22329e-05
-6.74526e-06
-4.5924e-06
1.15117e-05
-1.59068e-05
3.23383e-05
-3.20645e-05
4.88906e-05
-5.14922e-05
6.06665e-05
-7.28581e-05
6.79373e-05
-9.50642e-05
7.13473e-05
-0.000117232
7.16582e-05
-0.00013867
6.95698e-05
-0.000158834
6.56271e-05
-0.000177282
6.02023e-05
-0.000193635
5.35182e-05
-0.00020755
4.56916e-05
-0.000218706
3.67781e-05
-0.00022679
2.68109e-05
-0.000231509
1.58349e-05
-0.000232592
3.93459e-06
-0.000229811
-8.74467e-06
-0.000223005
-2.19643e-05
-0.000212118
-3.53766e-05
-0.000197231
-4.85052e-05
-0.000178611
-6.07335e-05
-0.000156749
-7.13094e-05
-0.00013239
-7.93704e-05
-0.000106548
-8.39985e-05
-8.04889e-05
-8.43098e-05
-5.56766e-05
-7.9581e-05
-3.36886e-05
-6.94145e-05
-1.61058e-05
-5.39256e-05
-4.41442e-06
-3.39243e-05
-1.11597e-05
-5.3008e-06
1.68125e-05
-1.8296e-05
4.53335e-05
-3.67057e-05
6.73004e-05
-5.86668e-05
8.26276e-05
-8.26607e-05
9.19312e-05
-0.000107476
9.61622e-05
-0.000132165
9.63477e-05
-0.000155997
9.34018e-05
-0.000178399
8.8029e-05
-0.000198906
8.07092e-05
-0.000217118
7.17304e-05
-0.000232671
6.12442e-05
-0.000245214
4.93214e-05
-0.000254406
3.60029e-05
-0.000259913
2.13418e-05
-0.00026142
5.44116e-06
-0.000258647
-1.15169e-05
-0.000251385
-2.92268e-05
-0.000239527
-4.72343e-05
-0.000223124
-6.49085e-05
-0.000202433
-8.14241e-05
-0.000177975
-9.57675e-05
-0.000150572
-0.000106773
-0.000121367
-0.000113204
-9.18022e-05
-0.000113874
-6.3562e-05
-0.000107821
-3.84687e-05
-9.45078e-05
-1.83633e-05
-7.4031e-05
-4.99815e-06
-4.72894e-05
-1.61578e-05
-5.87138e-06
2.26839e-05
-2.02876e-05
5.97497e-05
-4.06483e-05
8.76611e-05
-6.48359e-05
0.000106815
-9.11577e-05
0.000118253
-0.000118295
0.0001233
-0.000145242
0.000123295
-0.000171236
0.000119396
-0.00019569
0.000112483
-0.00021813
0.000103149
-0.000238148
9.17477e-05
-0.000255363
7.84594e-05
-0.000269405
6.33631e-05
-0.000279898
4.64962e-05
-0.000286464
2.79076e-05
-0.000288727
7.70505e-06
-0.000286339
-1.39053e-05
-0.000279006
-3.65599e-05
-0.000266542
-5.96983e-05
-0.000248928
-8.25226e-05
-0.000226382
-0.00010397
-0.000199433
-0.000122717
-0.000168975
-0.000137231
-0.000136301
-0.000145878
-0.000103077
-0.000147098
-7.12656e-05
-0.000139633
-4.29943e-05
-0.000122779
-2.03992e-05
-9.6626e-05
-5.47878e-06
-6.22099e-05
-2.16366e-05
-6.37211e-06
2.9056e-05
-2.20674e-05
7.54451e-05
-4.42146e-05
0.000109808
-7.04676e-05
0.000133068
-9.89712e-05
0.000146757
-0.000128306
0.000152634
-0.000157411
0.0001524
-0.000185503
0.000147488
-0.000211989
0.000138969
-0.000236397
0.000127557
-0.000258319
0.000113669
-0.000277367
9.75079e-05
-0.000293153
7.91487e-05
-0.000305266
5.86097e-05
-0.000313274
3.59157e-05
-0.000316727
1.11578e-05
-0.000315177
-1.54557e-05
-0.000308213
-4.35235e-05
-0.000295526
-7.23852e-05
-0.000276981
-0.000101068
-0.000252712
-0.000128239
-0.000223225
-0.000152204
-0.000189482
-0.000170973
-0.000152951
-0.000182408
-0.000115584
-0.000184466
-7.97097e-05
-0.000175507
-4.7856e-05
-0.000154633
-2.25191e-05
-0.000121963
-5.95185e-06
-7.87771e-05
-2.75885e-05
-6.85623e-06
3.59122e-05
-2.3793e-05
9.23818e-05
-4.7686e-05
0.000133701
-7.59723e-05
0.000161354
-0.00010664
0.000177424
-0.000138172
0.000184166
-0.00016946
0.000183688
-0.000199705
0.000177733
-0.000228318
0.000167583
-0.00025484
0.000154079
-0.000278871
0.0001377
-0.000300027
0.000118664
-0.000317905
9.70265e-05
-0.000332061
7.27657e-05
-0.000342001
4.58562e-05
-0.000347184
1.63406e-05
-0.000347037
-1.56033e-05
-0.000340989
-4.95713e-05
-0.000328553
-8.4821e-05
-0.000309415
-0.000120206
-0.000283562
-0.000154092
-0.000251425
-0.000184341
-0.000214011
-0.000208387
-0.000172987
-0.000223433
-0.000130664
-0.000226789
-8.98644e-05
-0.000216306
-5.3656e-05
-0.000190841
-2.50125e-05
-0.000150606
-6.49471e-06
-9.72949e-05
-3.40832e-05
-7.36269e-06
4.32749e-05
-2.55866e-05
0.000110606
-5.12865e-05
0.000159401
-8.16783e-05
0.000191746
-0.000114591
0.000210337
-0.000148413
0.000217988
-0.000181991
0.000217267
-0.000214521
0.000210262
-0.000245428
0.00019849
-0.000274276
0.000182927
-0.000300689
0.000164113
-0.000324296
0.000142271
-0.00034469
0.000117421
-0.000361401
8.94765e-05
-0.000373872
5.83272e-05
-0.000381457
2.39257e-05
-0.000383434
-1.36265e-05
-0.000379024
-5.3981e-05
-0.000367497
-9.63479e-05
-0.000348276
-0.000139428
-0.000321103
-0.000181265
-0.000286246
-0.000219198
-0.0002447
-0.000249934
-0.000198329
-0.000269804
-0.000149893
-0.000275225
-0.000102873
-0.000263326
-6.10907e-05
-0.000232623
-2.81976e-05
-0.000183499
-7.18185e-06
-0.000118311
-4.1265e-05
-7.91932e-06
5.11942e-05
-2.75397e-05
0.000130226
-5.51861e-05
0.000187048
-8.78338e-05
0.000224394
-0.000123144
0.000245647
-0.000159406
0.00025425
-0.000195431
0.000253292
-0.000230416
0.000245247
-0.000263815
0.000231888
-0.00029523
0.000214342
-0.000324327
0.00019321
-0.000350766
0.00016871
-0.000374155
0.000140811
-0.000394011
0.000109332
-0.000409723
7.40395e-05
-0.000420539
3.47417e-05
-0.000425578
-8.58783e-06
-0.000423788
-5.57706e-05
-0.000414129
-0.000106007
-0.000395648
-0.000157909
-0.000367705
-0.000209208
-0.000330254
-0.000256648
-0.000284152
-0.000296036
-0.000231419
-0.000322537
-0.000175337
-0.000331307
-0.000120263
-0.0003184
-7.10979e-05
-0.000281788
-3.24989e-05
-0.000222098
-8.10918e-06
-0.0001427
-4.93742e-05
-8.54671e-06
5.9741e-05
-2.9722e-05
0.000151401
-5.95139e-05
0.000216839
-9.46244e-05
0.000259504
-0.000132528
0.000283551
-0.000171414
0.000293136
-0.000210059
0.000291936
-0.000247673
0.000282861
-0.000283758
0.000267973
-0.000317974
0.000248559
-0.000350051
0.000225286
-0.000379708
0.000198367
-0.000406597
0.0001677
-0.000430249
0.000132984
-0.000450027
9.38173e-05
-0.000465073
4.97877e-05
-0.000474388
7.27461e-07
-0.000476545
-5.36142e-05
-0.000470154
-0.000112398
-0.000453736
-0.000174327
-0.000426071
-0.000236873
-0.000386565
-0.000296155
-0.00033571
-0.000346891
-0.000275535
-0.000382712
-0.000209878
-0.000396964
-0.000144237
-0.000384041
-8.50634e-05
-0.000340962
-3.8558e-05
-0.000268604
-9.42695e-06
-0.000171831
-5.88012e-05
-9.26247e-06
6.90034e-05
-3.21928e-05
0.000174332
-6.43776e-05
0.000249024
-0.000102198
0.000297325
-0.000142918
0.000324271
-0.000184616
0.000334834
-0.000226041
0.000333361
-0.000266435
0.000323255
-0.000305361
0.000306899
-0.000342567
0.000285765
-0.000377876
0.000260595
-0.000411102
0.000231593
-0.000441983
0.000198581
-0.000470113
0.000161114
-0.000494876
0.00011858
-0.000515387
7.02986e-05
-0.000530343
1.56833e-05
-0.000538262
-4.56954e-05
-0.000537119
-0.000113541
-0.000524785
-0.000186661
-0.000499204
-0.000262453
-0.00045889
-0.000336469
-0.000403589
-0.000402193
-0.000335032
-0.000451269
-0.000257524
-0.000474472
-0.000177984
-0.000463581
-0.000105067
-0.000413879
-4.73712e-05
-0.0003263
-1.13812e-05
-0.000207821
-7.01823e-05
-1.00856e-05
7.90891e-05
-3.5014e-05
0.00019926
-6.98842e-05
0.000283894
-0.000110694
0.000338135
-0.000154461
0.000368038
-0.000199145
0.000379518
-0.000243475
0.000377691
-0.000286737
0.000366517
-0.000328587
0.000348748
-0.000368884
0.000326063
-0.000407583
0.000299294
-0.000444637
0.000268648
-0.000479925
0.000233868
-0.000513169
0.000194358
-0.000543846
0.000149258
-0.000571084
9.7537e-05
-0.000593536
3.81346e-05
-0.000609379
-2.9852e-05
-0.00061609
-0.00010683
-0.000610704
-0.000192048
-0.000590021
-0.000283136
-0.000551195
-0.000375294
-0.000492653
-0.000460735
-0.000415273
-0.000528649
-0.000323514
-0.000566231
-0.000225897
-0.000561197
-0.000134111
-0.000505665
-6.04353e-05
-0.000399976
-1.43593e-05
-0.000253897
-8.45417e-05
-1.10417e-05
9.01308e-05
-3.82644e-05
0.000226483
-7.61639e-05
0.000321794
-0.000120272
0.000382243
-0.000167316
0.000415082
-0.000215126
0.000427328
-0.000262419
0.000424983
-0.00030855
0.000412648
-0.000353287
0.000393486
-0.00039664
0.000369416
-0.000438731
0.000341385
-0.000479704
0.000309621
-0.000519643
0.000273807
-0.000558482
0.000233197
-0.000595893
0.000186669
-0.000631145
0.000132788
-0.00066291
6.99001e-05
-0.000689197
-3.56518e-06
-0.000706914
-8.91127e-05
-0.000712181
-0.000186781
-0.000700338
-0.000294978
-0.000666639
-0.000408994
-0.000607426
-0.000519948
-0.000521863
-0.000614212
-0.000413871
-0.000674223
-0.000293462
-0.000681607
-0.000176206
-0.000622921
-7.98588e-05
-0.000496323
-1.89329e-05
-0.000314823
-0.000103475
-1.21687e-05
0.000102299
-4.20565e-05
0.000256371
-8.33963e-05
0.000363134
-0.000131143
0.00042999
-0.000181683
0.000465622
-0.000232704
0.000478349
-0.000282925
0.000475204
-0.000331793
0.000461515
-0.000379219
0.000440912
-0.000425391
0.000415588
-0.000470639
0.000386633
-0.000515346
0.000354328
-0.000559868
0.00031833
-0.000604444
0.000277772
-0.000649062
0.000231288
-0.000693281
0.000177007
-0.000735981
0.0001126
-0.000775004
3.54584e-05
-0.000807064
-5.70534e-05
-0.000827175
-0.000166669
-0.000829032
-0.000293122
-0.000805482
-0.000432544
-0.00074994
-0.00057549
-0.00065871
-0.000705442
-0.000533969
-0.000798964
-0.000386467
-0.000829108
-0.000236138
-0.00077325
-0.000108386
-0.000624075
-2.58916e-05
-0.000397318
-0.000129366
-1.35258e-05
0.000115825
-4.65589e-05
0.000289404
-9.18425e-05
0.000408417
-0.000143609
0.000481757
-0.00019784
0.000519853
-0.000252076
0.000532585
-0.000305057
0.000528186
-0.000356351
0.000512809
-0.000406043
0.000490603
-0.000454522
0.000464067
-0.000502355
0.000434466
-0.000550198
0.000402171
-0.000598735
0.000366866
-0.000648586
0.000327623
-0.000700173
0.000282875
-0.000753499
0.000230334
-0.000807829
0.00016693
-0.000861222
8.88512e-05
-0.000910168
-8.10685e-06
-0.000948893
-0.000127944
-0.000969441
-0.000272574
-0.000961992
-0.000439993
-0.000916341
-0.000621141
-0.000824695
-0.000797087
-0.000685741
-0.000937919
-0.000509193
-0.00100566
-0.000318701
-0.000963742
-0.000149285
-0.000793491
-3.62843e-05
-0.000510319
-0.00016565
-1.52065e-05
0.000131032
-5.20279e-05
0.000326225
-0.000101886
0.000458276
-0.000158098
0.000537969
-0.000216169
0.000577924
-0.000273498
0.000589914
-0.000328886
0.000583574
-0.000382055
0.000565978
-0.000433288
0.000541836
-0.000483194
0.000513973
-0.000532581
0.000483853
-0.000582392
0.000451981
-0.000633652
0.000418127
-0.000687406
0.000381377
-0.000744581
0.000340049
-0.000805754
0.000291506
-0.000870768
0.000231943
-0.000938185
0.000156269
-0.00100456
5.82643e-05
-0.00106381
-6.86939e-05
-0.00110674
-0.000229643
-0.0011211
-0.000425626
-0.00109294
-0.00064931
-0.00100941
-0.00088061
-0.000863682
-0.00108365
-0.00066138
-0.00120796
-0.00042715
-0.00119797
-0.000206023
-0.00101462
-5.14959e-05
-0.000664846
-0.000217146
-1.73597e-05
0.000148391
-5.88536e-05
0.000367719
-0.000114089
0.000513511
-0.000175206
0.000599086
-0.000237175
0.000639892
-0.000297284
0.000650023
-0.000354452
0.000640742
-0.000408608
0.000620135
-0.000460258
0.000593486
-0.00051023
0.000563945
-0.000559557
0.00053318
-0.000609431
0.000501856
-0.000661187
0.000469882
-0.000716257
0.000436448
-0.00077607
0.000399862
-0.000841812
0.000357249
-0.000914033
0.000304165
-0.000992026
0.000234262
-0.00107303
0.000139265
-0.00115102
9.30233e-06
-0.0012168
-0.000163863
-0.00125659
-0.000385838
-0.00125347
-0.000652429
-0.00118953
-0.000944554
-0.00105061
-0.00122257
-0.000834269
-0.0014243
-0.000560641
-0.0014716
-0.000281534
-0.00129373
-7.33662e-05
-0.000873013
-0.000290513
-2.02287e-05
0.00016862
-6.7635e-05
0.000415125
-0.000129261
0.000575136
-0.000195743
0.000665569
-0.000261475
0.000705624
-0.000323726
0.000712274
-0.000381637
0.000698653
-0.000435416
0.000673914
-0.000485818
0.000643888
-0.000533878
0.000612005
-0.000580807
0.000580109
-0.000627973
0.000549021
-0.000676913
0.000518823
-0.000729333
0.000488868
-0.000787032
0.000457561
-0.000851722
0.000421939
-0.00092466
0.000377103
-0.00100606
0.000315657
-0.00109421
0.000227419
-0.00118468
9.9776e-05
-0.00126846
-8.0089e-05
-0.00133301
-0.000321286
-0.0013602
-0.000625237
-0.00132828
-0.000976479
-0.00121526
-0.00133558
-0.00100677
-0.00163279
-0.000710601
-0.00176777
-0.000376592
-0.00162773
-0.000104222
-0.00114538
-0.000394734
-2.42241e-05
0.000192844
-7.93019e-05
0.000470203
-0.000148566
0.0006444
-0.000220752
0.000737755
-0.000289723
0.000774595
-0.000352919
0.000775471
-0.000409883
0.000755616
-0.000461208
0.000725239
-0.000507944
0.000690624
-0.00055132
0.000655381
-0.000592661
0.00062145
-0.000633405
0.000589765
-0.000675142
0.000560561
-0.000719652
0.000533377
-0.000768883
0.000506792
-0.000824849
0.000477905
-0.000889373
0.000441627
-0.000963624
0.000389908
-0.00104744
0.000311232
-0.00113858
0.000190915
-0.00123003
1.13599e-05
-0.00131307
-0.00023824
-0.00137082
-0.000567487
-0.0013807
-0.000966599
-0.00131453
-0.00140174
-0.00114417
-0.00180315
-0.000857078
-0.00205487
-0.000486901
-0.00199791
-0.000146491
-0.00148579
-0.000541225
-3.00683e-05
0.000222912
-9.53232e-05
0.000535458
-0.000173647
0.000722724
-0.000251475
0.000815583
-0.000322379
0.000845499
-0.000384342
0.000837433
-0.000437595
0.00080887
-0.000483296
0.00077094
-0.000522862
0.000730191
-0.000557725
0.000690244
-0.000589284
0.000653008
-0.000618947
0.000619428
-0.000648202
0.000589816
-0.000678684
0.00056386
-0.000712219
0.000540326
-0.000750816
0.000516502
-0.000796586
0.000487396
-0.000851518
0.000444841
-0.000917086
0.0003768
-0.000993499
0.000267328
-0.0010797
9.75624e-05
-0.00116855
-0.000149392
-0.00125021
-0.00048583
-0.0013049
-0.000911909
-0.00130227
-0.00140437
-0.00120239
-0.00190304
-0.000967744
-0.00228951
-0.000599598
-0.00236606
-0.000201464
-0.00188393
-0.000742689
-3.90921e-05
0.000262005
-0.000118055
0.000614421
-0.00020676
0.000811429
-0.000289146
0.000897969
-0.000359141
0.000915494
-0.000415942
0.000894235
-0.000460936
0.000853863
-0.000496104
0.000806108
-0.00052338
0.000757467
-0.000544461
0.000711325
-0.00056083
0.000669377
-0.000573827
0.000632425
-0.00058474
0.000600729
-0.000594904
0.000574023
-0.000605796
0.000551218
-0.000619146
0.000529852
-0.00063704
0.000505291
-0.000661994
0.000469794
-0.000696935
0.000411741
-0.000745017
0.000315409
-0.000809116
0.000161662
-0.000889195
-6.9313e-05
-0.000982043
-0.000392983
-0.00107526
-0.000818687
-0.00114249
-0.00133714
-0.00113839
-0.00190714
-0.00100243
-0.00242547
-0.000691376
-0.00267711
-0.000266938
-0.00230836
-0.00100963
-5.38324e-05
0.000315837
-0.000151277
0.000711866
-0.000250734
0.000910886
-0.000334227
0.000981463
-0.0003975
0.000978766
-0.000442114
0.000938849
-0.000471308
0.000883057
-0.000488291
0.000823092
-0.000495743
0.000764918
-0.000495773
0.000711356
-0.000490036
0.00066364
-0.000479845
0.000622234
-0.000466281
0.000587166
-0.000450335
0.000558077
-0.000433031
0.000533914
-0.000415642
0.000512463
-0.000399971
0.000489619
-0.000388673
0.000458497
-0.000385581
0.000408649
-0.000396203
0.000326031
-0.000426943
0.000192402
-0.000484369
-1.18872e-05
-0.000572916
-0.000304436
-0.000690288
-0.000701315
-0.000820349
-0.00120708
-0.000922321
-0.00180517
-0.000922301
-0.00242549
-0.000730331
-0.00286908
-0.000334165
-0.00270453
-0.00134379
-7.91877e-05
0.000395025
-0.000200768
0.000833447
-0.000308053
0.00101817
-0.000383955
0.00105736
-0.000428986
0.0010238
-0.000448937
0.0009588
-0.000449909
0.000884029
-0.000436884
0.000810068
-0.000413594
0.000741628
-0.000382738
0.0006805
-0.000346245
0.000627147
-0.000305474
0.000581463
-0.000261316
0.000543008
-0.000214465
0.000511226
-0.00016549
0.000484939
-0.000115159
0.000462132
-6.4837e-05
0.000439297
-1.70652e-05
0.000410725
2.37896e-05
0.000367794
5.16771e-05
0.000298144
5.71505e-05
0.000186928
2.88496e-05
1.64138e-05
-4.24753e-05
-0.000233111
-0.000166299
-0.000577492
-0.000341564
-0.00103181
-0.000542691
-0.00160404
-0.000697462
-0.00227072
-0.000680747
-0.0028858
-0.000385465
-0.00299981
-0.00172926
-0.000124443
0.000519468
-0.000273757
0.000982761
-0.000376202
0.00112062
-0.000424281
0.00110544
-0.000428737
0.00102825
-0.000402369
0.000932432
-0.000355394
0.000837054
-0.000295074
0.000749749
-0.00022634
0.000672893
-0.000152431
0.00060659
-7.5434e-05
0.00055015
3.40301e-06
0.000502626
8.33109e-05
0.0004631
0.000164091
0.000430446
0.000245605
0.000403425
0.00032759
0.000380148
0.00040921
0.000357677
0.000488468
0.000331467
0.00056148
0.000294782
0.000621375
0.000238249
0.000658254
0.00015005
0.00065817
1.64976e-05
0.00060591
-0.000180851
0.00048494
-0.000456522
0.00028328
-0.000830155
5.58151e-06
-0.00132634
-0.000303827
-0.00196131
-0.000505642
-0.00268398
-0.000396642
-0.00310881
-0.0021259
-0.000206187
0.000725655
-0.000370218
0.00114679
-0.000427861
0.00117826
-0.000403267
0.00108085
-0.000326067
0.000951053
-0.000218958
0.000825323
-9.65806e-05
0.000714676
3.2099e-05
0.000621069
0.000161876
0.000543117
0.000289819
0.000478646
0.000414466
0.000425504
0.000535248
0.000381843
0.000652229
0.00034612
0.000765744
0.000316931
0.00087629
0.000292879
0.000984175
0.000272263
0.00108911
0.000252743
0.00118963
0.000230945
0.00128235
0.000202059
0.00136108
0.000159523
0.00141601
9.51234e-05
0.00143156
9.41654e-07
0.00139225
-0.000141538
0.0012753
-0.000339572
0.00105782
-0.000612673
0.000721553
-0.000990077
0.000280807
-0.00152056
-0.000157512
-0.00224566
-0.000328401
-0.00293792
-0.0024543
-0.000337682
0.00106334
-0.000423028
0.00123214
-0.000331699
0.00108693
-0.000148838
0.000897988
7.02091e-05
0.000732006
0.00029724
0.000598292
0.00051822
0.000493697
0.000727006
0.000412283
0.00092148
0.000348642
0.00110155
0.000298572
0.00126811
0.000258952
0.00142248
0.000227473
0.0015662
0.000202396
0.00170081
0.000182324
0.00182767
0.000166014
0.00194778
0.000152159
0.00206136
0.000139156
0.00216744
0.00012487
0.00226312
0.000106377
0.00234286
7.97775e-05
0.00239736
4.06307e-05
0.00241463
-1.63282e-05
0.00237395
-0.000100863
0.00225323
-0.000218848
0.00202356
-0.000383003
0.00165149
-0.000618012
0.00110767
-0.000976743
0.000444268
-0.00158226
-6.30855e-05
-0.00243057
-0.00251739
-0.00029811
0.00136145
-3.90906e-05
0.000973118
0.000397133
0.000650706
0.000822262
0.000472859
0.00120502
0.000349251
0.00154124
0.000262073
0.00183353
0.000201398
0.00208714
0.000158679
0.0023079
0.000127878
0.00250127
0.000105206
0.00267195
8.82671e-05
0.00282396
7.54702e-05
0.00296064
6.57136e-05
0.00308477
5.81888e-05
0.00319855
5.22405e-05
0.00330346
4.72435e-05
0.00340012
4.24947e-05
0.00348788
3.71178e-05
0.00356426
2.99912e-05
0.00362427
1.9774e-05
0.00365983
5.06435e-06
0.00366145
-1.79514e-05
0.00361052
-4.99297e-05
0.00348528
-9.36095e-05
0.00325686
-0.00015458
0.00288434
-0.000245494
0.00230779
-0.000400187
0.00147587
-0.000750348
0.000499755
-0.00145445
-0.00201763
0.00136145
0.00233456
0.00298527
0.00345813
0.00380738
0.00406945
0.00427085
0.00442953
0.00455741
0.00466262
0.00475088
0.00482635
0.00489207
0.00495026
0.0050025
0.00504974
0.00509223
0.00512935
0.00515934
0.00517912
0.00518418
0.00516623
0.0051163
0.00502269
0.00486811
0.00462262
0.00422243
0.00347208
0.00201763
)
;

boundaryField
{
    movingWall
    {
        type            calculated;
        value           uniform 0;
    }
    fixedWalls
    {
        type            calculated;
        value           uniform 0;
    }
    frontAndBack
    {
        type            empty;
        value           nonuniform 0();
    }
}


// ************************************************************************* //
