/*--------------------------------*- C++ -*----------------------------------*\
  =========                 |
  \\      /  F ield         | OpenFOAM: The Open Source CFD Toolbox
   \\    /   O peration     | Website:  https://openfoam.org
    \\  /    A nd           | Version:  7
     \\/     M anipulation  |
\*---------------------------------------------------------------------------*/
FoamFile
{
    version     2.0;
    format      ascii;
    class       volVectorField;
    location    "3.2";
    object      U;
}
// * * * * * * * * * * * * * * * * * * * * * * * * * * * * * * * * * * * * * //

dimensions      [0 1 -1 0 0 0 0];

internalField   nonuniform List<vector> 
900
(
(5.80744e-05 -5.73944e-05 0)
(1.8849e-05 1.55074e-05 0)
(-0.000286309 9.82818e-05 0)
(-0.0007815 0.000155559 0)
(-0.00140432 0.000187724 0)
(-0.00209689 0.00020119 0)
(-0.00281375 0.00020258 0)
(-0.00352329 0.000196738 0)
(-0.00420418 0.000186497 0)
(-0.00484127 0.000173184 0)
(-0.00542249 0.000157168 0)
(-0.00593677 0.000138289 0)
(-0.00637297 0.000116163 0)
(-0.00671941 9.03875e-05 0)
(-0.00696397 6.06748e-05 0)
(-0.00709449 2.69529e-05 0)
(-0.00709957 -1.05439e-05 0)
(-0.00696948 -5.12476e-05 0)
(-0.00669751 -9.40811e-05 0)
(-0.00628143 -0.000137437 0)
(-0.00572516 -0.000179108 0)
(-0.00504065 -0.000216243 0)
(-0.00424964 -0.000245343 0)
(-0.00338534 -0.000262285 0)
(-0.00249363 -0.000262352 0)
(-0.00163354 -0.000240361 0)
(-0.000875652 -0.000191469 0)
(-0.000294915 -0.000113542 0)
(4.01843e-05 -1.30035e-05 0)
(6.92346e-05 6.78723e-05 0)
(-1.38769e-05 -2.01062e-05 0)
(-0.000372513 0.000370882 0)
(-0.00128299 0.000764706 0)
(-0.00257653 0.00105518 0)
(-0.00413727 0.00123424 0)
(-0.00585417 0.00131984 0)
(-0.00763017 0.00133585 0)
(-0.00939077 0.00130288 0)
(-0.0110809 0.00123525 0)
(-0.0126588 0.00114135 0)
(-0.0140907 0.00102514 0)
(-0.0153469 0.000887792 0)
(-0.0163991 0.000729018 0)
(-0.0172194 0.000548197 0)
(-0.0177802 0.000345143 0)
(-0.0180551 0.000120712 0)
(-0.0180205 -0.000122729 0)
(-0.0176575 -0.000380644 0)
(-0.0169547 -0.000646069 0)
(-0.0159116 -0.000909151 0)
(-0.0145417 -0.00115686 0)
(-0.0128769 -0.00137289 0)
(-0.0109708 -0.00153791 0)
(-0.00890109 -0.00163022 0)
(-0.0067717 -0.00162703 0)
(-0.00471085 -0.00150687 0)
(-0.00286474 -0.00125474 0)
(-0.00137815 -0.000871813 0)
(-0.000375761 -0.000393721 0)
(-4.83521e-06 4.16326e-05 0)
(-0.000100592 0.000287448 0)
(-0.000794585 0.00128813 0)
(-0.0022722 0.00220849 0)
(-0.00424664 0.00289565 0)
(-0.00656162 0.00333109 0)
(-0.00907586 0.00354581 0)
(-0.0116618 0.00358665 0)
(-0.0142177 0.0034977 0)
(-0.0166656 0.00331226 0)
(-0.0189449 0.00305177 0)
(-0.0210055 0.0027279 0)
(-0.0228039 0.00234568 0)
(-0.0242994 0.00190657 0)
(-0.0254529 0.00141089 0)
(-0.0262268 0.000859879 0)
(-0.026586 0.000257146 0)
(-0.0264995 -0.000389954 0)
(-0.0259434 -0.00106896 0)
(-0.0249049 -0.00176146 0)
(-0.0233858 -0.00244201 0)
(-0.0214078 -0.00307753 0)
(-0.0190175 -0.0036273 0)
(-0.0162904 -0.00404388 0)
(-0.0133342 -0.00427533 0)
(-0.0102899 -0.00426949 0)
(-0.00732841 -0.00398112 0)
(-0.00464061 -0.0033841 0)
(-0.00241095 -0.00249024 0)
(-0.000807293 -0.00137755 0)
(-9.12508e-05 -0.000267483 0)
(-0.00016849 0.000810537 0)
(-0.0011505 0.00264551 0)
(-0.00312383 0.00421725 0)
(-0.00567643 0.00537348 0)
(-0.00861079 0.00610406 0)
(-0.0117618 0.00646105 0)
(-0.0149816 0.00651837 0)
(-0.0181513 0.00634648 0)
(-0.0211787 0.00600021 0)
(-0.0239907 0.00551628 0)
(-0.0265267 0.00491592 0)
(-0.0287336 0.00420954 0)
(-0.0305622 0.00340143 0)
(-0.0319657 0.0024939 0)
(-0.0328993 0.00149055 0)
(-0.0333214 0.00039899 0)
(-0.0331955 -0.000766802 0)
(-0.0324937 -0.00198444 0)
(-0.0312011 -0.00322107 0)
(-0.0293206 -0.00443182 0)
(-0.0268786 -0.00555881 0)
(-0.0239313 -0.00653139 0)
(-0.0205697 -0.00726805 0)
(-0.0169228 -0.00768101 0)
(-0.013158 -0.00768411 0)
(-0.0094772 -0.00720537 0)
(-0.00610478 -0.00620563 0)
(-0.00325785 -0.0047041 0)
(-0.00114771 -0.00281027 0)
(-0.000152181 -0.000788323 0)
(-0.000217185 0.00150683 0)
(-0.00143157 0.00437529 0)
(-0.00382081 0.00670512 0)
(-0.00685872 0.0083827 0)
(-0.0103071 0.00942853 0)
(-0.0139785 0.0099274 0)
(-0.017709 0.00998618 0)
(-0.0213682 0.00970471 0)
(-0.0248551 0.00916116 0)
(-0.0280893 0.00840875 0)
(-0.0310038 0.00747921 0)
(-0.0335394 0.00638896 0)
(-0.0356412 0.00514567 0)
(-0.0372564 0.00375397 0)
(-0.0383345 0.0022202 0)
(-0.0388277 0.000556365 0)
(-0.0386936 -0.00121635 0)
(-0.0378988 -0.00306431 0)
(-0.0364238 -0.00493836 0)
(-0.034269 -0.00677135 0)
(-0.0314617 -0.00847682 0)
(-0.0280637 -0.00994941 0)
(-0.024177 -0.0110683 0)
(-0.019948 -0.0117046 0)
(-0.0155677 -0.0117336 0)
(-0.0112672 -0.0110527 0)
(-0.00730407 -0.00960629 0)
(-0.00392973 -0.00741494 0)
(-0.00139889 -0.00460684 0)
(-0.000189235 -0.00146515 0)
(-0.00025172 0.00233694 0)
(-0.0016517 0.00641299 0)
(-0.00438756 0.00960004 0)
(-0.00783587 0.0118468 0)
(-0.0117203 0.0132237 0)
(-0.0158319 0.0138608 0)
(-0.0199923 0.0139053 0)
(-0.0240627 0.0134904 0)
(-0.0279366 0.0127197 0)
(-0.0315299 0.0116639 0)
(-0.0347718 0.0103655 0)
(-0.0375998 0.00884713 0)
(-0.0399548 0.00711945 0)
(-0.0417794 0.00518898 0)
(-0.0430171 0.00306422 0)
(-0.0436131 0.000761036 0)
(-0.0435171 -0.00169244 0)
(-0.0426869 -0.00425108 0)
(-0.0410945 -0.00684821 0)
(-0.0387332 -0.00939204 0)
(-0.0356266 -0.0117635 0)
(-0.0318376 -0.0138172 0)
(-0.0274768 -0.0153863 0)
(-0.0227077 -0.0162937 0)
(-0.0177469 -0.0163693 0)
(-0.0128594 -0.0154747 0)
(-0.00834173 -0.0135328 0)
(-0.00448571 -0.0105617 0)
(-0.00158917 -0.00670259 0)
(-0.000210454 -0.0022541 0)
(-0.000277706 0.00327143 0)
(-0.00183129 0.00870491 0)
(-0.00486425 0.0128402 0)
(-0.00867109 0.015702 0)
(-0.0129407 0.0174258 0)
(-0.0174432 0.0181987 0)
(-0.0219872 0.0182158 0)
(-0.0264268 0.0176487 0)
(-0.0306525 0.0166287 0)
(-0.0345782 0.0152448 0)
(-0.0381322 0.0135507 0)
(-0.0412499 0.0115742 0)
(-0.0438694 0.00932819 0)
(-0.0459289 0.00681971 0)
(-0.0473652 0.00405786 0)
(-0.0481152 0.00106071 0)
(-0.0481173 -0.00213809 0)
(-0.0473164 -0.00548275 0)
(-0.0456706 -0.00888869 0)
(-0.0431601 -0.0122372 0)
(-0.0397987 -0.0153723 0)
(-0.035646 -0.0181013 0)
(-0.0308187 -0.0202025 0)
(-0.0254986 -0.0214401 0)
(-0.0199337 -0.0215889 0)
(-0.0144317 -0.0204665 0)
(-0.00933962 -0.0179705 0)
(-0.00499832 -0.0141155 0)
(-0.00175115 -0.00905954 0)
(-0.000223439 -0.00312836 0)
(-0.000299686 0.00429317 0)
(-0.00198982 0.0112174 0)
(-0.00529245 0.0163864 0)
(-0.0094298 0.0199092 0)
(-0.0140586 0.0219979 0)
(-0.0189293 0.0229071 0)
(-0.0238378 0.0228884 0)
(-0.0286327 0.0221561 0)
(-0.0332027 0.0208723 0)
(-0.0374617 0.0191454 0)
(-0.0413385 0.0170398 0)
(-0.0447681 0.0145877 0)
(-0.0476868 0.0118025 0)
(-0.0500283 0.00868957 0)
(-0.0517224 0.0052559 0)
(-0.0526951 0.00151887 0)
(-0.0528703 -0.00248515 0)
(-0.0521749 -0.00669193 0)
(-0.0505461 -0.0109995 0)
(-0.0479435 -0.0152604 0)
(-0.0443632 -0.0192765 0)
(-0.0398547 -0.022799 0)
(-0.0345375 -0.0255383 0)
(-0.0286132 -0.0271853 0)
(-0.0223685 -0.0274449 0)
(-0.0161671 -0.0260796 0)
(-0.0104225 -0.0229572 0)
(-0.00553944 -0.0180932 0)
(-0.00191366 -0.0116749 0)
(-0.000233433 -0.00407889 0)
(-0.000320852 0.00539539 0)
(-0.00214311 0.0139364 0)
(-0.00570813 0.0202224 0)
(-0.0101696 0.0244531 0)
(-0.0151533 0.0269273 0)
(-0.0203904 0.0279773 0)
(-0.0256653 0.0279184 0)
(-0.0308218 0.0270137 0)
(-0.0357481 0.0254587 0)
(-0.0403601 0.0233825 0)
(-0.0445885 0.0208598 0)
(-0.0483698 0.0179261 0)
(-0.0516394 0.014593 0)
(-0.0543273 0.0108609 0)
(-0.0563557 0.00673114 0)
(-0.0576378 0.00221587 0)
(-0.0580798 -0.00265031 0)
(-0.0575842 -0.00779883 0)
(-0.0560598 -0.0131124 0)
(-0.0534354 -0.018414 0)
(-0.0496784 -0.0234575 0)
(-0.0448181 -0.0279269 0)
(-0.0389698 -0.0314477 0)
(-0.0323541 -0.033616 0)
(-0.0253049 -0.0340449 0)
(-0.0182591 -0.0324252 0)
(-0.0117203 -0.0285891 0)
(-0.00617998 -0.0225612 0)
(-0.00210161 -0.0145812 0)
(-0.000243514 -0.005111 0)
(-0.000343322 0.00657897 0)
(-0.00230302 0.0168632 0)
(-0.00613965 0.0243509 0)
(-0.0109365 0.0293382 0)
(-0.0162879 0.0322208 0)
(-0.0219058 0.0334184 0)
(-0.0275635 0.0333185 0)
(-0.033101 0.0322388 0)
(-0.0384081 0.0304114 0)
(-0.0434041 0.0279877 0)
(-0.0480242 0.0250522 0)
(-0.052208 0.0216423 0)
(-0.0558921 0.0177649 0)
(-0.0590044 0.0134121 0)
(-0.0614598 0.00857404 0)
(-0.0631579 0.00325189 0)
(-0.0639842 -0.00252825 0)
(-0.0638112 -0.00870078 0)
(-0.0625091 -0.0151372 0)
(-0.0599637 -0.021632 0)
(-0.0560983 -0.0278869 0)
(-0.0509055 -0.033505 0)
(-0.0444832 -0.0380048 0)
(-0.0370652 -0.0408575 0)
(-0.029039 -0.0415517 0)
(-0.0209366 -0.0396798 0)
(-0.0133853 -0.0350275 0)
(-0.00700007 -0.0276414 0)
(-0.00234031 -0.0178469 0)
(-0.000255589 -0.00624198 0)
(-0.000368476 0.00785027 0)
(-0.00247818 0.0200116 0)
(-0.00660845 0.0287896 0)
(-0.0117655 0.0345842 0)
(-0.0175101 0.0378989 0)
(-0.023534 0.0392519 0)
(-0.0295997 0.0391121 0)
(-0.0355452 0.0378579 0)
(-0.041263 0.0357623 0)
(-0.0466791 0.033 0)
(-0.0517352 0.0296661 0)
(-0.0563777 0.0257977 0)
(-0.0605474 0.0213945 0)
(-0.0641726 0.0164354 0)
(-0.0671631 0.0108934 0)
(-0.069406 0.00475086 0)
(-0.0707651 -0.00198408 0)
(-0.0710769 -0.00925954 0)
(-0.0701626 -0.0169442 0)
(-0.0678499 -0.0248098 0)
(-0.0639963 -0.0325036 0)
(-0.0585331 -0.0395351 0)
(-0.0515159 -0.045288 0)
(-0.0431758 -0.0490672 0)
(-0.0339545 -0.0501874 0)
(-0.024504 -0.0480984 0)
(-0.0156229 -0.0425175 0)
(-0.00810753 -0.0335266 0)
(-0.00266285 -0.0215861 0)
(-0.000271686 -0.00750235 0)
(-0.00039727 0.00921953 0)
(-0.00267509 0.0234043 0)
(-0.00713089 0.0335672 0)
(-0.0126833 0.0402216 0)
(-0.0188551 0.0439915 0)
(-0.0253165 0.0455066 0)
(-0.0318196 0.0453276 0)
(-0.0382013 0.043901 0)
(-0.0443601 0.0415453 0)
(-0.0502309 0.0384606 0)
(-0.0557664 0.0347527 0)
(-0.0609233 0.0304575 0)
(-0.0656515 0.0255645 0)
(-0.0698849 0.0200348 0)
(-0.0735327 0.0138169 0)
(-0.0764726 0.0068632 0)
(-0.0785492 -0.000849434 0)
(-0.0795594 -0.00928717 0)
(-0.0792649 -0.0183426 0)
(-0.0774182 -0.0277759 0)
(-0.0737828 -0.0371834 0)
(-0.068191 -0.045971 0)
(-0.0606155 -0.0533566 0)
(-0.05125 -0.0584236 0)
(-0.0405779 -0.0602392 0)
(-0.0293942 -0.0580359 0)
(-0.018734 -0.0514172 0)
(-0.0096642 -0.0405098 0)
(-0.0031204 -0.0259773 0)
(-0.000295538 -0.00894174 0)
(-0.000430503 0.0107001 0)
(-0.00289932 0.0270712 0)
(-0.0077209 0.0387213 0)
(-0.0137116 0.0462886 0)
(-0.0203503 0.0505343 0)
(-0.0272835 0.0522144 0)
(-0.0342527 0.051994 0)
(-0.0410958 0.0503965 0)
(-0.04772 0.0477908 0)
(-0.0540731 0.0444061 0)
(-0.0601233 0.0403592 0)
(-0.0658433 0.0356847 0)
(-0.0711986 0.0303597 0)
(-0.0761361 0.0243231 0)
(-0.0805735 0.0174916 0)
(-0.0843874 0.00977709 0)
(-0.0873983 0.00110998 0)
(-0.0893745 -0.00852317 0)
(-0.0900198 -0.0190551 0)
(-0.088981 -0.0302589 0)
(-0.0858946 -0.0416981 0)
(-0.0804434 -0.0526751 0)
(-0.0724537 -0.0622126 0)
(-0.0620193 -0.069103 0)
(-0.049626 -0.0720587 0)
(-0.0362239 -0.0699726 0)
(-0.0231642 -0.0622428 0)
(-0.0119185 -0.049032 0)
(-0.0037952 -0.0312987 0)
(-0.000334552 -0.0106412 0)
(-0.000469093 0.0123081 0)
(-0.00315688 0.0310492 0)
(-0.00839276 0.0442969 0)
(-0.0148716 0.0528296 0)
(-0.0220207 0.0575656 0)
(-0.0294595 0.0594064 0)
(-0.0369191 0.0591361 0)
(-0.0442406 0.0573653 0)
(-0.0513433 0.0545203 0)
(-0.0581927 0.0508622 0)
(-0.0647776 0.0465218 0)
(-0.0710936 0.0415327 0)
(-0.0771297 0.0358586 0)
(-0.082856 0.0294131 0)
(-0.0882098 0.0220748 0)
(-0.0930788 0.0137041 0)
(-0.0972816 0.00416599 0)
(-0.100558 -0.00663608 0)
(-0.102545 -0.0187011 0)
(-0.102779 -0.0318563 0)
(-0.10073 -0.0456711 0)
(-0.0958656 -0.0593642 0)
(-0.0877766 -0.0717443 0)
(-0.0763561 -0.0812345 0)
(-0.0620098 -0.0860445 0)
(-0.0458229 -0.0845331 0)
(-0.0295457 -0.0757199 0)
(-0.0152392 -0.0597469 0)
(-0.00481509 -0.0379794 0)
(-0.000402034 -0.0127331 0)
(-0.000514377 0.0140633 0)
(-0.00345567 0.0353827 0)
(-0.00916435 0.0503466 0)
(-0.0161886 0.0598934 0)
(-0.0238939 0.0651242 0)
(-0.0318691 0.0671093 0)
(-0.0398352 0.0667701 0)
(-0.0476389 0.0648164 0)
(-0.055216 0.061739 0)
(-0.0625543 0.0578366 0)
(-0.0696692 0.0532565 0)
(-0.0765865 0.0480338 0)
(-0.0833284 0.0421202 0)
(-0.0899005 0.0354031 0)
(-0.0962749 0.0277181 0)
(-0.102369 0.0188618 0)
(-0.10802 0.00861205 0)
(-0.112956 -0.00323543 0)
(-0.116759 -0.0167948 0)
(-0.118845 -0.032017 0)
(-0.118487 -0.0485406 0)
(-0.114867 -0.0655519 0)
(-0.107228 -0.0816532 0)
(-0.0951207 -0.094824 0)
(-0.0787291 -0.102585 0)
(-0.0591899 -0.102473 0)
(-0.0387016 -0.0928242 0)
(-0.0201384 -0.0735949 0)
(-0.00636708 -0.0466674 0)
(-0.000519484 -0.0154282 0)
(-0.000568494 0.0159904 0)
(-0.00380735 0.0401263 0)
(-0.0100609 0.0569326 0)
(-0.0176969 0.0675341 0)
(-0.0260062 0.0732479 0)
(-0.0345431 0.075343 0)
(-0.0430188 0.0748993 0)
(-0.0512899 0.0727402 0)
(-0.0593125 0.0694297 0)
(-0.0671021 0.0653092 0)
(-0.0747061 0.0605473 0)
(-0.0821873 0.0551847 0)
(-0.0896108 0.0491653 0)
(-0.0970303 0.042353 0)
(-0.104471 0.0345399 0)
(-0.111904 0.0254514 0)
(-0.119209 0.0147598 0)
(-0.126127 0.00211635 0)
(-0.132215 -0.012775 0)
(-0.136786 -0.0300645 0)
(-0.138887 -0.0495605 0)
(-0.13736 -0.0705151 0)
(-0.130988 -0.0913785 0)
(-0.11881 -0.109642 0)
(-0.10058 -0.121936 0)
(-0.0773026 -0.124592 0)
(-0.051569 -0.114766 0)
(-0.0272677 -0.0918598 0)
(-0.00870804 -0.0583039 0)
(-0.000719519 -0.0190504 0)
(-0.000634968 0.0181222 0)
(-0.0042298 0.0453496 0)
(-0.0111196 0.0641302 0)
(-0.0194457 0.0758116 0)
(-0.0284081 0.0819718 0)
(-0.0375228 0.0841159 0)
(-0.0464935 0.0835085 0)
(-0.0551909 0.0811021 0)
(-0.0635969 0.077543 0)
(-0.0717586 0.0732209 0)
(-0.0797599 0.068331 0)
(-0.0877057 0.0629259 0)
(-0.0957108 0.0569487 0)
(-0.103888 0.0502473 0)
(-0.112332 0.0425749 0)
(-0.121088 0.0335847 0)
(-0.13011 0.0228292 0)
(-0.139195 0.00977929 0)
(-0.147909 -0.00611795 0)
(-0.15549 -0.0252994 0)
(-0.160787 -0.0478796 0)
(-0.162282 -0.0733247 0)
(-0.158223 -0.100052 0)
(-0.146979 -0.125088 0)
(-0.127626 -0.14401 0)
(-0.100719 -0.151507 0)
(-0.068986 -0.142852 0)
(-0.0373652 -0.116158 0)
(-0.0121744 -0.074188 0)
(-0.00105226 -0.0240767 0)
(-0.000719665 0.0205033 0)
(-0.00475092 0.051144 0)
(-0.0123962 0.0720326 0)
(-0.0215061 0.0847931 0)
(-0.0311705 0.091326 0)
(-0.0408645 0.0934204 0)
(-0.0502892 0.0925568 0)
(-0.059336 0.0898333 0)
(-0.0680182 0.0859865 0)
(-0.0764177 0.0814596 0)
(-0.0846567 0.0764794 0)
(-0.0928833 0.0711171 0)
(-0.101264 0.0653249 0)
(-0.109974 0.058946 0)
(-0.119187 0.0517062 0)
(-0.12904 0.0431923 0)
(-0.139587 0.0328308 0)
(-0.150721 0.0198839 0)
(-0.162065 0.00349047 0)
(-0.172847 -0.0171931 0)
(-0.181796 -0.0427289 0)
(-0.187095 -0.0729824 0)
(-0.18647 -0.106531 0)
(-0.177545 -0.140069 0)
(-0.158483 -0.168088 0)
(-0.128961 -0.183267 0)
(-0.0912969 -0.178133 0)
(-0.0511227 -0.148284 0)
(-0.0171948 -0.0960026 0)
(-0.00160129 -0.0311882 0)
(-0.000832548 0.023198 0)
(-0.00541454 0.0576339 0)
(-0.0139741 0.0807578 0)
(-0.0239801 0.0945534 0)
(-0.0343899 0.10133 0)
(-0.0446397 0.103224 0)
(-0.0544379 0.101967 0)
(-0.0637066 0.0988181 0)
(-0.0724966 0.094611 0)
(-0.0809272 0.0898437 0)
(-0.0891567 0.0847775 0)
(-0.0973718 0.0795089 0)
(-0.105784 0.0740091 0)
(-0.114628 0.0681312 0)
(-0.124147 0.0615894 0)
(-0.134574 0.0539193 0)
(-0.146075 0.0444288 0)
(-0.15867 0.0321619 0)
(-0.172104 0.0159132 0)
(-0.185682 -0.00565613 0)
(-0.198144 -0.0337152 0)
(-0.207549 -0.0686772 0)
(-0.211269 -0.109548 0)
(-0.206257 -0.152968 0)
(-0.189649 -0.192538 0)
(-0.159792 -0.21882 0)
(-0.11776 -0.220799 0)
(-0.068913 -0.189809 0)
(-0.0242962 -0.125751 0)
(-0.00251637 -0.0413396 0)
(-0.000991124 0.0263019 0)
(-0.00629065 0.064992 0)
(-0.0159782 0.0904563 0)
(-0.0270108 0.105172 0)
(-0.0381914 0.111983 0)
(-0.0489289 0.113453 0)
(-0.0589574 0.111606 0)
(-0.0682457 0.107876 0)
(-0.0768907 0.103191 0)
(-0.0850498 0.0981013 0)
(-0.0929125 0.092902 0)
(-0.100694 0.0877172 0)
(-0.108635 0.0825454 0)
(-0.117009 0.0772624 0)
(-0.126113 0.0715899 0)
(-0.136252 0.0650346 0)
(-0.147695 0.0568077 0)
(-0.160597 0.0457515 0)
(-0.174882 0.0303141 0)
(-0.190071 0.00864045 0)
(-0.205058 -0.0211124 0)
(-0.218051 -0.0600813 0)
(-0.226434 -0.107964 0)
(-0.226773 -0.161756 0)
(-0.215276 -0.214671 0)
(-0.188672 -0.255516 0)
(-0.145848 -0.269365 0)
(-0.0902952 -0.241334 0)
(-0.0340507 -0.165499 0)
(-0.00406295 -0.0558464 0)
(-0.00122767 0.0299622 0)
(-0.00749386 0.073463 0)
(-0.0185952 0.101317 0)
(-0.0307941 0.116721 0)
(-0.0427249 0.12324 0)
(-0.0537995 0.123967 0)
(-0.0638123 0.121259 0)
(-0.0728034 0.116731 0)
(-0.0809284 0.111395 0)
(-0.0883847 0.105845 0)
(-0.0953866 0.100399 0)
(-0.102163 0.0952048 0)
(-0.108966 0.0902913 0)
(-0.116075 0.085565 0)
(-0.123804 0.0807714 0)
(-0.132493 0.0754141 0)
(-0.14248 0.0686469 0)
(-0.154044 0.0591605 0)
(-0.167318 0.0451185 0)
(-0.182123 0.0242238 0)
(-0.197728 -0.00599516 0)
(-0.212841 -0.0476229 0)
(-0.225278 -0.101121 0)
(-0.231713 -0.164347 0)
(-0.227847 -0.230943 0)
(-0.208861 -0.288919 0)
(-0.170772 -0.319917 0)
(-0.113322 -0.301389 0)
(-0.0468533 -0.216766 0)
(-0.00666853 -0.0764488 0)
(-0.001605 0.0344163 0)
(-0.00921786 0.0833953 0)
(-0.0221066 0.113569 0)
(-0.0355895 0.12924 0)
(-0.0481441 0.134967 0)
(-0.0592526 0.134505 0)
(-0.068829 0.130576 0)
(-0.0770235 0.124964 0)
(-0.0840702 0.118747 0)
(-0.0902133 0.112537 0)
(-0.0956886 0.106659 0)
(-0.100728 0.101275 0)
(-0.10557 0.096433 0)
(-0.110474 0.0920718 0)
(-0.115727 0.0879685 0)
(-0.121656 0.083649 0)
(-0.128614 0.0782579 0)
(-0.136964 0.0704166 0)
(-0.147024 0.0581224 0)
(-0.158986 0.0387758 0)
(-0.172783 0.00940828 0)
(-0.187765 -0.0327992 0)
(-0.202537 -0.0893141 0)
(-0.214625 -0.159281 0)
(-0.219903 -0.237716 0)
(-0.212583 -0.313324 0)
(-0.185772 -0.365922 0)
(-0.133999 -0.365332 0)
(-0.0624288 -0.279418 0)
(-0.0109098 -0.105247 0)
(-0.00225131 0.0400636 0)
(-0.0118012 0.0952858 0)
(-0.0269348 0.127456 0)
(-0.0417148 0.142663 0)
(-0.0545405 0.146855 0)
(-0.0650975 0.144594 0)
(-0.0735171 0.138979 0)
(-0.0801187 0.131932 0)
(-0.0852471 0.124553 0)
(-0.0892091 0.117437 0)
(-0.0922683 0.110893 0)
(-0.0946568 0.105072 0)
(-0.0965901 0.100029 0)
(-0.0982837 0.0957198 0)
(-0.0999693 0.0919519 0)
(-0.101914 0.0882905 0)
(-0.10444 0.083921 0)
(-0.107939 0.0774912 0)
(-0.112878 0.0669852 0)
(-0.119792 0.0497091 0)
(-0.129207 0.0224567 0)
(-0.141375 -0.0179647 0)
(-0.156084 -0.074088 0)
(-0.17209 -0.146544 0)
(-0.18631 -0.232536 0)
(-0.193086 -0.323195 0)
(-0.183495 -0.399192 0)
(-0.146485 -0.425029 0)
(-0.0791186 -0.350256 0)
(-0.0173295 -0.144334 0)
(-0.00343605 0.0476084 0)
(-0.0158488 0.109828 0)
(-0.0336961 0.143166 0)
(-0.0494832 0.15668 0)
(-0.0617597 0.158253 0)
(-0.0706598 0.153385 0)
(-0.076687 0.145518 0)
(-0.0804165 0.136634 0)
(-0.0823527 0.127792 0)
(-0.082895 0.119524 0)
(-0.0823531 0.112085 0)
(-0.08097 0.105589 0)
(-0.0789409 0.100067 0)
(-0.0764342 0.0954733 0)
(-0.0736129 0.0916335 0)
(-0.0706636 0.0881574 0)
(-0.067839 0.0843097 0)
(-0.065508 0.0788535 0)
(-0.0642059 0.0699205 0)
(-0.0647165 0.0549772 0)
(-0.068038 0.0308554 0)
(-0.0752627 -0.00577873 0)
(-0.0873997 -0.0580362 0)
(-0.104701 -0.127961 0)
(-0.125832 -0.215287 0)
(-0.146629 -0.315023 0)
(-0.157932 -0.411958 0)
(-0.144204 -0.469956 0)
(-0.0933059 -0.421934 0)
(-0.0259449 -0.194937 0)
(-0.00572624 0.0583552 0)
(-0.0224368 0.127931 0)
(-0.0431889 0.160598 0)
(-0.0589184 0.170414 0)
(-0.068872 0.167844 0)
(-0.0740592 0.15936 0)
(-0.0755868 0.14861 0)
(-0.0744052 0.137502 0)
(-0.0712435 0.126959 0)
(-0.0666304 0.117385 0)
(-0.0609434 0.108936 0)
(-0.0544501 0.101651 0)
(-0.0473321 0.0955031 0)
(-0.0397162 0.0904225 0)
(-0.0317013 0.086228 0)
(-0.0233908 0.0825697 0)
(-0.0149543 0.0788123 0)
(-0.00669723 0.0739001 0)
(0.000872089 0.0662284 0)
(0.00684002 0.0535701 0)
(0.00992219 0.03312 0)
(0.00849968 0.00170239 0)
(0.000572908 -0.0439672 0)
(-0.0155628 -0.106688 0)
(-0.0405462 -0.188391 0)
(-0.0729211 -0.288581 0)
(-0.105607 -0.39905 0)
(-0.12111 -0.489353 0)
(-0.0994753 -0.483031 0)
(-0.0354532 -0.256168 0)
(-0.0102756 0.0748553 0)
(-0.0333693 0.150593 0)
(-0.0559777 0.178813 0)
(-0.0686664 0.181785 0)
(-0.0725926 0.173059 0)
(-0.0703177 0.159844 0)
(-0.0638585 0.145674 0)
(-0.0546664 0.132154 0)
(-0.0437382 0.119923 0)
(-0.0317336 0.109164 0)
(-0.0190805 0.0998734 0)
(-0.00605331 0.0919729 0)
(0.00720315 0.0853538 0)
(0.0206155 0.0798795 0)
(0.0341475 0.0753507 0)
(0.0477814 0.0714447 0)
(0.0614375 0.0676266 0)
(0.074895 0.0630447 0)
(0.0876906 0.0564181 0)
(0.0989606 0.0459325 0)
(0.107346 0.0293387 0)
(0.110857 0.00391837 0)
(0.107104 -0.0333978 0)
(0.0934095 -0.0854903 0)
(0.0672336 -0.155532 0)
(0.02688 -0.24676 0)
(-0.0247072 -0.358958 0)
(-0.0717332 -0.474432 0)
(-0.0908999 -0.519633 0)
(-0.0425387 -0.324334 0)
(-0.019181 0.10185 0)
(-0.0509433 0.177736 0)
(-0.0699501 0.19457 0)
(-0.0719623 0.186182 0)
(-0.0624649 0.169069 0)
(-0.0463657 0.15037 0)
(-0.0267653 0.132824 0)
(-0.00554681 0.117336 0)
(0.0161665 0.104041 0)
(0.037741 0.0927853 0)
(0.0588425 0.0833363 0)
(0.079316 0.0754604 0)
(0.0991293 0.0689484 0)
(0.118324 0.0635856 0)
(0.136974 0.0591483 0)
(0.155157 0.0553362 0)
(0.172883 0.0517111 0)
(0.190024 0.0476184 0)
(0.206202 0.0421041 0)
(0.220657 0.033838 0)
(0.232108 0.0211286 0)
(0.238431 0.00189796 0)
(0.237188 -0.0260407 0)
(0.225152 -0.0654186 0)
(0.198545 -0.119554 0)
(0.153526 -0.193515 0)
(0.0875951 -0.293902 0)
(0.0106982 -0.42019 0)
(-0.059827 -0.518111 0)
(-0.0414104 -0.391981 0)
(-0.0342824 0.145201 0)
(-0.0724315 0.201989 0)
(-0.0679329 0.196526 0)
(-0.0425085 0.172351 0)
(-0.00748465 0.146373 0)
(0.0305219 0.123497 0)
(0.0682528 0.104519 0)
(0.104252 0.0890853 0)
(0.137924 0.0766017 0)
(0.16914 0.0665106 0)
(0.197996 0.0583461 0)
(0.224693 0.0517376 0)
(0.249479 0.0463914 0)
(0.272615 0.0420582 0)
(0.294347 0.0385072 0)
(0.314876 0.0354816 0)
(0.334312 0.032653 0)
(0.352608 0.0295702 0)
(0.369462 0.0256055 0)
(0.384212 0.0199046 0)
(0.395673 0.011363 0)
(0.402038 -0.00139977 0)
(0.400828 -0.0196798 0)
(0.388462 -0.0454298 0)
(0.360685 -0.0812398 0)
(0.312612 -0.131939 0)
(0.237476 -0.207499 0)
(0.137738 -0.324716 0)
(0.00681781 -0.464894 0)
(-0.0194022 -0.439464 0)
(-0.0373395 0.236385 0)
(-0.0464456 0.204893 0)
(0.0300447 0.15462 0)
(0.102709 0.118557 0)
(0.170231 0.0914655 0)
(0.230355 0.0713407 0)
(0.282718 0.0566349 0)
(0.328065 0.045812 0)
(0.367415 0.0377087 0)
(0.401752 0.0315496 0)
(0.431935 0.0268176 0)
(0.458691 0.0231544 0)
(0.482631 0.0203017 0)
(0.504264 0.0180622 0)
(0.524 0.0162702 0)
(0.54215 0.0147623 0)
(0.558891 0.01335 0)
(0.574228 0.0117936 0)
(0.587918 0.00977841 0)
(0.59938 0.00690214 0)
(0.607535 0.0026663 0)
(0.610941 -0.00346833 0)
(0.607375 -0.0123231 0)
(0.593621 -0.0247926 0)
(0.565239 -0.0420975 0)
(0.517588 -0.0673072 0)
(0.440288 -0.107934 0)
(0.331795 -0.189933 0)
(0.141828 -0.337385 0)
(0.0599788 -0.413834 0)
(0.231276 0.158513 0)
(0.291742 0.117323 0)
(0.441972 0.0762131 0)
(0.541521 0.0508978 0)
(0.609085 0.0344978 0)
(0.658815 0.0236219 0)
(0.696805 0.0164968 0)
(0.726402 0.0118354 0)
(0.749955 0.0087408 0)
(0.769126 0.00664695 0)
(0.785064 0.00520698 0)
(0.798573 0.00420365 0)
(0.810234 0.00349655 0)
(0.820478 0.00299093 0)
(0.829615 0.00261757 0)
(0.837854 0.00231798 0)
(0.845293 0.00203292 0)
(0.851905 0.00169371 0)
(0.857498 0.00121469 0)
(0.861682 0.000499417 0)
(0.863803 -0.000565992 0)
(0.862896 -0.00201861 0)
(0.857457 -0.00412978 0)
(0.845878 -0.00715837 0)
(0.825209 -0.0112826 0)
(0.793194 -0.0174097 0)
(0.737808 -0.027492 0)
(0.659442 -0.0498818 0)
(0.455805 -0.110881 0)
(0.313579 -0.178038 0)
)
;

boundaryField
{
    movingWall
    {
        type            fixedValue;
        value           uniform (1 0 0);
    }
    fixedWalls
    {
        type            noSlip;
    }
    frontAndBack
    {
        type            empty;
    }
}


// ************************************************************************* //
