/*--------------------------------*- C++ -*----------------------------------*\
  =========                 |
  \\      /  F ield         | OpenFOAM: The Open Source CFD Toolbox
   \\    /   O peration     | Website:  https://openfoam.org
    \\  /    A nd           | Version:  7
     \\/     M anipulation  |
\*---------------------------------------------------------------------------*/
FoamFile
{
    version     2.0;
    format      ascii;
    class       volVectorField;
    location    "1.48";
    object      U;
}
// * * * * * * * * * * * * * * * * * * * * * * * * * * * * * * * * * * * * * //

dimensions      [0 1 -1 0 0 0 0];

internalField   nonuniform List<vector> 
1936
(
(-18.2829 2.52195 0)
(-55.4888 214.586 0)
(13.5997 406.367 0)
(19.8661 350.486 0)
(3.61249 272.952 0)
(-1.24494 236.682 0)
(-19.0434 222.849 0)
(-26.4967 252.463 0)
(-35.6432 377.937 0)
(3.52996 465.967 0)
(39.711 357.293 0)
(28.4108 229.258 0)
(19.9687 197.589 0)
(2.03911 197.697 0)
(-13.8951 240.741 0)
(-25.898 359.495 0)
(-0.680113 437.225 0)
(26.502 348.832 0)
(14.0216 225.981 0)
(-3.7089 187.292 0)
(-20.1129 188.553 0)
(-31.0709 230.313 0)
(-36.9495 373.265 0)
(7.61147 464.325 0)
(40.462 351.049 0)
(29.3506 218.333 0)
(20.9109 183.123 0)
(2.54044 183.849 0)
(-13.3905 224.752 0)
(-27.3586 344.013 0)
(-7.01031 438.722 0)
(26.3999 360.673 0)
(16.5165 226.67 0)
(-3.96327 183.953 0)
(-18.7389 186.519 0)
(-32.6947 239.43 0)
(-34.901 396.55 0)
(17.1307 458.489 0)
(41.0509 313.989 0)
(25.2692 193.851 0)
(13.8826 175.183 0)
(-2.64791 181.8 0)
(-25.3605 268.488 0)
(-22.1784 417.091 0)
(-18.1274 6.32377 0)
(-64.3208 -3.18429 0)
(10.3045 -5.07398 0)
(22.3978 -0.194628 0)
(3.62594 1.69364 0)
(-3.06653 2.46208 0)
(-14.7376 2.59684 0)
(-21.7329 0.610789 0)
(-35.9256 -3.11154 0)
(3.30632 -5.35742 0)
(39.1547 -2.81691 0)
(22.5068 0.940789 0)
(15.5307 2.9587 0)
(4.19077 3.40395 0)
(-12.2842 1.90348 0)
(-27.2303 -1.37433 0)
(-0.705182 -3.65619 0)
(27.3283 -1.55806 0)
(11.8389 2.02137 0)
(-5.36844 3.54419 0)
(-14.9693 2.97672 0)
(-25.4097 0.448172 0)
(-36.8534 -3.80937 0)
(7.94959 -5.57065 0)
(40.644 -2.5253 0)
(23.7925 0.973504 0)
(15.7072 2.96541 0)
(4.5603 3.50951 0)
(-11.6926 2.16555 0)
(-29.0114 -0.911719 0)
(-7.47936 -3.74791 0)
(27.139 -2.16439 0)
(14.0211 1.82529 0)
(-5.78759 3.68171 0)
(-13.2335 3.05217 0)
(-27.4632 0.122271 0)
(-35.2739 -4.37738 0)
(18.1516 -5.38145 0)
(40.5263 -1.68529 0)
(18.7739 1.85592 0)
(11.0834 3.41393 0)
(1.07238 3.44765 0)
(-24.5852 0.623514 0)
(-23.8789 -3.34959 0)
(-5.51249 13.4461 0)
(-65.2022 -5.49318 0)
(-1.63382 -11.5151 0)
(20.5975 -1.1674 0)
(10.2431 3.40512 0)
(4.14538 4.70934 0)
(-5.65332 5.17393 0)
(-17.5185 2.07014 0)
(-35.6382 -5.96193 0)
(3.89139 -11.4324 0)
(39.6185 -5.24772 0)
(18.804 2.70449 0)
(7.41314 5.81506 0)
(-3.23979 6.56463 0)
(-16.9857 4.03964 0)
(-29.1429 -3.00214 0)
(0.43204 -8.18213 0)
(30.1752 -3.24501 0)
(16.2978 4.29924 0)
(1.83079 6.77557 0)
(-7.3349 5.89825 0)
(-21.7191 1.80593 0)
(-38.1999 -7.3444 0)
(6.14367 -11.9408 0)
(40.5365 -4.7624 0)
(21.0839 2.81789 0)
(7.61879 5.91335 0)
(-3.06893 6.75597 0)
(-16.9428 4.56851 0)
(-30.9272 -2.03652 0)
(-5.39103 -8.41627 0)
(30.5804 -4.50464 0)
(18.1358 3.97092 0)
(1.11401 7.03444 0)
(-6.16907 6.09638 0)
(-24.399 1.20953 0)
(-37.038 -8.72924 0)
(16.9087 -11.5684 0)
(40.7821 -2.81354 0)
(15.7049 4.41086 0)
(3.99242 6.5927 0)
(-5.50185 6.89793 0)
(-28.7024 1.59524 0)
(-25.5571 -7.4717 0)
(7.41093 18.9335 0)
(-55.8839 -5.40587 0)
(-10.954 -16.7672 0)
(10.444 -3.60828 0)
(7.75192 3.90007 0)
(4.94312 6.19701 0)
(2.17173 7.41301 0)
(-6.74633 3.91236 0)
(-25.9954 -7.9203 0)
(3.18253 -16.2609 0)
(28.7028 -6.7924 0)
(7.18534 4.83826 0)
(-1.6535 8.42803 0)
(-6.06853 8.80186 0)
(-12.8704 5.27483 0)
(-22.2868 -4.79199 0)
(1.11792 -12.2133 0)
(23.4355 -4.88761 0)
(12.0637 5.73354 0)
(5.15271 9.07863 0)
(2.03311 8.53419 0)
(-8.98406 3.64051 0)
(-28.3883 -9.68741 0)
(3.46352 -17.1091 0)
(29.293 -6.41629 0)
(10.1097 4.98469 0)
(-1.71897 8.72153 0)
(-5.95914 9.13226 0)
(-13.3343 6.01404 0)
(-23.4822 -3.53819 0)
(-2.78175 -12.6073 0)
(24.1987 -6.56626 0)
(12.8538 5.35776 0)
(4.09474 9.43331 0)
(3.04388 8.83457 0)
(-11.3101 2.79975 0)
(-28.3557 -11.8103 0)
(12.1456 -16.6088 0)
(29.1203 -3.50052 0)
(5.45821 7.07487 0)
(-2.72461 9.4515 0)
(-5.58723 9.38467 0)
(-21.0662 1.93201 0)
(-20.5929 -11.2096 0)
(15.5263 22.8022 0)
(-45.1356 -3.36646 0)
(-18.7087 -20.0032 0)
(-0.133212 -6.79063 0)
(3.15614 3.19045 0)
(1.88065 6.72559 0)
(4.04298 8.78569 0)
(-0.221921 5.39129 0)
(-17.695 -8.94174 0)
(2.30969 -19.1999 0)
(18.8689 -7.4276 0)
(-0.649563 6.74288 0)
(-6.34014 10.3995 0)
(-6.2357 10.0313 0)
(-9.537 5.58043 0)
(-16.0317 -6.41355 0)
(1.74629 -15.095 0)
(17.3568 -6.24604 0)
(8.87771 6.2435 0)
(5.71073 10.3602 0)
(7.00361 10.4652 0)
(-0.219637 5.36199 0)
(-19.3318 -10.7139 0)
(1.02438 -20.3335 0)
(19.2227 -7.38695 0)
(2.46624 6.90184 0)
(-6.6444 10.9254 0)
(-5.76854 10.5479 0)
(-10.3145 6.4938 0)
(-16.7064 -5.09595 0)
(-0.455599 -15.6229 0)
(18.274 -8.06787 0)
(8.82901 5.88939 0)
(4.36845 10.7212 0)
(7.88632 10.7736 0)
(-2.08115 4.34218 0)
(-20.2262 -13.3303 0)
(7.54851 -19.7565 0)
(19.0677 -3.77382 0)
(-1.55979 9.2442 0)
(-5.84548 11.5792 0)
(-4.31878 10.7118 0)
(-14.714 1.66618 0)
(-15.9661 -13.8801 0)
(19.281 25.0562 0)
(-32.5089 0.120522 0)
(-22.2723 -20.702 0)
(-8.97198 -10.0302 0)
(-3.20377 1.54066 0)
(-3.87334 6.3982 0)
(1.74943 9.00887 0)
(2.62986 5.98165 0)
(-11.1729 -9.21449 0)
(1.22847 -20.2107 0)
(10.4514 -7.29727 0)
(-5.34743 8.00964 0)
(-7.33712 11.4946 0)
(-3.2257 10.4249 0)
(-5.74518 5.25974 0)
(-10.3089 -7.7357 0)
(2.16735 -16.7328 0)
(11.8596 -7.21936 0)
(5.33748 6.14792 0)
(3.18868 10.8203 0)
(8.27576 11.4784 0)
(4.91197 6.59267 0)
(-11.5244 -10.5481 0)
(-0.765384 -21.482 0)
(10.7042 -7.73785 0)
(-2.61593 8.15462 0)
(-7.88956 12.2179 0)
(-2.54857 11.1472 0)
(-6.50582 6.31351 0)
(-10.5107 -6.54055 0)
(1.24762 -17.341 0)
(12.7759 -8.93675 0)
(4.79169 5.87049 0)
(1.82582 11.1125 0)
(9.08412 11.6952 0)
(3.52858 5.48288 0)
(-13.0389 -13.3866 0)
(3.65768 -20.9095 0)
(10.7537 -3.72571 0)
(-6.06059 10.5447 0)
(-6.04076 12.737 0)
(-0.434796 11.0726 0)
(-8.98861 1.12975 0)
(-11.6901 -15.4017 0)
(19.6505 25.6396 0)
(-19.9393 4.22553 0)
(-20.905 -18.7345 0)
(-14.1455 -12.3414 0)
(-9.17465 -0.614827 0)
(-8.86063 5.32253 0)
(-1.57995 7.96722 0)
(3.15849 5.43704 0)
(-6.41428 -8.99421 0)
(-0.0889776 -19.432 0)
(3.50228 -6.63524 0)
(-7.8463 8.32101 0)
(-6.21973 11.4839 0)
(0.545404 10.086 0)
(-1.4583 4.63239 0)
(-5.18478 -8.5388 0)
(2.23346 -17.027 0)
(6.89768 -7.56829 0)
(1.16803 5.74953 0)
(-0.090056 10.552 0)
(7.30293 11.4095 0)
(7.39153 7.043 0)
(-5.14537 -9.47125 0)
(-1.65515 -20.6091 0)
(3.89827 -7.53644 0)
(-5.79199 8.43535 0)
(-6.81722 12.3466 0)
(1.1078 10.9851 0)
(-1.90844 5.76541 0)
(-5.03096 -7.56736 0)
(2.10879 -17.6467 0)
(7.71289 -9.00755 0)
(0.465605 5.55719 0)
(-1.16184 10.7418 0)
(7.96663 11.4778 0)
(6.40974 5.92644 0)
(-6.87897 -12.2609 0)
(0.864201 -20.1098 0)
(4.21627 -3.47375 0)
(-8.40481 10.7379 0)
(-4.48097 12.7065 0)
(3.83264 10.6086 0)
(-4.01374 0.696914 0)
(-7.71793 -15.6754 0)
(17.7994 24.6042 0)
(-8.77943 8.0291 0)
(-15.4129 -14.5945 0)
(-14.7174 -12.934 0)
(-12.4112 -2.72973 0)
(-10.7363 3.54145 0)
(-3.51328 5.9248 0)
(2.65597 3.95408 0)
(-3.19562 -8.43467 0)
(-1.53877 -17.1718 0)
(-1.88639 -5.72296 0)
(-8.92864 7.60393 0)
(-4.51619 10.3339 0)
(3.07176 9.1212 0)
(2.59973 3.79744 0)
(-1.02958 -8.61205 0)
(1.86047 -15.9394 0)
(2.63846 -7.17724 0)
(-2.93608 5.13535 0)
(-2.37519 9.64965 0)
(5.52109 10.3014 0)
(8.23506 6.64919 0)
(-0.283109 -7.84499 0)
(-1.67577 -17.9782 0)
(-0.984319 -6.81465 0)
(-7.461 7.73257 0)
(-4.97177 11.2686 0)
(3.46392 10.1288 0)
(2.63402 4.93036 0)
(-0.66627 -7.87043 0)
(2.1265 -16.5026 0)
(3.29787 -8.25967 0)
(-3.51989 5.0075 0)
(-3.00287 9.71759 0)
(6.03386 10.2168 0)
(7.55642 5.59262 0)
(-1.89442 -10.3279 0)
(-0.745114 -17.6014 0)
(-0.501949 -3.08155 0)
(-9.04832 9.84581 0)
(-2.55649 11.5391 0)
(6.2498 9.54291 0)
(-0.0225706 0.398172 0)
(-4.1145 -14.6852 0)
(14.3403 22.1232 0)
(0.171695 10.6796 0)
(-7.65391 -9.27638 0)
(-11.0374 -11.5853 0)
(-11.564 -4.30523 0)
(-9.44152 1.34804 0)
(-3.52751 3.45342 0)
(1.92198 1.99873 0)
(-1.19038 -7.52596 0)
(-2.75071 -13.9191 0)
(-5.34035 -4.73274 0)
(-8.92907 5.99682 0)
(-3.27809 8.29861 0)
(3.87162 7.53675 0)
(5.29434 2.76207 0)
(1.67533 -7.82992 0)
(1.12477 -13.617 0)
(-0.642038 -6.12805 0)
(-5.74002 4.2939 0)
(-3.24394 8.16405 0)
(3.91573 8.43487 0)
(7.95961 5.51123 0)
(2.79763 -5.94637 0)
(-1.18929 -14.1046 0)
(-3.79611 -5.57652 0)
(-7.82606 6.22884 0)
(-3.43385 9.2796 0)
(4.24104 8.587 0)
(5.80081 3.81999 0)
(2.17206 -7.25538 0)
(1.58555 -14.0592 0)
(-0.0635851 -6.87691 0)
(-6.0115 4.18617 0)
(-3.42325 8.12281 0)
(4.35568 8.24357 0)
(7.53809 4.56981 0)
(1.50982 -7.9274 0)
(-1.39025 -13.8735 0)
(-3.32757 -2.50746 0)
(-8.43909 8.12367 0)
(-1.28796 9.53267 0)
(6.63147 8.02932 0)
(2.92615 0.114544 0)
(-1.14936 -12.5777 0)
(10.026 18.5552 0)
(6.08181 11.6523 0)
(-0.112071 -4.03232 0)
(-4.95241 -8.7362 0)
(-7.43688 -4.89478 0)
(-6.44498 -0.629905 0)
(-2.52745 1.17079 0)
(1.35135 0.112159 0)
(-0.042681 -6.32176 0)
(-3.18535 -10.3102 0)
(-6.53519 -3.77293 0)
(-7.86866 3.89739 0)
(-2.53532 5.8257 0)
(3.43235 5.4527 0)
(5.90551 1.65844 0)
(2.77549 -6.35222 0)
(0.250119 -10.4679 0)
(-2.74014 -4.66511 0)
(-6.51491 3.24281 0)
(-3.09096 6.19902 0)
(2.68376 6.23374 0)
(6.69502 3.95918 0)
(3.91984 -4.03505 0)
(-0.677266 -9.74283 0)
(-4.60829 -4.0024 0)
(-6.9001 4.35845 0)
(-2.35429 6.84743 0)
(3.88426 6.48131 0)
(6.71575 2.62156 0)
(3.452 -5.86457 0)
(0.856502 -10.7507 0)
(-2.15464 -5.14848 0)
(-6.43675 3.12479 0)
(-2.99523 6.08164 0)
(3.05009 6.01689 0)
(6.49067 3.18511 0)
(3.01987 -5.43902 0)
(-1.39452 -9.63041 0)
(-4.34813 -1.76648 0)
(-6.85915 5.97471 0)
(-0.623237 7.13504 0)
(5.883 6.12814 0)
(4.59889 -0.153721 0)
(0.74641 -9.6715 0)
(5.90754 14.5122 0)
(7.91197 10.9234 0)
(4.73722 -0.00882442 0)
(0.923168 -5.29934 0)
(-2.31516 -4.31722 0)
(-3.00086 -1.78185 0)
(-1.08321 -0.517411 0)
(1.2154 -1.27287 0)
(0.54331 -4.97628 0)
(-2.7454 -6.97638 0)
(-5.77782 -2.93436 0)
(-5.98006 1.85587 0)
(-1.91392 3.37752 0)
(2.48064 3.26126 0)
(4.8143 0.678492 0)
(2.64364 -4.56727 0)
(-0.448554 -7.1105 0)
(-3.55342 -3.16952 0)
(-5.61104 2.09076 0)
(-2.53326 4.09587 0)
(1.62311 4.09011 0)
(4.73755 2.46445 0)
(3.4456 -2.35479 0)
(-0.364756 -5.74667 0)
(-3.95735 -2.42095 0)
(-5.07345 2.63922 0)
(-1.47288 4.42673 0)
(3.03337 4.2296 0)
(5.70595 1.52703 0)
(3.44885 -4.11736 0)
(0.252912 -7.2237 0)
(-2.93557 -3.43985 0)
(-5.31448 1.98539 0)
(-2.32603 3.96068 0)
(1.91109 3.88921 0)
(4.6827 1.88491 0)
(2.89533 -3.23377 0)
(-1.06148 -5.69327 0)
(-3.90009 -0.989409 0)
(-4.74988 3.86041 0)
(-0.211508 4.77131 0)
(4.58375 4.08078 0)
(4.77116 -0.318695 0)
(1.52838 -6.49566 0)
(3.16991 10.6479 0)
(6.70402 9.0229 0)
(6.35799 2.27697 0)
(4.36846 -2.2834 0)
(1.58692 -2.93305 0)
(0.12627 -1.99748 0)
(0.543736 -1.46709 0)
(1.44964 -1.97387 0)
(0.809882 -3.67969 0)
(-1.76002 -4.37993 0)
(-3.93335 -2.25773 0)
(-3.83258 0.295919 0)
(-1.28243 1.35074 0)
(1.52433 1.39725 0)
(3.10083 -0.0423868 0)
(1.85448 -2.9058 0)
(-0.734067 -4.19252 0)
(-3.15931 -1.93591 0)
(-3.98086 1.05606 0)
(-1.89896 2.27348 0)
(0.727227 2.31278 0)
(2.69707 1.33143 0)
(2.18491 -1.09621 0)
(-0.260734 -2.75246 0)
(-2.65976 -1.17023 0)
(-3.06335 1.35505 0)
(-0.748702 2.4161 0)
(2.0802 2.30747 0)
(3.86617 0.688518 0)
(2.6099 -2.47676 0)
(-0.072002 -4.14507 0)
(-2.60758 -2.02717 0)
(-3.64114 1.00535 0)
(-1.67406 2.18042 0)
(0.935992 2.13469 0)
(2.70848 0.933838 0)
(1.88308 -1.5841 0)
(-0.727544 -2.71399 0)
(-2.69865 -0.357284 0)
(-2.73775 2.17767 0)
(0.0579909 2.75904 0)
(3.09575 2.28335 0)
(3.68502 -0.328064 0)
(1.45129 -3.67623 0)
(1.81023 7.54496 0)
(4.4332 6.76776 0)
(5.39488 2.96395 0)
(4.75468 -0.265692 0)
(3.10344 -1.46103 0)
(1.9221 -1.60833 0)
(1.65527 -1.69077 0)
(1.63103 -2.01282 0)
(0.89256 -2.57738 0)
(-0.726817 -2.66523 0)
(-2.00929 -1.75209 0)
(-1.98852 -0.63849 0)
(-0.707772 -0.0175883 0)
(0.80133 0.12983 0)
(1.63732 -0.461416 0)
(0.990509 -1.66341 0)
(-0.645854 -2.13652 0)
(-2.12465 -1.08022 0)
(-2.41791 0.337379 0)
(-1.29427 0.992327 0)
(0.138329 1.06211 0)
(1.16751 0.62501 0)
(0.996503 -0.325306 0)
(-0.215969 -0.959182 0)
(-1.4148 -0.404191 0)
(-1.50105 0.55441 0)
(-0.282387 1.03209 0)
(1.22579 0.983793 0)
(2.13992 0.194527 0)
(1.50095 -1.24357 0)
(-0.184158 -1.96277 0)
(-1.7428 -1.02954 0)
(-2.1526 0.355158 0)
(-1.11467 0.952992 0)
(0.263811 0.931344 0)
(1.17374 0.381736 0)
(0.827604 -0.568755 0)
(-0.477895 -0.924211 0)
(-1.4685 0.0201968 0)
(-1.29819 1.06227 0)
(0.155188 1.32745 0)
(1.76746 1.03182 0)
(2.17955 -0.220266 0)
(0.957613 -1.66304 0)
(1.07097 5.37551 0)
(2.54543 4.84778 0)
(3.51832 2.72377 0)
(3.50072 0.74171 0)
(2.80275 -0.422484 0)
(2.13607 -1.0271 0)
(1.74592 -1.39629 0)
(1.3958 -1.6282 0)
(0.800607 -1.75141 0)
(-0.0258888 -1.69361 0)
(-0.64802 -1.40763 0)
(-0.706587 -1.0518 0)
(-0.222159 -0.760066 0)
(0.394155 -0.567349 0)
(0.705141 -0.630956 0)
(0.38214 -0.911063 0)
(-0.423805 -0.974492 0)
(-1.14033 -0.568083 0)
(-1.267 -0.0311171 0)
(-0.778976 0.261984 0)
(-0.123617 0.339474 0)
(0.327233 0.252381 0)
(0.297846 0.0256223 0)
(-0.141663 -0.146655 0)
(-0.573124 -0.0549605 0)
(-0.562472 0.14648 0)
(-0.0460044 0.271572 0)
(0.605029 0.259418 0)
(0.957012 -0.00898152 0)
(0.639199 -0.495291 0)
(-0.183454 -0.732167 0)
(-0.937947 -0.433284 0)
(-1.11715 0.0399614 0)
(-0.681067 0.272611 0)
(-0.0781179 0.276882 0)
(0.298012 0.126315 0)
(0.179758 -0.0850185 0)
(-0.291845 -0.12142 0)
(-0.630434 0.161733 0)
(-0.486793 0.446733 0)
(0.143787 0.499221 0)
(0.840392 0.357623 0)
(0.997885 -0.0840423 0)
(0.472415 -0.536526 0)
(0.652463 3.85352 0)
(1.52584 3.5378 0)
(2.12848 2.2945 0)
(2.24894 1.076 0)
(1.99174 0.139838 0)
(1.62503 -0.516258 0)
(1.29393 -0.943553 0)
(0.969823 -1.15357 0)
(0.616972 -1.21145 0)
(0.264658 -1.20818 0)
(0.00877728 -1.1906 0)
(-0.068042 -1.1433 0)
(0.0313469 -1.0306 0)
(0.182583 -0.839819 0)
(0.223816 -0.6524 0)
(0.0588147 -0.54179 0)
(-0.250206 -0.445196 0)
(-0.510656 -0.302915 0)
(-0.561981 -0.160767 0)
(-0.39957 -0.0650097 0)
(-0.16077 0.00727522 0)
(0.00975993 0.0733246 0)
(0.0341963 0.106241 0)
(-0.0564407 0.0856192 0)
(-0.145506 0.0382431 0)
(-0.115597 -0.0194219 0)
(0.0489111 -0.0432434 0)
(0.246086 -0.0315974 0)
(0.324736 -0.0443856 0)
(0.180442 -0.11622 0)
(-0.127613 -0.167045 0)
(-0.410682 -0.124789 0)
(-0.488787 -0.0505804 0)
(-0.357806 -0.0134305 0)
(-0.166272 0.000180883 0)
(-0.0470188 0.022872 0)
(-0.0638015 0.0616821 0)
(-0.159455 0.109838 0)
(-0.206734 0.161585 0)
(-0.117218 0.166736 0)
(0.101855 0.131183 0)
(0.321337 0.0928544 0)
(0.340394 0.022561 0)
(0.175442 -0.0422317 0)
(0.412482 2.75312 0)
(1.02263 2.64009 0)
(1.41464 1.90094 0)
(1.52506 1.12745 0)
(1.42556 0.430246 0)
(1.20246 -0.132724 0)
(0.942507 -0.527407 0)
(0.700412 -0.759241 0)
(0.489546 -0.876586 0)
(0.317524 -0.956582 0)
(0.189916 -1.03127 0)
(0.102778 -1.06662 0)
(0.0525745 -1.0071 0)
(0.0232137 -0.835592 0)
(-0.0179564 -0.607617 0)
(-0.085763 -0.405248 0)
(-0.164129 -0.272516 0)
(-0.217341 -0.211471 0)
(-0.220357 -0.193832 0)
(-0.179179 -0.173022 0)
(-0.118385 -0.112309 0)
(-0.0598452 -0.0160649 0)
(-0.0210396 0.0652688 0)
(-0.000986009 0.0789018 0)
(0.0122537 0.0226242 0)
(0.0341987 -0.0651388 0)
(0.0667613 -0.114628 0)
(0.0908754 -0.0886113 0)
(0.0839832 -0.0220495 0)
(0.0286012 0.0307313 0)
(-0.0567241 0.0364304 0)
(-0.130765 0.00287742 0)
(-0.160586 -0.0482556 0)
(-0.148116 -0.0875417 0)
(-0.121159 -0.0805488 0)
(-0.098116 -0.017602 0)
(-0.0842035 0.0613547 0)
(-0.0679009 0.112423 0)
(-0.0391277 0.10704 0)
(0.00523604 0.0621351 0)
(0.0554082 0.0228972 0)
(0.0911829 0.0345255 0)
(0.0779288 0.0831783 0)
(0.0505677 0.117346 0)
(0.258996 1.939 0)
(0.692918 1.95933 0)
(1.00145 1.53962 0)
(1.13166 1.05703 0)
(1.1165 0.575095 0)
(1.00607 0.139079 0)
(0.837624 -0.205228 0)
(0.65188 -0.452596 0)
(0.484989 -0.626889 0)
(0.341399 -0.759202 0)
(0.216337 -0.859245 0)
(0.104087 -0.90521 0)
(0.00590783 -0.865227 0)
(-0.0709015 -0.734264 0)
(-0.121221 -0.551907 0)
(-0.144099 -0.380589 0)
(-0.144087 -0.266773 0)
(-0.130288 -0.219504 0)
(-0.112307 -0.210005 0)
(-0.0960957 -0.195229 0)
(-0.0807929 -0.145228 0)
(-0.0596324 -0.0691871 0)
(-0.0283551 -0.00485761 0)
(0.00912866 0.0148462 0)
(0.0383167 -0.0154441 0)
(0.0507884 -0.0650287 0)
(0.0472573 -0.0894547 0)
(0.0323166 -0.0623233 0)
(0.0173445 -0.00132333 0)
(0.00680071 0.0510944 0)
(-0.000953338 0.0632275 0)
(-0.00755602 0.0284501 0)
(-0.0152456 -0.0285793 0)
(-0.0273189 -0.0707043 0)
(-0.0405352 -0.0684111 0)
(-0.0459638 -0.025956 0)
(-0.0394864 0.0278669 0)
(-0.0195502 0.059818 0)
(0.00479209 0.0568997 0)
(0.0196228 0.0334287 0)
(0.0218804 0.0206976 0)
(0.0162688 0.0477813 0)
(0.00364137 0.101158 0)
(0.00986652 0.128349 0)
(0.158487 1.34338 0)
(0.449465 1.41757 0)
(0.689243 1.19344 0)
(0.833388 0.909177 0)
(0.884168 0.599388 0)
(0.857033 0.295377 0)
(0.777272 0.0183692 0)
(0.662868 -0.211559 0)
(0.530993 -0.397987 0)
(0.396395 -0.545137 0)
(0.264352 -0.649799 0)
(0.139454 -0.699728 0)
(0.0296199 -0.683593 0)
(-0.0555911 -0.60566 0)
(-0.108779 -0.491405 0)
(-0.129117 -0.378588 0)
(-0.124741 -0.295748 0)
(-0.108901 -0.249738 0)
(-0.0930733 -0.225376 0)
(-0.0819846 -0.1996 0)
(-0.0730578 -0.158267 0)
(-0.0599046 -0.106572 0)
(-0.0384377 -0.0629751 0)
(-0.0117365 -0.0431957 0)
(0.00929544 -0.0482278 0)
(0.017157 -0.0612938 0)
(0.0133633 -0.0611212 0)
(0.00482267 -0.0362851 0)
(0.00116404 0.00358742 0)
(0.00720655 0.0360755 0)
(0.0191219 0.0432186 0)
(0.0277347 0.0227747 0)
(0.0281616 -0.0109545 0)
(0.019425 -0.0360654 0)
(0.00496078 -0.037853 0)
(-0.00630147 -0.0185536 0)
(-0.00868683 0.00757749 0)
(-0.00226711 0.0270846 0)
(0.00589749 0.0336699 0)
(0.00770815 0.0340144 0)
(0.00190898 0.041817 0)
(-0.00586672 0.0660132 0)
(-0.0116962 0.0989163 0)
(-0.000416586 0.108907 0)
(0.0951321 0.916277 0)
(0.280684 0.995597 0)
(0.449223 0.879617 0)
(0.572912 0.720311 0)
(0.647046 0.533082 0)
(0.670322 0.334681 0)
(0.65044 0.139596 0)
(0.596834 -0.0423357 0)
(0.517596 -0.201561 0)
(0.4209 -0.333685 0)
(0.3154 -0.431281 0)
(0.209701 -0.486998 0)
(0.112945 -0.497561 0)
(0.0340211 -0.468502 0)
(-0.0219184 -0.41408 0)
(-0.0546074 -0.353412 0)
(-0.0684059 -0.301282 0)
(-0.0712936 -0.262587 0)
(-0.0702767 -0.232369 0)
(-0.0685394 -0.202214 0)
(-0.0654594 -0.167472 0)
(-0.0588833 -0.130815 0)
(-0.0480534 -0.099517 0)
(-0.035101 -0.0792686 0)
(-0.0239359 -0.069081 0)
(-0.0181702 -0.0621065 0)
(-0.0171973 -0.0501466 0)
(-0.0166517 -0.0297802 0)
(-0.0129428 -0.00561893 0)
(-0.00437719 0.0128554 0)
(0.0070953 0.0182596 0)
(0.0160886 0.010371 0)
(0.0188084 -0.00317667 0)
(0.014777 -0.0136333 0)
(0.0065927 -0.014565 0)
(-0.00136286 -0.00599612 0)
(-0.00617634 0.00696171 0)
(-0.0073696 0.0194168 0)
(-0.00726447 0.0294874 0)
(-0.00859202 0.0393096 0)
(-0.0114628 0.0525318 0)
(-0.0130806 0.0704773 0)
(-0.0125685 0.0891078 0)
(-0.00185897 0.0888808 0)
(0.0562925 0.614983 0)
(0.171297 0.680331 0)
(0.280596 0.619916 0)
(0.369792 0.532527 0)
(0.435333 0.424128 0)
(0.472934 0.302522 0)
(0.483069 0.175508 0)
(0.468292 0.0500691 0)
(0.431562 -0.0666639 0)
(0.378007 -0.168169 0)
(0.313725 -0.24881 0)
(0.24424 -0.303792 0)
(0.176122 -0.331461 0)
(0.115365 -0.334576 0)
(0.0659556 -0.320212 0)
(0.0291329 -0.296204 0)
(0.00338869 -0.269744 0)
(-0.0142444 -0.244203 0)
(-0.026581 -0.219341 0)
(-0.0353385 -0.193536 0)
(-0.0408631 -0.166256 0)
(-0.0430118 -0.139088 0)
(-0.0421596 -0.114751 0)
(-0.0395177 -0.0950422 0)
(-0.0366002 -0.0794542 0)
(-0.0344409 -0.0655813 0)
(-0.0328052 -0.0508929 0)
(-0.0303796 -0.0347315 0)
(-0.0260567 -0.0190405 0)
(-0.0199381 -0.00690113 0)
(-0.0134952 -0.00069437 0)
(-0.00854817 -0.000128085 0)
(-0.0063096 -0.00217176 0)
(-0.0071517 -0.00332457 0)
(-0.0103077 -0.00105079 0)
(-0.0141635 0.00463397 0)
(-0.0172721 0.0126213 0)
(-0.0190708 0.0215955 0)
(-0.0197872 0.0310601 0)
(-0.0197484 0.0413173 0)
(-0.0187617 0.0526963 0)
(-0.0157621 0.0645596 0)
(-0.0116506 0.0748271 0)
(-0.00214298 0.0705914 0)
(0.0330939 0.404548 0)
(0.103752 0.452339 0)
(0.171875 0.420122 0)
(0.230963 0.372232 0)
(0.278901 0.310931 0)
(0.312501 0.239705 0)
(0.330762 0.162443 0)
(0.333726 0.0832788 0)
(0.323139 0.00601679 0)
(0.300315 -0.0641299 0)
(0.267529 -0.123949 0)
(0.228855 -0.170343 0)
(0.187917 -0.201951 0)
(0.148046 -0.219404 0)
(0.111773 -0.225049 0)
(0.0804591 -0.222035 0)
(0.0543307 -0.213337 0)
(0.0328759 -0.20092 0)
(0.0153666 -0.185778 0)
(0.00125944 -0.168429 0)
(-0.00969475 -0.149566 0)
(-0.01773 -0.130253 0)
(-0.0232597 -0.11184 0)
(-0.0268906 -0.0950794 0)
(-0.0292735 -0.0799976 0)
(-0.0308052 -0.0660529 0)
(-0.0315161 -0.0526705 0)
(-0.0312059 -0.0398166 0)
(-0.0297563 -0.0281405 0)
(-0.0274253 -0.0185578 0)
(-0.0248543 -0.011547 0)
(-0.0227773 -0.00674514 0)
(-0.021738 -0.0031715 0)
(-0.0218321 0.000367728 0)
(-0.022701 0.00466361 0)
(-0.0237869 0.0100363 0)
(-0.0245616 0.0162961 0)
(-0.0246794 0.023167 0)
(-0.0239439 0.0304992 0)
(-0.0222024 0.0381842 0)
(-0.0192665 0.0459412 0)
(-0.0147461 0.053155 0)
(-0.00967224 0.0588331 0)
(-0.00205521 0.0538906 0)
(0.0196574 0.257656 0)
(0.0634759 0.289863 0)
(0.105725 0.272378 0)
(0.143875 0.246143 0)
(0.17671 0.21208 0)
(0.202243 0.171759 0)
(0.219705 0.127032 0)
(0.228702 0.0800314 0)
(0.229381 0.0330535 0)
(0.222216 -0.0119369 0)
(0.208464 -0.0522346 0)
(0.189841 -0.08628 0)
(0.167952 -0.113017 0)
(0.144521 -0.132174 0)
(0.121041 -0.144209 0)
(0.0985906 -0.150046 0)
(0.0778308 -0.150761 0)
(0.0590901 -0.147335 0)
(0.0424954 -0.140589 0)
(0.0281091 -0.131248 0)
(0.0159845 -0.120055 0)
(0.00590146 -0.107797 0)
(-0.00230953 -0.0952188 0)
(-0.00877377 -0.0828626 0)
(-0.0138444 -0.0710059 0)
(-0.0177603 -0.0597251 0)
(-0.0206457 -0.0490252 0)
(-0.0225808 -0.0389914 0)
(-0.0236713 -0.0298258 0)
(-0.0241033 -0.0217491 0)
(-0.0241375 -0.0148421 0)
(-0.0240455 -0.00895695 0)
(-0.0240154 -0.00376278 0)
(-0.0240742 0.00112033 0)
(-0.0241187 0.00597702 0)
(-0.0239896 0.0109475 0)
(-0.0235133 0.0160407 0)
(-0.0225373 0.0212068 0)
(-0.0209401 0.0263807 0)
(-0.0186252 0.031452 0)
(-0.0155128 0.0362168 0)
(-0.011479 0.0403679 0)
(-0.00713921 0.0434776 0)
(-0.00175878 0.0391543 0)
(0.0124415 0.157888 0)
(0.0412993 0.178077 0)
(0.0689038 0.168455 0)
(0.0945046 0.154032 0)
(0.117385 0.135234 0)
(0.136299 0.11279 0)
(0.150739 0.0875862 0)
(0.160326 0.0606619 0)
(0.16498 0.0331541 0)
(0.165106 0.00620253 0)
(0.160901 -0.0189212 0)
(0.15277 -0.0413345 0)
(0.141729 -0.0603082 0)
(0.128651 -0.0754247 0)
(0.114341 -0.0865783 0)
(0.0995136 -0.0939129 0)
(0.0847489 -0.0977377 0)
(0.0704934 -0.0984501 0)
(0.0570794 -0.0964922 0)
(0.0447438 -0.0923339 0)
(0.0336439 -0.0864704 0)
(0.0238436 -0.0794549 0)
(0.0153343 -0.0716506 0)
(0.00802523 -0.063496 0)
(0.00186646 -0.0552809 0)
(-0.00323169 -0.0472 0)
(-0.00742555 -0.0393912 0)
(-0.0107889 -0.0319672 0)
(-0.0134107 -0.0250289 0)
(-0.0154011 -0.0186519 0)
(-0.0168753 -0.0128601 0)
(-0.0179459 -0.00761072 0)
(-0.018686 -0.00281257 0)
(-0.0191122 0.00164703 0)
(-0.0192119 0.0058621 0)
(-0.0189578 0.00988898 0)
(-0.0183108 0.0137462 0)
(-0.017231 0.0174237 0)
(-0.015688 0.0208904 0)
(-0.0136654 0.0240891 0)
(-0.0111554 0.0269277 0)
(-0.00814208 0.0292825 0)
(-0.00492668 0.0309841 0)
(-0.0013619 0.0276112 0)
(0.0087882 0.0944486 0)
(0.0299253 0.106486 0)
(0.0498825 0.100992 0)
(0.0687445 0.0928017 0)
(0.0860347 0.0821381 0)
(0.100893 0.0693713 0)
(0.112984 0.0549565 0)
(0.122043 0.0394328 0)
(0.127931 0.0234049 0)
(0.130663 0.00750352 0)
(0.130385 -0.00780014 0)
(0.12737 -0.0218204 0)
(0.122009 -0.0341172 0)
(0.114744 -0.0443789 0)
(0.106039 -0.052429 0)
(0.0963499 -0.0582221 0)
(0.0860959 -0.061822 0)
(0.0756453 -0.0633773 0)
(0.0653089 -0.0630998 0)
(0.0553382 -0.0612472 0)
(0.0459263 -0.0581067 0)
(0.0372063 -0.0539774 0)
(0.0292583 -0.0491442 0)
(0.0221179 -0.0438694 0)
(0.015779 -0.0383738 0)
(0.0102063 -0.0328218 0)
(0.00534867 -0.0273537 0)
(0.00122388 -0.0220734 0)
(-0.00221459 -0.0170588 0)
(-0.00507946 -0.0123634 0)
(-0.00741034 -0.0080154 0)
(-0.0092553 -0.00400627 0)
(-0.0106481 -0.000314941 0)
(-0.0116122 0.00308827 0)
(-0.0121715 0.00623639 0)
(-0.0123348 0.00915398 0)
(-0.0121049 0.0118539 0)
(-0.0114864 0.0143365 0)
(-0.0104889 0.0165905 0)
(-0.00913054 0.0185923 0)
(-0.00743336 0.0203049 0)
(-0.00542391 0.02168 0)
(-0.00324849 0.0226486 0)
(-0.000970422 0.0200548 0)
(0.00679747 0.0535797 0)
(0.0237049 0.0602322 0)
(0.0393887 0.0570086 0)
(0.0544356 0.0522543 0)
(0.068484 0.0460909 0)
(0.0808495 0.0387125 0)
(0.0912861 0.0303691 0)
(0.0996022 0.021364 0)
(0.10567 0.0120277 0)
(0.109412 0.00266209 0)
(0.110923 -0.00636308 0)
(0.110382 -0.0147278 0)
(0.107954 -0.0221594 0)
(0.103873 -0.0284482 0)
(0.0984228 -0.0334561 0)
(0.0919007 -0.0371171 0)
(0.0846025 -0.0394321 0)
(0.0768073 -0.0404597 0)
(0.0687673 -0.0403051 0)
(0.0607014 -0.0391117 0)
(0.0527939 -0.0370466 0)
(0.0451925 -0.0342901 0)
(0.0380087 -0.0310216 0)
(0.0313204 -0.0274111 0)
(0.0251689 -0.0236115 0)
(0.0195779 -0.0197484 0)
(0.014568 -0.0159281 0)
(0.0101427 -0.0122374 0)
(0.00627342 -0.00871444 0)
(0.00293655 -0.00540483 0)
(0.000144907 -0.00234315 0)
(-0.00213217 0.000454517 0)
(-0.00397137 0.00301178 0)
(-0.00540023 0.005339 0)
(-0.00641474 0.00745332 0)
(-0.00702653 0.00937091 0)
(-0.00725497 0.0111048 0)
(-0.00712217 0.0126629 0)
(-0.00665368 0.0140462 0)
(-0.00588064 0.0152486 0)
(-0.00483641 0.0162575 0)
(-0.00356593 0.0170539 0)
(-0.00214063 0.0176085 0)
(-0.000677757 0.0155203 0)
(0.00537292 0.0255187 0)
(0.0191856 0.0284792 0)
(0.0316328 0.0266405 0)
(0.0437293 0.0239854 0)
(0.0552001 0.0205775 0)
(0.065421 0.0165151 0)
(0.0741788 0.0119363 0)
(0.0813535 0.00700479 0)
(0.0868076 0.00189374 0)
(0.0905173 -0.00314453 0)
(0.0925707 -0.00797754 0)
(0.0929755 -0.012425 0)
(0.0918176 -0.0163298 0)
(0.0892435 -0.0195688 0)
(0.0854394 -0.0220582 0)
(0.0806154 -0.0237546 0)
(0.074991 -0.0246527 0)
(0.0687836 -0.0247825 0)
(0.062198 -0.024205 0)
(0.0554224 -0.0230071 0)
(0.0486241 -0.0212869 0)
(0.0419453 -0.0191563 0)
(0.0355041 -0.0167292 0)
(0.0293909 -0.0141137 0)
(0.0236726 -0.0114103 0)
(0.0183998 -0.00870242 0)
(0.0136317 -0.0060587 0)
(0.0094115 -0.00352829 0)
(0.00570409 -0.00118325 0)
(0.0024827 0.000960356 0)
(-0.000266566 0.00290881 0)
(-0.00255843 0.00466415 0)
(-0.00437976 0.006208 0)
(-0.00574416 0.00757142 0)
(-0.00667673 0.00877045 0)
(-0.00720051 0.00982221 0)
(-0.00734035 0.0107443 0)
(-0.00712505 0.011552 0)
(-0.00658802 0.0122556 0)
(-0.00576767 0.0128597 0)
(-0.00470306 0.0133635 0)
(-0.00344372 0.0137604 0)
(-0.00203979 0.0140398 0)
(-0.000651424 0.0123333 0)
(0.00390086 0.00632683 0)
(0.0144856 0.00681468 0)
(0.0234338 0.0059098 0)
(0.0322849 0.00467238 0)
(0.0407642 0.00310238 0)
(0.0483031 0.00124359 0)
(0.0547995 -0.000829024 0)
(0.0600821 -0.00302952 0)
(0.0640886 -0.00525329 0)
(0.0667371 -0.00736035 0)
(0.0679091 -0.00930854 0)
(0.0676828 -0.0110063 0)
(0.0661695 -0.0123798 0)
(0.0634957 -0.0133738 0)
(0.0598066 -0.0139524 0)
(0.055267 -0.0141006 0)
(0.0500535 -0.0138234 0)
(0.044337 -0.0131422 0)
(0.0382986 -0.0121026 0)
(0.032135 -0.0107909 0)
(0.0260051 -0.00922683 0)
(0.0200284 -0.00748623 0)
(0.0143193 -0.00564315 0)
(0.00897443 -0.00376785 0)
(0.0040631 -0.00191901 0)
(-0.000371036 -0.000147089 0)
(-0.00432521 0.00150921 0)
(-0.00780116 0.00302443 0)
(-0.0107483 0.0043549 0)
(-0.013113 0.00549764 0)
(-0.0148907 0.00646606 0)
(-0.0161691 0.00727582 0)
(-0.0169651 0.00792913 0)
(-0.0172457 0.00844509 0)
(-0.0170644 0.00884589 0)
(-0.0164595 0.00915498 0)
(-0.0154634 0.00939476 0)
(-0.0141117 0.00958533 0)
(-0.0124428 0.0097428 0)
(-0.0104997 0.0098783 0)
(-0.00832389 0.00999718 0)
(-0.00595921 0.0100987 0)
(-0.00346201 0.0101798 0)
(-0.00108347 0.00892044 0)
(0.00212799 -0.00485547 0)
(0.00894772 -0.00571434 0)
(0.0138652 -0.00605207 0)
(0.018858 -0.00639113 0)
(0.0236068 -0.00675985 0)
(0.0275873 -0.00714298 0)
(0.0306767 -0.00750605 0)
(0.0327513 -0.00781418 0)
(0.0337561 -0.00801961 0)
(0.0336511 -0.00815431 0)
(0.0324147 -0.00814265 0)
(0.030093 -0.00797194 0)
(0.0267883 -0.00763238 0)
(0.0226411 -0.00711868 0)
(0.0177896 -0.00643089 0)
(0.0123743 -0.0055767 0)
(0.00655922 -0.00457164 0)
(0.000435144 -0.00344138 0)
(-0.00583362 -0.00226137 0)
(-0.0119459 -0.000966962 0)
(-0.0177515 0.000328073 0)
(-0.0232006 0.00158744 0)
(-0.0282155 0.00277587 0)
(-0.0327103 0.00385947 0)
(-0.0366055 0.00481181 0)
(-0.0398443 0.00561161 0)
(-0.0423972 0.00624333 0)
(-0.0442552 0.00669476 0)
(-0.0454103 0.00699815 0)
(-0.0458633 0.00715484 0)
(-0.0456327 0.00716402 0)
(-0.0447569 0.00703384 0)
(-0.043268 0.00681901 0)
(-0.0412101 0.00653161 0)
(-0.0386528 0.00619846 0)
(-0.0356554 0.00584592 0)
(-0.0322769 0.00549589 0)
(-0.0285696 0.00516809 0)
(-0.0245738 0.00487764 0)
(-0.0203318 0.00463673 0)
(-0.0158826 0.00445394 0)
(-0.0112549 0.00433065 0)
(-0.00651516 0.00426666 0)
(-0.00203593 0.00372703 0)
(2.21601e-05 -0.00880943 0)
(0.00215486 -0.0100439 0)
(0.00204581 -0.0100769 0)
(0.00226926 -0.00987065 0)
(0.00234187 -0.00945486 0)
(0.00175737 -0.00884053 0)
(0.000363126 -0.00804273 0)
(-0.00190262 -0.00707929 0)
(-0.00497186 -0.00598299 0)
(-0.00882662 -0.00478697 0)
(-0.0134561 -0.00351003 0)
(-0.0188304 -0.00218062 0)
(-0.0248253 -0.0008265 0)
(-0.0312468 0.000527685 0)
(-0.0379529 0.00185922 0)
(-0.0448319 0.0031459 0)
(-0.0517505 0.0043594 0)
(-0.0585996 0.00546609 0)
(-0.0651542 0.0064993 0)
(-0.0713032 0.0074132 0)
(-0.0770212 0.00814234 0)
(-0.0821304 0.00867646 0)
(-0.0865072 0.00900412 0)
(-0.0900728 0.00911945 0)
(-0.0927684 0.00901911 0)
(-0.0945497 0.00870643 0)
(-0.0953881 0.00819182 0)
(-0.0952746 0.00749223 0)
(-0.0942125 0.00663616 0)
(-0.0922148 0.00565146 0)
(-0.0893188 0.00456891 0)
(-0.0855738 0.00342412 0)
(-0.0810088 0.00225981 0)
(-0.0757073 0.00111228 0)
(-0.0697937 1.67076e-05 0)
(-0.0633614 -0.000998269 0)
(-0.0565249 -0.00190908 0)
(-0.049385 -0.00270089 0)
(-0.0420018 -0.00336565 0)
(-0.0344336 -0.00390123 0)
(-0.0267223 -0.00430808 0)
(-0.0188702 -0.00459213 0)
(-0.0109305 -0.00475725 0)
(-0.003427 -0.00422221 0)