/*--------------------------------*- C++ -*----------------------------------*\
  =========                 |
  \\      /  F ield         | OpenFOAM: The Open Source CFD Toolbox
   \\    /   O peration     | Website:  https://openfoam.org
    \\  /    A nd           | Version:  7
     \\/     M anipulation  |
\*---------------------------------------------------------------------------*/
FoamFile
{
    version     2.0;
    format      ascii;
    class       volScalarField;
    location    "0.03";
    object      p;
}
// * * * * * * * * * * * * * * * * * * * * * * * * * * * * * * * * * * * * * //

dimensions      [0 2 -2 0 0 0 0];

internalField   nonuniform List<scalar> 
1936
(
0.00020717
-990.276
-3308.5
-4664.76
-4626.33
-3855.59
-2506.4
-1429.37
-1103.59
-1632.58
-3534.63
-4727.29
-3760.56
-2596.08
-2106.89
-2036.94
-2341.12
-2805.58
-3192.3
-3352.66
-3286.85
-3080.35
-2833.31
-2639.4
-2590.75
-2771.29
-3246.43
-3815.11
-3557.83
-2244.59
-1449.85
-1488.68
-2774.62
-4538.69
-3523.31
-1742.16
-1415.5
-2402.06
-4274.73
-3739.98
-1936.6
-1432.55
-2177.59
-4165.58
-78.623
-1015.92
-3279.74
-4613
-4582.19
-3835.69
-2517.45
-1473.59
-1164.69
-1654.74
-3494.54
-4677.45
-3743.06
-2606.98
-2132.32
-2059.59
-2347.52
-2797.15
-3175.36
-3334.32
-3272.29
-3072.4
-2832.98
-2645.92
-2600.55
-2776.5
-3235.56
-3784.13
-3527.39
-2249.28
-1493.64
-1530.8
-2767.93
-4492.96
-3495.03
-1772.47
-1466.38
-2404.64
-4228.96
-3704.95
-1958.08
-1484.36
-2189.22
-4123.49
-278.476
-1107.06
-3199.35
-4461.78
-4458.48
-3777.28
-2558.09
-1597.99
-1318.96
-1725.12
-3384.19
-4520.56
-3701.59
-2650.1
-2200.89
-2118.06
-2364.79
-2774.87
-3128.86
-3283.42
-3232.13
-3050.85
-2832.28
-2663.27
-2626.19
-2791.75
-3209.83
-3695.69
-3437.73
-2269.15
-1606.09
-1648.73
-2767.66
-4343.12
-3419.74
-1862.53
-1598.45
-2426.69
-4085.4
-3605.74
-2026.95
-1617.85
-2237.16
-3995.75
-560.522
-1249.9
-3085.48
-4237.62
-4273.52
-3686.35
-2614.29
-1770.56
-1531.66
-1840.69
-3239.3
-4283.35
-3630.42
-2710.19
-2297
-2202.65
-2395
-2747.54
-3064.47
-3211.31
-3175.06
-3020.54
-2831.78
-2688.23
-2662.58
-2813.14
-3171.58
-3565.37
-3310.94
-2306.76
-1766.51
-1814.67
-2767.28
-4114.28
-3312.49
-1994.54
-1783.47
-2463.57
-3872.06
-3461.94
-2129.63
-1804.02
-2310.39
-3805.82
-887.335
-1428.38
-2959.46
-3971.02
-4047.55
-3573.03
-2676.69
-1963.99
-1767.8
-1984.96
-3089.99
-4004.7
-3535.2
-2772.4
-2403.27
-2301.53
-2437.33
-2721.93
-2992.41
-3127.53
-3107.79
-2984.54
-2830.67
-2716.22
-2702.24
-2833.55
-3122.44
-3413.44
-3171.73
-2361.05
-1948.18
-1996.88
-2765.44
-3850.67
-3193.95
-2142.63
-1983.21
-2509.08
-3631.01
-3302.02
-2246.66
-2004.05
-2394.63
-3590.22
-1228.12
-1629.36
-2838.24
-3689.74
-3799.85
-3444.51
-2734.77
-2157.94
-2002.01
-2142.61
-2959.95
-3717.73
-3420.68
-2824.45
-2506.67
-2404.86
-2490.01
-2703.71
-2921.91
-3041.05
-3036.64
-2945.73
-2828.41
-2743.31
-2739.21
-2847.37
-3064.8
-3257.59
-3039.9
-2427.88
-2131.31
-2172.48
-2762.11
-3585.48
-3079.58
-2287.23
-2173.91
-2557.09
-3394.12
-3147.78
-2362.42
-2193.4
-2478.26
-3377.06
-1558.07
-1839.33
-2735.94
-3418.74
-3549.26
-3307.62
-2781.99
-2337.67
-2214.93
-2299.49
-2863.05
-3449.86
-3293.61
-2860.01
-2597.1
-2503.61
-2548.67
-2696.04
-2860.43
-2959.75
-2967.37
-2906.82
-2824.48
-2766.53
-2768.93
-2851.78
-3002.12
-3112.62
-2929.68
-2500.57
-2299.75
-2328.48
-2757.94
-3342.23
-2978.65
-2416.05
-2340.65
-2603.05
-3183.82
-3013.2
-2466.71
-2357.22
-2553.39
-3185.79
-1857.22
-2044.38
-2663.04
-3179.54
-3314.47
-3171.03
-2814.02
-2491.68
-2395.62
-2442.77
-2803.23
-3221.2
-3163.65
-2874.97
-2670.93
-2589.85
-2607.16
-2698.85
-2812.67
-2889.78
-2904.85
-2870.16
-2818.58
-2783.55
-2789.01
-2846.47
-2939.39
-2989.63
-2848.41
-2570.5
-2441.85
-2458.37
-2753.57
-3136.79
-2896
-2522.05
-2475.6
-2643.53
-3013.32
-2905.52
-2553.85
-2488.17
-2615.91
-3027.33
-2111.47
-2230.71
-2624.35
-2988.37
-3112.22
-3044.9
-2827.92
-2613.92
-2538.86
-2562.81
-2775.37
-3043.65
-3042.21
-2870.06
-2725.17
-2659.42
-2659.66
-2709.24
-2780.11
-2834.79
-2852.62
-2837.72
-2810.7
-2793.17
-2798.89
-2833.6
-2882.08
-2894.69
-2795.77
-2630.28
-2551.92
-2560.89
-2748.25
-2976.67
-2832.05
-2603.85
-2576.32
-2676.06
-2887.82
-2826.61
-2621.55
-2584.48
-2663.72
-2906.56
-2313.97
-2387.34
-2617.72
-2853.03
-2954.39
-2938.21
-2825.98
-2699.78
-2645.28
-2655.1
-2767.85
-2920.19
-2939.9
-2850.69
-2759.25
-2710.52
-2701.79
-2723.08
-2761.23
-2795.73
-2812.55
-2810.82
-2801.21
-2795.48
-2799.73
-2816.24
-2834.56
-2828.29
-2765.97
-2675.58
-2630.44
-2635.4
-2742.19
-2862.95
-2786.08
-2661.47
-2645.29
-2699.29
-2805.43
-2774.83
-2669.25
-2649.79
-2696.05
-2823.12
-2465.38
-2509.79
-2633.94
-2770.56
-2845.28
-2856.99
-2813.44
-2751.11
-2717.15
-2719
-2770.02
-2844.02
-2863.27
-2824.85
-2775.74
-2743.5
-2731.8
-2736.62
-2752.67
-2771.34
-2784.71
-2790.04
-2791
-2791.77
-2794.07
-2797.98
-2798.89
-2786.32
-2750.96
-2705.7
-2681.45
-2683.9
-2736.38
-2791.13
-2756.24
-2697.26
-2687.99
-2713.45
-2758.51
-2745.34
-2698.97
-2690.22
-2714.68
-2771.97
-2573.18
-2597.78
-2659.88
-2731.1
-2780.69
-2802.48
-2796.93
-2775.56
-2759.14
-2757.36
-2774.03
-2802.4
-2813.17
-2800.31
-2778.83
-2760.98
-2750.53
-2747.3
-2750.65
-2758.53
-2767.62
-2775.17
-2780.7
-2784.12
-2784.38
-2781.38
-2774.58
-2762.36
-2743.6
-2723.19
-2711.11
-2711.39
-2731.95
-2752
-2739.18
-2715.92
-2711.05
-2720.65
-2736.11
-2731.45
-2715.13
-2712.45
-2723.57
-2744.87
-2645.76
-2657.19
-2685.06
-2719.47
-2749.24
-2771.01
-2781.95
-2782.41
-2778.28
-2775.36
-2776.85
-2782.58
-2785.23
-2782.09
-2775.31
-2767.49
-2760.24
-2754.57
-2751.99
-2753.58
-2758.72
-2765.36
-2771.24
-2774.45
-2773.33
-2767.81
-2759.36
-2749.89
-2740.57
-2732.13
-2726.25
-2724.71
-2729.44
-2734.26
-2730.64
-2723.42
-2721.43
-2723.78
-2727.57
-2726.45
-2722.75
-2722.91
-2727
-2732.84
-2692.15
-2695.65
-2706.46
-2721.31
-2738.28
-2755.81
-2770.93
-2780.27
-2783.38
-2781.19
-2777.09
-2774.03
-2772.31
-2771.47
-2770.51
-2768.26
-2764.07
-2758.9
-2754.58
-2753.2
-2755.32
-2759.49
-2763.45
-2765.15
-2763.21
-2757.73
-2750.5
-2743.95
-2739.36
-2736.02
-2733
-2730.36
-2728.79
-2728.13
-2726.94
-2725.39
-2724.82
-2724.83
-2725.19
-2725.33
-2725.79
-2726.82
-2727.83
-2728.47
-2720.1
-2719.53
-2722.19
-2727.5
-2736.91
-2749.8
-2763.29
-2773.93
-2779.18
-2778.82
-2774.94
-2770.53
-2767.57
-2766.73
-2767.14
-2767.1
-2765.16
-2761.32
-2757.28
-2754.94
-2754.93
-2756.42
-2757.82
-2757.77
-2755.44
-2750.98
-2745.72
-2741.48
-2739.06
-2737.54
-2735.6
-2732.78
-2729.74
-2727.33
-2726.12
-2725.63
-2725.41
-2725
-2724.78
-2725.32
-2726.49
-2727.44
-2727.47
-2727
-2735.52
-2733.6
-2733.08
-2734.52
-2739.34
-2747.61
-2757.76
-2766.54
-2771.92
-2773.22
-2771.42
-2768.41
-2765.96
-2765.05
-2765.43
-2765.82
-2764.91
-2762.46
-2759.42
-2757.03
-2755.74
-2755.12
-2754.41
-2752.99
-2750.51
-2747.09
-2743.49
-2740.79
-2739.33
-2738.41
-2736.86
-2734.28
-2731.27
-2728.63
-2726.96
-2726.08
-2725.57
-2725.17
-2725.01
-2725.41
-2726.21
-2726.73
-2726.64
-2726.25
-2742.96
-2741.23
-2740.09
-2740.25
-2742.72
-2747.56
-2753.88
-2760.21
-2764.84
-2767.09
-2767.14
-2765.92
-2764.63
-2764.12
-2764.39
-2764.68
-2764.15
-2762.62
-2760.55
-2758.49
-2756.6
-2754.74
-2752.77
-2750.59
-2748.1
-2745.4
-2742.89
-2741.04
-2739.93
-2739.05
-2737.69
-2735.56
-2732.97
-2730.46
-2728.52
-2727.21
-2726.36
-2725.82
-2725.59
-2725.64
-2725.87
-2726.04
-2725.98
-2725.83
-2745.88
-2744.86
-2744.12
-2744.09
-2745.36
-2748.03
-2751.73
-2755.75
-2759.29
-2761.65
-2762.64
-2762.74
-2762.59
-2762.69
-2763.01
-2763.17
-2762.85
-2761.98
-2760.65
-2758.94
-2756.88
-2754.56
-2752.17
-2749.78
-2747.41
-2745.17
-2743.28
-2741.87
-2740.87
-2739.94
-2738.65
-2736.84
-2734.66
-2732.45
-2730.51
-2729
-2727.88
-2727.12
-2726.65
-2726.36
-2726.19
-2726.11
-2726.08
-2726.06
-2746.62
-2746.22
-2745.97
-2746.06
-2746.77
-2748.25
-2750.42
-2752.96
-2755.36
-2757.23
-2758.47
-2759.28
-2759.91
-2760.48
-2760.9
-2761.08
-2761
-2760.63
-2759.78
-2758.33
-2756.36
-2754.13
-2751.89
-2749.7
-2747.59
-2745.71
-2744.19
-2743
-2741.99
-2740.97
-2739.73
-2738.14
-2736.29
-2734.39
-2732.65
-2731.19
-2730.01
-2729.08
-2728.4
-2727.9
-2727.53
-2727.31
-2727.22
-2727.21
-2746.38
-2746.29
-2746.33
-2746.53
-2747.03
-2747.96
-2749.32
-2750.94
-2752.55
-2753.91
-2755.03
-2756.04
-2756.98
-2757.76
-2758.28
-2758.59
-2758.77
-2758.7
-2758.12
-2756.88
-2755.16
-2753.33
-2751.56
-2749.8
-2748.06
-2746.5
-2745.24
-2744.19
-2743.16
-2742.07
-2740.87
-2739.5
-2737.97
-2736.39
-2734.92
-2733.65
-2732.56
-2731.63
-2730.88
-2730.3
-2729.87
-2729.58
-2729.43
-2729.36
-2745.6
-2745.61
-2745.74
-2746
-2746.46
-2747.17
-2748.12
-2749.21
-2750.28
-2751.26
-2752.2
-2753.18
-2754.16
-2754.98
-2755.57
-2755.99
-2756.32
-2756.4
-2755.97
-2754.96
-2753.62
-2752.28
-2751.03
-2749.78
-2748.46
-2747.21
-2746.16
-2745.24
-2744.27
-2743.21
-2742.08
-2740.92
-2739.7
-2738.46
-2737.27
-2736.22
-2735.31
-2734.52
-2733.85
-2733.32
-2732.91
-2732.64
-2732.48
-2732.41
-2744.54
-2744.57
-2744.73
-2745.02
-2745.48
-2746.1
-2746.84
-2747.63
-2748.39
-2749.12
-2749.89
-2750.75
-2751.63
-2752.41
-2753.03
-2753.51
-2753.86
-2753.97
-2753.67
-2752.96
-2752.02
-2751.1
-2750.29
-2749.47
-2748.56
-2747.63
-2746.78
-2746
-2745.18
-2744.27
-2743.31
-2742.35
-2741.4
-2740.46
-2739.57
-2738.76
-2738.06
-2737.47
-2736.98
-2736.58
-2736.29
-2736.1
-2736
-2735.96
-2743.66
-2743.73
-2743.92
-2744.23
-2744.67
-2745.22
-2745.84
-2746.46
-2747.07
-2747.66
-2748.3
-2749.01
-2749.75
-2750.45
-2751.04
-2751.49
-2751.81
-2751.91
-2751.72
-2751.23
-2750.58
-2749.94
-2749.38
-2748.83
-2748.23
-2747.57
-2746.93
-2746.3
-2745.65
-2744.94
-2744.19
-2743.44
-2742.72
-2742.04
-2741.41
-2740.85
-2740.39
-2740.01
-2739.72
-2739.5
-2739.35
-2739.26
-2739.22
-2739.2
-2743.32
-2743.42
-2743.64
-2743.96
-2744.38
-2744.87
-2745.41
-2745.96
-2746.48
-2746.99
-2747.52
-2748.1
-2748.71
-2749.29
-2749.79
-2750.19
-2750.46
-2750.55
-2750.42
-2750.06
-2749.56
-2749.04
-2748.57
-2748.13
-2747.67
-2747.16
-2746.64
-2746.12
-2745.59
-2745.04
-2744.46
-2743.9
-2743.38
-2742.91
-2742.51
-2742.18
-2741.92
-2741.74
-2741.61
-2741.53
-2741.48
-2741.45
-2741.43
-2741.42
-2743.42
-2743.53
-2743.75
-2744.07
-2744.46
-2744.92
-2745.43
-2745.94
-2746.43
-2746.88
-2747.33
-2747.78
-2748.25
-2748.7
-2749.1
-2749.42
-2749.64
-2749.74
-2749.66
-2749.4
-2748.99
-2748.53
-2748.07
-2747.63
-2747.17
-2746.7
-2746.2
-2745.7
-2745.22
-2744.74
-2744.29
-2743.87
-2743.5
-2743.21
-2742.99
-2742.84
-2742.75
-2742.71
-2742.71
-2742.72
-2742.73
-2742.72
-2742.71
-2742.69
-2743.82
-2743.92
-2744.11
-2744.39
-2744.75
-2745.18
-2745.66
-2746.14
-2746.61
-2747.03
-2747.4
-2747.75
-2748.09
-2748.4
-2748.69
-2748.92
-2749.11
-2749.21
-2749.19
-2749.03
-2748.72
-2748.31
-2747.85
-2747.37
-2746.86
-2746.34
-2745.79
-2745.26
-2744.77
-2744.32
-2743.93
-2743.61
-2743.36
-2743.19
-2743.1
-2743.08
-2743.1
-2743.16
-2743.23
-2743.3
-2743.35
-2743.36
-2743.35
-2743.33
-2744.44
-2744.5
-2744.65
-2744.87
-2745.17
-2745.53
-2745.95
-2746.39
-2746.83
-2747.21
-2747.53
-2747.79
-2748.02
-2748.22
-2748.4
-2748.56
-2748.7
-2748.81
-2748.85
-2748.78
-2748.57
-2748.23
-2747.79
-2747.29
-2746.73
-2746.14
-2745.54
-2744.95
-2744.43
-2743.97
-2743.61
-2743.33
-2743.15
-2743.06
-2743.04
-2743.08
-2743.17
-2743.27
-2743.38
-2743.48
-2743.54
-2743.57
-2743.55
-2743.53
-2745.22
-2745.25
-2745.34
-2745.48
-2745.68
-2745.94
-2746.26
-2746.62
-2746.99
-2747.32
-2747.59
-2747.8
-2747.96
-2748.08
-2748.18
-2748.28
-2748.38
-2748.49
-2748.56
-2748.56
-2748.44
-2748.18
-2747.79
-2747.29
-2746.71
-2746.08
-2745.43
-2744.81
-2744.24
-2743.77
-2743.4
-2743.14
-2742.97
-2742.9
-2742.91
-2742.97
-2743.06
-2743.18
-2743.29
-2743.39
-2743.46
-2743.47
-2743.45
-2743.4
-2746.09
-2746.1
-2746.14
-2746.2
-2746.3
-2746.44
-2746.63
-2746.86
-2747.11
-2747.35
-2747.57
-2747.74
-2747.87
-2747.96
-2748.02
-2748.08
-2748.15
-2748.24
-2748.33
-2748.38
-2748.33
-2748.15
-2747.81
-2747.34
-2746.76
-2746.11
-2745.43
-2744.76
-2744.16
-2743.66
-2743.26
-2742.98
-2742.81
-2742.72
-2742.71
-2742.76
-2742.84
-2742.93
-2743.03
-2743.12
-2743.18
-2743.18
-2743.15
-2743.09
-2746.98
-2746.99
-2747.01
-2747.04
-2747.07
-2747.1
-2747.13
-2747.18
-2747.26
-2747.38
-2747.51
-2747.64
-2747.75
-2747.83
-2747.89
-2747.94
-2748
-2748.08
-2748.19
-2748.28
-2748.29
-2748.16
-2747.87
-2747.42
-2746.84
-2746.16
-2745.44
-2744.73
-2744.09
-2743.54
-2743.11
-2742.79
-2742.59
-2742.48
-2742.43
-2742.44
-2742.49
-2742.56
-2742.63
-2742.7
-2742.75
-2742.76
-2742.73
-2742.69
-2747.81
-2747.86
-2747.93
-2747.98
-2747.98
-2747.91
-2747.79
-2747.65
-2747.53
-2747.48
-2747.49
-2747.54
-2747.61
-2747.68
-2747.74
-2747.8
-2747.88
-2748
-2748.15
-2748.29
-2748.36
-2748.28
-2748.01
-2747.56
-2746.94
-2746.2
-2745.42
-2744.65
-2743.95
-2743.35
-2742.88
-2742.53
-2742.29
-2742.14
-2742.06
-2742.03
-2742.04
-2742.07
-2742.11
-2742.16
-2742.21
-2742.23
-2742.23
-2742.21
-2748.57
-2748.72
-2748.89
-2749
-2749.01
-2748.87
-2748.61
-2748.28
-2747.97
-2747.71
-2747.56
-2747.49
-2747.49
-2747.52
-2747.58
-2747.66
-2747.79
-2747.98
-2748.2
-2748.41
-2748.53
-2748.49
-2748.23
-2747.74
-2747.05
-2746.23
-2745.36
-2744.5
-2743.73
-2743.08
-2742.56
-2742.18
-2741.9
-2741.72
-2741.6
-2741.52
-2741.48
-2741.46
-2741.47
-2741.49
-2741.52
-2741.57
-2741.61
-2741.63
-2749.33
-2749.62
-2749.92
-2750.12
-2750.14
-2749.96
-2749.58
-2749.07
-2748.55
-2748.09
-2747.75
-2747.54
-2747.42
-2747.39
-2747.42
-2747.52
-2747.7
-2747.98
-2748.29
-2748.6
-2748.79
-2748.77
-2748.5
-2747.94
-2747.16
-2746.23
-2745.25
-2744.3
-2743.45
-2742.75
-2742.19
-2741.78
-2741.47
-2741.25
-2741.09
-2740.95
-2740.85
-2740.76
-2740.7
-2740.66
-2740.67
-2740.73
-2740.81
-2740.88
-2750.13
-2750.62
-2751.07
-2751.33
-2751.36
-2751.12
-2750.63
-2749.95
-2749.24
-2748.57
-2748.04
-2747.66
-2747.43
-2747.32
-2747.29
-2747.41
-2747.63
-2748
-2748.41
-2748.81
-2749.07
-2749.08
-2748.78
-2748.14
-2747.26
-2746.21
-2745.11
-2744.07
-2743.15
-2742.4
-2741.82
-2741.38
-2741.04
-2740.78
-2740.56
-2740.36
-2740.16
-2739.98
-2739.81
-2739.69
-2739.64
-2739.68
-2739.81
-2739.92
-2751.08
-2751.8
-2752.39
-2752.65
-2752.63
-2752.31
-2751.71
-2750.86
-2749.96
-2749.08
-2748.39
-2747.86
-2747.51
-2747.31
-2747.22
-2747.34
-2747.58
-2748.03
-2748.53
-2749.03
-2749.35
-2749.37
-2749.04
-2748.32
-2747.33
-2746.16
-2744.95
-2743.82
-2742.85
-2742.06
-2741.46
-2741
-2740.65
-2740.35
-2740.07
-2739.77
-2739.47
-2739.15
-2738.84
-2738.57
-2738.42
-2738.39
-2738.54
-2738.7
-2752.27
-2753.23
-2753.93
-2754.08
-2753.95
-2753.48
-2752.75
-2751.71
-2750.65
-2749.58
-2748.75
-2748.09
-2747.64
-2747.38
-2747.21
-2747.31
-2747.55
-2748.07
-2748.65
-2749.22
-2749.6
-2749.62
-2749.26
-2748.46
-2747.38
-2746.09
-2744.79
-2743.59
-2742.57
-2741.76
-2741.15
-2740.68
-2740.3
-2739.96
-2739.62
-2739.23
-2738.8
-2738.32
-2737.82
-2737.36
-2737.02
-2736.85
-2736.98
-2737.13
-2753.85
-2754.97
-2755.69
-2755.58
-2755.25
-2754.59
-2753.71
-2752.47
-2751.26
-2750.01
-2749.07
-2748.33
-2747.79
-2747.49
-2747.23
-2747.34
-2747.55
-2748.12
-2748.75
-2749.39
-2749.82
-2749.83
-2749.46
-2748.57
-2747.41
-2746.02
-2744.64
-2743.38
-2742.32
-2741.5
-2740.88
-2740.41
-2740.02
-2739.64
-2739.23
-2738.75
-2738.19
-2737.53
-2736.83
-2736.12
-2735.53
-2735.08
-2735.11
-2735.12
-2755.98
-2757
-2757.63
-2757.08
-2756.48
-2755.58
-2754.54
-2753.1
-2751.75
-2750.36
-2749.34
-2748.54
-2747.94
-2747.61
-2747.28
-2747.38
-2747.56
-2748.17
-2748.84
-2749.53
-2750
-2750.01
-2749.61
-2748.66
-2747.42
-2745.96
-2744.5
-2743.2
-2742.12
-2741.29
-2740.67
-2740.2
-2739.79
-2739.38
-2738.92
-2738.35
-2737.66
-2736.84
-2735.92
-2734.94
-2734.04
-2733.16
-2732.97
-2732.5
-2758.85
-2759.22
-2759.61
-2758.47
-2757.57
-2756.42
-2755.22
-2753.6
-2752.14
-2750.61
-2749.54
-2748.71
-2748.07
-2747.74
-2747.34
-2747.44
-2747.57
-2748.22
-2748.91
-2749.63
-2750.15
-2750.14
-2749.74
-2748.72
-2747.43
-2745.9
-2744.39
-2743.06
-2741.95
-2741.13
-2740.51
-2740.04
-2739.63
-2739.19
-2738.69
-2738.04
-2737.24
-2736.26
-2735.15
-2733.88
-2732.65
-2731.22
-2730.66
-2729.14
-2762.58
-2761.48
-2761.46
-2759.67
-2758.46
-2757.07
-2755.74
-2753.96
-2752.41
-2750.79
-2749.68
-2748.84
-2748.17
-2747.84
-2747.39
-2747.48
-2747.58
-2748.25
-2748.96
-2749.72
-2750.26
-2750.25
-2749.84
-2748.77
-2747.43
-2745.85
-2744.3
-2742.94
-2741.83
-2741
-2740.39
-2739.92
-2739.51
-2739.05
-2738.52
-2737.81
-2736.93
-2735.82
-2734.54
-2733.02
-2731.47
-2729.44
-2728.35
-2724.95
-2767.14
-2763.55
-2762.98
-2760.58
-2759.11
-2757.53
-2756.1
-2754.21
-2752.59
-2750.91
-2749.77
-2748.92
-2748.24
-2747.92
-2747.42
-2747.52
-2747.59
-2748.27
-2749
-2749.77
-2750.34
-2750.32
-2749.91
-2748.81
-2747.43
-2745.81
-2744.23
-2742.86
-2741.74
-2740.92
-2740.31
-2739.84
-2739.43
-2738.96
-2738.41
-2737.65
-2736.72
-2735.52
-2734.11
-2732.39
-2730.57
-2727.98
-2726.28
-2720.02
-2772.22
-2765.19
-2764.04
-2761.18
-2759.53
-2757.82
-2756.33
-2754.35
-2752.7
-2750.97
-2749.82
-2748.97
-2748.28
-2747.97
-2747.44
-2747.54
-2747.6
-2748.29
-2749.03
-2749.81
-2750.39
-2750.37
-2749.95
-2748.83
-2747.43
-2745.79
-2744.19
-2742.81
-2741.68
-2740.86
-2740.26
-2739.8
-2739.38
-2738.91
-2738.34
-2737.56
-2736.59
-2735.33
-2733.84
-2732
-2729.99
-2726.97
-2724.65
-2714.7
-2777.1
-2766.21
-2764.59
-2761.48
-2759.73
-2757.96
-2756.43
-2754.42
-2752.75
-2751
-2749.85
-2749
-2748.3
-2747.99
-2747.46
-2747.55
-2747.6
-2748.3
-2749.04
-2749.82
-2750.41
-2750.38
-2749.96
-2748.83
-2747.43
-2745.78
-2744.17
-2742.78
-2741.66
-2740.84
-2740.24
-2739.78
-2739.36
-2738.88
-2738.31
-2737.52
-2736.53
-2735.24
-2733.71
-2731.8
-2729.69
-2726.43
-2723.63
-2709.71
-2781.04
-2766.65
-2764.77
-2761.59
-2759.8
-2758
-2756.46
-2754.44
-2752.76
-2751.02
-2749.86
-2749.01
-2748.31
-2748
-2747.46
-2747.56
-2747.61
-2748.3
-2749.04
-2749.83
-2750.42
-2750.39
-2749.97
-2748.83
-2747.43
-2745.77
-2744.16
-2742.78
-2741.65
-2740.83
-2740.23
-2739.77
-2739.36
-2738.88
-2738.3
-2737.51
-2736.51
-2735.22
-2733.67
-2731.74
-2729.6
-2726.25
-2723.19
-2705.75
)
;

boundaryField
{
    movingWall
    {
        type            zeroGradient;
    }
    fixedWalls
    {
        type            zeroGradient;
    }
    frontAndBack
    {
        type            empty;
    }
    defaultFaces
    {
        type            empty;
    }
}


// ************************************************************************* //
