/*--------------------------------*- C++ -*----------------------------------*\
  =========                 |
  \\      /  F ield         | OpenFOAM: The Open Source CFD Toolbox
   \\    /   O peration     | Website:  https://openfoam.org
    \\  /    A nd           | Version:  7
     \\/     M anipulation  |
\*---------------------------------------------------------------------------*/
FoamFile
{
    version     2.0;
    format      ascii;
    class       surfaceScalarField;
    location    "0.03";
    object      phi;
}
// * * * * * * * * * * * * * * * * * * * * * * * * * * * * * * * * * * * * * //

dimensions      [0 3 -1 0 0 0 0];

internalField   nonuniform List<scalar> 
3784
(
-0.00179035
0.00179034
-0.00237789
0.000587548
-0.00172132
-0.000656575
-0.00053895
-0.00118237
0.00046909
-0.00100804
0.00092335
-0.00045426
0.000670547
0.000252802
-0.000347966
0.00101851
-0.00175991
0.00141195
-0.00226947
0.000509557
-0.00135329
-0.000916184
-0.000218344
-0.00113494
0.000180656
-0.000399
-6.91767e-05
0.000249833
-0.0006552
0.000586022
-0.00117729
0.000522093
-0.00132454
0.000147244
-0.00113114
-0.000193392
-0.000743047
-0.000388098
-0.000322988
-0.000420059
1.06754e-05
-0.000333663
0.0001929
-0.000182224
0.000200311
-7.4124e-06
5.04541e-05
0.000149858
-0.000174718
0.000225172
-0.00029449
0.000119771
-4.55884e-05
-0.000248902
0.000662416
-0.000708004
0.00135804
-0.000695619
0.00125047
0.000107564
0.000240797
0.00100967
-0.000730326
0.000971122
-0.000577387
-0.000152939
0.000462256
-0.00103964
0.00110793
-0.000645671
0.000409809
0.000698119
-0.000765431
0.00117524
-0.000824791
5.9359e-05
0.000217531
-0.00104232
0.00101684
-0.000799312
0.000522604
0.000494239
-0.000674246
0.00119685
-0.000941256
0.000267011
-0.000941257
-0.00170651
0.00349686
-0.00271918
0.00160021
-0.00198992
-0.00138583
-0.000544103
-0.00262818
0.000597671
-0.00214981
0.00115531
-0.0010119
0.000695925
0.000712186
-0.000480954
0.00219539
-0.00181517
0.00274617
-0.00254823
0.00124262
-0.00155193
-0.00191249
1.8601e-05
-0.00270547
0.000331219
-0.000711618
-0.000172811
0.000753863
-0.000793414
0.00120663
-0.0013015
0.00103018
-0.0014559
0.00030164
-0.00125766
-0.000391631
-0.000831986
-0.000813772
-0.000362116
-0.000889929
7.02034e-06
-0.0007028
0.000202995
-0.000378197
0.00020956
-1.39785e-05
5.69843e-05
0.000302434
-0.000166163
0.000448319
-0.000311885
0.000265493
-0.000110474
-0.000450314
0.000719959
-0.00153844
0.0015815
-0.00155716
0.00133862
0.000350439
0.000356344
0.00199195
-0.000758717
0.00208618
-0.000910253
-1.40312e-06
0.000624469
-0.00257437
0.00127922
-0.00130042
0.00038799
0.00158935
-0.000782637
0.00234587
-0.00111072
0.000387443
0.000322534
-0.00247558
0.00123922
-0.001716
0.000521009
0.00121245
-0.000653634
0.00237149
-0.00122858
0.000841953
-0.00216983
-0.00207235
0.00556921
-0.00326058
0.00278844
-0.00246574
-0.00218067
-0.000767015
-0.00432691
0.000653816
-0.00357065
0.00139172
-0.00174981
0.00100739
0.00109653
-0.000218535
0.00342131
-0.00175854
0.00428617
-0.00280114
0.00228522
-0.00192406
-0.00278957
-9.90245e-05
-0.00453051
0.000543666
-0.00135431
0.000124875
0.00117265
-0.000571828
0.00190333
-0.00122088
0.00167923
-0.00151311
0.000593876
-0.00136868
-0.000536067
-0.000926102
-0.00125635
-0.000410817
-0.00140521
-1.529e-07
-0.00111346
0.000215063
-0.000593413
0.0002126
-1.15155e-05
2.63081e-05
0.000488726
-0.000238945
0.000713572
-0.000391133
0.000417682
-9.62279e-05
-0.00074522
0.000885486
-0.00252015
0.00177529
-0.00244696
0.00138754
0.000738193
0.000178884
0.00320061
-0.00104111
0.00330617
-0.0010422
-3.06664e-07
0.000727701
-0.00434427
0.00148179
-0.00205452
0.000454909
0.00261623
-0.00091195
0.00371273
-0.00124705
0.000722542
0.000348298
-0.00407092
0.0013891
-0.00275681
0.000575423
0.00202613
-0.000790718
0.00373763
-0.0013859
0.00143713
-0.00355573
-0.00163253
0.00720174
-0.00269387
0.00384978
-0.0022191
-0.00265543
-0.000891142
-0.00565487
0.00033254
-0.00479433
0.000983594
-0.00240086
0.000741516
0.0013386
-0.000101551
0.00426438
-0.00115888
0.00534349
-0.00205243
0.00317877
-0.00167423
-0.00316777
-0.000358335
-0.0058464
0.000278194
-0.00199084
0.000110964
0.00133988
-0.000327727
0.00234202
-0.000839456
0.00219096
-0.00117233
0.000926753
-0.00115188
-0.000556522
-0.000853071
-0.00155516
-0.000453675
-0.00180461
-0.000115948
-0.00145119
7.07979e-05
-0.000780157
8.55254e-05
-2.62438e-05
-3.35188e-05
0.00060777
-0.000183386
0.000863438
-0.0002072
0.000441497
0.000104258
-0.00105668
0.000822914
-0.00323881
0.00133924
-0.00296329
0.000900786
0.00117665
4.80954e-05
0.0040533
-0.000695698
0.00404997
-0.000664769
-3.12361e-05
0.000482955
-0.00549199
0.000926565
-0.00249813
0.000274922
0.00326788
-0.000501912
0.00448956
-0.000765019
0.000985648
0.000220755
-0.0050567
0.000837993
-0.00337404
0.000297816
0.00256631
-0.000463536
0.00449899
-0.000857556
0.00183115
-0.00441329
-0.00106067
0.00826241
-0.00195549
0.0047446
-0.0018265
-0.00278442
-0.00100059
-0.00648078
-8.72778e-05
-0.00570764
0.000474357
-0.0029625
0.000457455
0.0013555
2.88301e-05
0.004693
-0.000494228
0.00586655
-0.00114052
0.00382506
-0.00129367
-0.00301461
-0.00058424
-0.00655583
2.93007e-05
-0.00260438
0.000143954
0.00122523
-1.53687e-05
0.00250134
-0.000346609
0.0025222
-0.000688313
0.00126846
-0.000809416
-0.00043542
-0.000699159
-0.00166541
-0.000466663
-0.00203711
-0.000239389
-0.00167847
-9.93889e-05
-0.000920156
-6.95296e-05
-5.6104e-05
-0.000106959
0.000645199
-0.000126009
0.000882487
-1.18084e-05
0.000327298
0.000283758
-0.00135225
0.000669587
-0.00362463
0.000773008
-0.00306671
0.000362281
0.00158737
-9.26092e-05
0.00450819
-0.000334799
0.00429216
-0.000296655
-6.93799e-05
0.000225372
-0.00601402
0.000355968
-0.00262872
0.000117414
0.00350643
-0.000121936
0.00472891
-0.000272377
0.00113609
8.98005e-05
-0.00541887
0.000266261
-0.0035505
4.67757e-05
0.0027858
-0.000153406
0.00469917
-0.00031189
0.00198964
-0.00472518
-0.000387764
0.00865018
-0.00100744
0.00536427
-0.00125629
-0.00253557
-0.00103768
-0.0066994
-0.000552689
-0.00619263
-0.000123601
-0.00339159
4.83041e-05
0.0011836
3.91021e-05
0.0047022
0.000108723
0.00579693
-0.000196585
0.00413037
-0.00078581
-0.00242539
-0.000743595
-0.00659805
-0.000232405
-0.00311557
8.77431e-05
0.000905085
0.000223261
0.00236582
0.000132559
0.00261291
-0.000130415
0.00153143
-0.000365218
-0.000200618
-0.000459152
-0.00157148
-0.000427959
-0.0020683
-0.000342663
-0.00176377
-0.000267058
-0.000995759
-0.000220218
-0.000102945
-0.000173481
0.000598462
-5.90002e-05
0.000768005
0.00015383
0.000114468
0.000385438
-0.00158386
0.000397746
-0.00363694
0.000106719
-0.00277568
-0.000173028
0.00186712
-0.00016483
0.00449999
1.60952e-06
0.00412572
3.10773e-05
-9.88471e-05
-2.99515e-05
-0.00595299
-0.000155253
-0.00250342
-2.69729e-05
0.00337815
0.000220908
0.00448103
0.00018424
0.00117276
-3.74826e-05
-0.00519715
-0.000242049
-0.00334594
-0.000169164
0.00271291
0.000124144
0.00440586
0.000183879
0.0019299
-0.0045413
0.00034196
0.00830822
0.000110502
0.00559573
-0.000493259
-0.00193181
-0.000929522
-0.00626313
-0.000981773
-0.00614038
-0.000788459
-0.0035849
-0.000452268
0.000847409
-3.00041e-05
0.00427994
0.000530872
0.00523605
0.000639745
0.00402149
-0.000187001
-0.00159864
-0.000785626
-0.00599942
-0.000503324
-0.00339787
-6.195e-06
0.000407957
0.000304167
0.00205546
0.000486551
0.00243052
0.000390516
0.00162747
0.000118039
7.18568e-05
-0.000151263
-0.00130218
-0.000323302
-0.00189626
-0.000393899
-0.00169317
-0.000393293
-0.000996365
-0.000334721
-0.000161518
-0.000204658
0.000468399
8.68663e-06
0.000554659
0.000263565
-0.000140409
0.000364282
-0.00168457
1.44238e-05
-0.00328708
-0.000577937
-0.00218332
-0.000620719
0.0019099
-0.000162018
0.00404129
0.000312839
0.00365086
0.000330229
-0.000116236
-0.000252984
-0.00536978
-0.00056902
-0.00218738
-0.00014667
0.0029558
0.000480443
0.00385392
0.000556026
0.00109717
-0.000140128
-0.004501
-0.00062635
-0.00285972
-0.000325008
0.00241157
0.000338399
0.00374245
0.000561401
0.0017069
-0.0039799
0.00100067
0.00730755
0.00126395
0.00533246
0.000410821
-0.00107868
-0.000621907
-0.0052304
-0.00124576
-0.00551653
-0.0013783
-0.00345236
-0.000913615
0.000382724
-0.000171681
0.00353801
0.00074525
0.00431912
0.00124941
0.00351734
0.000443751
-0.000792986
-0.000673185
-0.00488249
-0.000727898
-0.00334316
-0.000184461
-0.000135478
0.000289956
0.00158104
0.000669113
0.00205137
0.000767268
0.00152931
0.000546812
0.000292311
0.000177878
-0.000933244
-0.000157424
-0.00156095
-0.00037129
-0.00147931
-0.000447487
-0.000920168
-0.000387036
-0.00022197
-0.000199767
0.000281131
6.41895e-05
0.0002907
0.00028746
-0.000363679
0.000211982
-0.0016091
-0.000413058
-0.00266204
-0.00110687
-0.0014895
-0.000900814
0.00170384
-0.000124404
0.00326488
0.000521865
0.00300459
0.000560763
-0.000155134
-0.000395609
-0.0044134
-0.000802638
-0.00178035
-0.000226113
0.00237928
0.000630925
0.00299688
0.000807118
0.000920981
-0.00020229
-0.00349159
-0.000856945
-0.00220506
-0.000400134
0.00195476
0.000474213
0.0028681
0.000818071
0.00136304
-0.00316183
0.00143559
0.00587195
0.00216195
0.00460611
0.00128099
-0.000197716
-0.000145817
-0.00380359
-0.00123919
-0.00442316
-0.00169661
-0.00299493
-0.00125696
-5.69358e-05
-0.00025689
0.00253794
0.000791094
0.00327114
0.00154421
0.00276422
0.000992513
-0.000241291
-0.000383197
-0.00350678
-0.000813035
-0.00291332
-0.0003834
-0.000565112
0.0001776
0.00102004
0.000679715
0.00154925
0.000946405
0.00126262
0.000835881
0.000402837
0.000462317
-0.000559681
4.10704e-05
-0.00113971
-0.00027286
-0.00116538
-0.000412721
-0.000780306
-0.000363688
-0.000271004
-0.00016049
7.79315e-05
9.38483e-05
3.63597e-05
0.00022725
-0.00049708
-6.33709e-06
-0.00137551
-0.00074918
-0.0019192
-0.00136169
-0.000876993
-0.00097742
0.00131957
-9.64394e-05
0.0023839
0.000673967
0.00223418
0.000706255
-0.000187422
-0.000450437
-0.00325671
-0.000902222
-0.00132857
-0.000241102
0.00171815
0.000654913
0.00210086
0.000907161
0.000668733
-0.000212291
-0.00237214
-0.00091743
-0.00149992
-0.000373772
0.0014111
0.000500652
0.00199368
0.000923138
0.000940557
-0.00223869
0.00154662
0.00432533
0.00253796
0.00361477
0.00188252
0.000457722
0.000421967
-0.00234304
-0.000913313
-0.00308788
-0.00160948
-0.00229876
-0.00130592
-0.000360495
-0.000290608
0.00152262
0.000766194
0.00221433
0.00160702
0.0019234
0.00132475
4.09771e-05
2.35863e-05
-0.00220562
-0.000675694
-0.00221404
-0.000476809
-0.000763997
5.94931e-05
0.000483735
0.000597203
0.00101154
0.00094941
0.000910419
0.000952572
0.000399674
0.000651248
-0.000258358
0.000231804
-0.000720264
-0.000118474
-0.000815098
-0.000295078
-0.000603702
-0.000270275
-0.000295808
-9.46296e-05
-9.77142e-05
0.000101279
-0.000159551
0.000131239
-0.00052704
-0.000202505
-0.00104177
-0.00089319
-0.00122852
-0.00131787
-0.000452316
-0.000877862
0.000879563
-5.49985e-05
0.00156104
0.000719657
0.00145953
0.000724562
-0.000192326
-0.000438895
-0.00209325
-0.000880398
-0.000887063
-0.000237763
0.00107552
0.000548474
0.00131463
0.000811351
0.000405856
-0.000186862
-0.00137392
-0.000812678
-0.000874108
-0.000286008
0.000884432
0.000457826
0.00124985
0.000855512
0.000542871
-0.00138318
0.00133834
0.002987
0.00241099
0.00254212
0.00214925
0.000719462
0.000926307
-0.00112009
-0.000345105
-0.00181647
-0.00111295
-0.00153091
-0.00100373
-0.000469723
-0.000196334
0.00071523
0.000733699
0.0012843
0.00150833
0.00114877
0.00143378
0.000115528
0.000445332
-0.00121717
-0.000323235
-0.00144548
-0.000369736
-0.000717498
1.89707e-05
9.50283e-05
0.000494712
0.000535799
0.000837339
0.000567794
0.000920616
0.000316396
0.000725157
-6.28998e-05
0.000379963
-0.000375067
5.88091e-05
-0.000493943
-0.000120768
-0.000424126
-0.000127626
-0.000288952
-9.18928e-06
-0.00021615
0.000101088
-0.00026983
4.71203e-05
-0.000473073
-0.000292108
-0.000702538
-0.000821863
-0.000698762
-0.00106238
-0.000211794
-0.000689516
0.000506695
-3.38721e-05
0.000905395
0.000612099
0.000813559
0.000572944
-0.000153171
-0.000381633
-0.00113867
-0.000752465
-0.000516231
-0.00023206
0.000555118
0.00037134
0.000711227
0.000570109
0.000207087
-0.00014572
-0.000658094
-0.00060208
-0.000417746
-0.000193957
0.000476307
0.000368157
0.000687734
0.000655815
0.000255215
-0.000727363
0.00105587
0.00193113
0.0019471
0.00165089
0.00196632
0.000700238
0.00119213
-0.000345904
0.00025053
-0.000874866
-0.000410035
-0.000870346
-0.000461991
-0.000417767
4.04402e-05
0.000212797
0.000747041
0.000577699
0.00135875
0.000537057
0.00139699
7.72874e-05
0.000759369
-0.000579547
0.000104953
-0.000791063
-9.27688e-05
-0.000519778
9.87682e-05
-9.65094e-05
0.000431923
0.000202644
0.000707116
0.000292602
0.000808525
0.000214989
0.000707011
3.86147e-05
0.000472551
-0.000140605
0.00022632
-0.000247712
7.11485e-05
-0.000268956
3.71034e-05
-0.000254908
7.97937e-05
-0.00025884
0.000108263
-0.0002983
8.674e-06
-0.000373485
-0.000267109
-0.000426755
-0.000610241
-0.000355629
-0.000728306
-9.37295e-05
-0.000479866
0.000258254
-3.25098e-05
0.00045804
0.000401246
0.000379803
0.000331466
-8.339e-05
-0.000298559
-0.000508645
-0.0005567
-0.000258089
-0.000219622
0.000218041
0.000174342
0.000317263
0.000294316
8.71118e-05
-0.000112353
-0.000251425
-0.000377189
-0.000152909
-0.000120408
0.000219528
0.00024979
0.000317535
0.000410912
9.40918e-05
-0.00031645
0.000755236
0.00117589
0.00138429
0.00102183
0.00155357
0.000530958
0.00119253
1.5135e-05
0.00063419
-0.000316525
0.00018386
-0.000420013
6.66e-05
-0.000300507
0.000321012
-4.16161e-05
0.000764255
0.000134457
0.00114266
0.000158658
0.00121729
2.65317e-06
0.000882939
-0.000245197
0.000447579
-0.000355707
0.000216428
-0.000288629
0.000245987
-0.000126067
0.000420346
2.82847e-05
0.00059583
0.00011712
0.000683248
0.000127574
0.000646725
7.51386e-05
0.000514171
-8.05058e-06
0.00035671
-9.02507e-05
0.000239633
-0.000151878
0.000184215
-0.00019949
0.000163364
-0.000237989
0.000126209
-0.000261146
1.63422e-05
-0.000263618
-0.000173717
-0.000236695
-0.000367405
-0.000161941
-0.00042585
-3.52864e-05
-0.000281392
0.000113796
-2.40081e-05
0.000200657
0.000201941
0.000153854
0.000136879
-1.83271e-05
-0.000200662
-0.000171102
-0.000353768
-0.000104983
-0.000192325
5.65976e-05
2.25499e-05
0.000102389
8.35188e-05
2.61428e-05
-9.60927e-05
-7.18143e-05
-0.00021169
-3.73114e-05
-7.57615e-05
8.36014e-05
0.000132461
0.000109312
0.000204169
2.2382e-05
-0.000112281
0.000508875
0.000667015
0.000926427
0.000604279
0.00109888
0.0003585
0.000980964
0.000133057
0.000721364
-5.69254e-05
0.000475786
-0.000174437
0.000381318
-0.000206038
0.000495582
-0.000155877
0.000713774
-8.37338e-05
0.000911914
-3.94814e-05
0.00096141
-4.6844e-05
0.000810399
-9.41901e-05
0.000580093
-0.000125405
0.000413088
-0.000121625
0.000367891
-8.08677e-05
0.000418531
-2.23536e-05
0.000506913
2.8739e-05
0.000565461
6.90273e-05
0.000566351
7.42502e-05
0.000511831
4.64703e-05
0.00042917
-7.58792e-06
0.000351262
-7.39702e-05
0.000286584
-0.000134813
0.000226006
-0.00017741
0.00015255
-0.000187691
5.34533e-05
-0.000164521
-6.45967e-05
-0.000118646
-0.000163995
-6.25433e-05
-0.000193408
-5.87439e-06
-0.000124623
4.50104e-05
5.96668e-07
7.5437e-05
9.00227e-05
6.44288e-05
5.37107e-05
1.79842e-05
-9.23872e-05
-2.50034e-05
-0.000174508
-2.28606e-05
-0.000126173
8.26134e-06
-4.29143e-05
1.91294e-05
-1.96507e-05
2.87783e-06
-8.09974e-05
-1.04669e-05
-0.000115835
-2.47515e-06
-5.02267e-05
1.79923e-05
4.33622e-05
1.57252e-05
7.48959e-05
-9.15161e-06
-3.73877e-05
0.000325561
0.000341452
0.000594197
0.000335641
0.000720072
0.000232623
0.000720358
0.000132774
0.000628423
3.50102e-05
0.000504748
-5.07652e-05
0.000441309
-0.000142599
0.000462394
-0.000176959
0.000539681
-0.000161019
0.000617316
-0.000117121
0.000643709
-7.32416e-05
0.000596421
-4.69045e-05
0.000509654
-3.86377e-05
0.000428285
-4.02566e-05
0.000384942
-3.75236e-05
0.000386243
-2.36529e-05
0.000412227
2.75638e-06
0.000448383
3.28728e-05
0.000468985
5.36494e-05
0.000462702
5.27552e-05
0.00043216
2.29553e-05
0.0003867
-2.8509e-05
0.000327157
-7.52694e-05
0.000255819
-0.000106072
0.000177658
-0.000109528
9.98224e-05
-8.66859e-05
3.02417e-05
-4.90654e-05
-1.81355e-05
-1.41669e-05
-3.31969e-05
9.18642e-06
-7.86874e-06
1.96809e-05
3.88274e-05
2.87397e-05
6.57401e-05
3.75164e-05
4.95317e-05
3.41925e-05
-1.25631e-06
2.57846e-05
-4.00654e-05
1.5949e-05
-4.18115e-05
1.00074e-05
-2.76473e-05
4.96404e-06
-2.78188e-05
3.04546e-06
-4.3398e-05
5.11167e-06
-4.74163e-05
1.54516e-06
-2.33148e-05
-6.10925e-06
7.79907e-06
-1.53897e-05
1.96277e-05
-2.09796e-05
-1.77609e-05
0.000190873
0.000150578
0.000357359
0.000169159
0.000447754
0.000142228
0.000475384
0.000105142
0.00045777
5.26245e-05
0.000422434
-1.54288e-05
0.000359696
-7.98612e-05
0.000322953
-0.000140215
0.000313801
-0.000151869
0.000324173
-0.000127496
0.000338226
-8.72978e-05
0.000341944
-5.06229e-05
0.000330703
-2.7397e-05
0.000310404
-1.99581e-05
0.000294452
-2.1571e-05
0.00029178
-2.09797e-05
0.000304965
-1.04275e-05
0.000327517
1.03226e-05
0.000351171
2.99964e-05
0.00036801
3.59173e-05
0.000369062
2.19047e-05
0.000347247
-6.69317e-06
0.000305145
-3.31657e-05
0.000247917
-4.88435e-05
0.000187212
-4.88232e-05
0.000134017
-3.34901e-05
9.56964e-05
-1.07452e-05
7.37186e-05
7.8098e-06
6.70603e-05
1.58438e-05
6.95806e-05
1.71593e-05
7.77045e-05
2.06139e-05
8.66816e-05
2.85396e-05
8.41107e-05
3.67644e-05
7.15301e-05
3.83659e-05
5.56034e-05
3.18739e-05
4.22444e-05
2.33648e-05
3.07604e-05
1.64481e-05
2.06517e-05
1.31534e-05
1.42913e-05
1.14702e-05
1.18524e-05
3.98496e-06
1.35683e-05
-7.82299e-06
1.41291e-05
-1.59532e-05
8.71932e-06
-1.55725e-05
-9.0413e-06
9.56739e-05
5.49017e-05
0.000189639
7.5197e-05
0.000254132
7.77348e-05
0.000290744
6.85279e-05
0.000301669
4.16978e-05
0.000286692
-4.49904e-07
0.000255107
-4.82748e-05
0.000197597
-8.27072e-05
0.000154113
-0.000108388
0.000132334
-0.00010572
0.000131886
-8.68508e-05
0.000142313
-6.10493e-05
0.000154023
-3.91088e-05
0.000161446
-2.73827e-05
0.00016609
-2.62141e-05
0.000172603
-2.74913e-05
0.000184342
-2.21656e-05
0.000203153
-8.48906e-06
0.000227309
5.84166e-06
0.000251298
1.1929e-05
0.000265471
7.73248e-06
0.000260809
-2.02937e-06
0.000238977
-1.13329e-05
0.00020569
-1.55553e-05
0.000170091
-1.32236e-05
0.000140543
-3.94164e-06
0.000121367
8.43005e-06
0.000111823
1.7353e-05
0.000108038
1.96283e-05
0.000106447
1.87495e-05
0.00010658
2.04802e-05
0.00010905
2.60698e-05
0.000112537
3.32774e-05
0.0001141
3.68049e-05
0.000108837
3.71354e-05
9.87958e-05
3.34037e-05
8.65112e-05
2.87312e-05
7.53384e-05
2.43291e-05
6.73391e-05
1.94709e-05
5.8472e-05
1.28492e-05
4.53366e-05
5.31212e-06
2.86773e-05
7.06012e-07
1.21453e-05
9.57558e-07
3.10362e-06
3.90872e-05
1.58149e-05
8.55311e-05
2.87528e-05
0.000128229
3.50379e-05
0.000162605
3.41517e-05
0.000182479
2.18245e-05
0.000182367
-3.36653e-07
0.000161327
-2.7236e-05
0.000130204
-5.1587e-05
9.06788e-05
-6.88652e-05
5.79981e-05
-7.3039e-05
4.25125e-05
-7.13649e-05
4.11552e-05
-5.9694e-05
4.80669e-05
-4.60236e-05
5.85611e-05
-3.78776e-05
6.83634e-05
-3.60145e-05
7.66734e-05
-3.58006e-05
8.57208e-05
-3.12145e-05
9.94937e-05
-2.22629e-05
0.000119199
-1.38626e-05
0.000140641
-9.51096e-06
0.000156662
-8.28856e-06
0.000161738
-7.1038e-06
0.000155391
-4.9846e-06
0.000141522
-1.68566e-06
0.000125465
2.83429e-06
0.000112324
9.19945e-06
0.000104795
1.59592e-05
0.000102273
1.98746e-05
0.00010204
1.98607e-05
0.000102522
1.82676e-05
0.000104032
1.89717e-05
0.000107044
2.30583e-05
0.000111496
2.88252e-05
0.000114391
3.39105e-05
0.000114561
3.69643e-05
0.000110416
3.75504e-05
0.000102926
3.62184e-05
9.38513e-05
3.34031e-05
8.35178e-05
2.9808e-05
7.00573e-05
2.63097e-05
5.22566e-05
2.31107e-05
3.23087e-05
2.0654e-05
1.37114e-05
1.95556e-05
1.68147e-05
1.46485e-05
1.16751e-06
3.6941e-05
6.4611e-06
6.272e-05
9.26013e-06
8.78063e-05
9.06767e-06
0.000105719
3.91302e-06
0.000111493
-6.1108e-06
0.000104202
-1.99462e-05
8.6912e-05
-3.42975e-05
6.40395e-05
-4.59923e-05
4.34399e-05
-5.24399e-05
2.50107e-05
-5.29379e-05
1.34969e-05
-4.8183e-05
1.17513e-05
-4.42787e-05
1.50757e-05
-4.12007e-05
1.89716e-05
-3.99104e-05
2.10909e-05
-3.79226e-05
2.39776e-05
-3.41028e-05
3.0963e-05
-2.92464e-05
4.23221e-05
-2.52193e-05
5.50949e-05
-2.2284e-05
6.53641e-05
-1.85582e-05
7.0932e-05
-1.26697e-05
7.13561e-05
-5.40641e-06
6.84438e-05
1.22696e-06
6.43297e-05
6.94895e-06
6.15943e-05
1.19359e-05
6.16148e-05
1.59388e-05
6.35006e-05
1.79894e-05
6.57991e-05
1.75628e-05
6.75987e-05
1.64676e-05
6.94353e-05
1.71363e-05
7.17185e-05
2.07764e-05
7.44602e-05
2.60842e-05
7.71276e-05
3.12436e-05
7.89304e-05
3.51586e-05
7.88957e-05
3.75872e-05
7.6288e-05
3.88277e-05
7.08535e-05
3.88344e-05
6.28024e-05
3.78589e-05
5.23659e-05
3.67487e-05
3.96666e-05
3.58107e-05
2.55531e-05
3.47666e-05
1.14422e-05
3.36653e-05
2.82558e-05
7.19656e-06
-6.02828e-06
1.90418e-05
-5.38151e-06
3.31012e-05
-4.79699e-06
4.72442e-05
-5.07323e-06
5.78293e-05
-6.6719e-06
6.29853e-05
-1.12672e-05
6.10893e-05
-1.80497e-05
5.28217e-05
-2.60286e-05
4.01005e-05
-3.32709e-05
2.54327e-05
-3.77743e-05
1.1811e-05
-3.9319e-05
2.39803e-06
-3.87709e-05
-4.47354e-06
-3.7406e-05
-8.40459e-06
-3.72696e-05
-1.19313e-05
-3.6386e-05
-1.51478e-05
-3.4708e-05
-1.63809e-05
-3.2868e-05
-1.43043e-05
-3.132e-05
-1.00741e-05
-2.94492e-05
-6.27339e-06
-2.60859e-05
-4.04826e-06
-2.07822e-05
-2.59355e-06
-1.41218e-05
-9.5542e-07
-7.04376e-06
5.26108e-07
-2.54241e-07
2.02249e-06
5.45457e-06
4.47374e-06
9.48532e-06
8.36724e-06
1.20445e-05
1.2523e-05
1.38349e-05
1.54544e-05
1.4633e-05
1.6855e-05
1.50672e-05
1.77109e-05
1.62815e-05
1.91652e-05
1.93214e-05
2.13953e-05
2.38544e-05
2.40952e-05
2.85468e-05
2.69727e-05
3.22787e-05
2.9582e-05
3.49758e-05
3.12736e-05
3.71387e-05
3.12467e-05
3.8862e-05
2.91939e-05
3.99097e-05
2.55052e-05
4.04365e-05
2.05408e-05
4.07753e-05
1.43134e-05
4.09929e-05
6.93076e-06
4.10458e-05
3.5185e-05
2.75443e-06
-8.78139e-06
6.87881e-06
-9.50322e-06
1.15612e-05
-9.47754e-06
1.62592e-05
-9.77037e-06
2.02122e-05
-1.06247e-05
2.1503e-05
-1.25572e-05
1.93847e-05
-1.59302e-05
1.34283e-05
-2.00717e-05
4.13419e-06
-2.39782e-05
-6.78624e-06
-2.68561e-05
-1.75558e-05
-2.85501e-05
-2.66299e-05
-2.96956e-05
-3.36945e-05
-3.03406e-05
-4.18204e-05
-2.91452e-05
-4.80853e-05
-3.01231e-05
-5.30998e-05
-2.96925e-05
-5.64357e-05
-2.95286e-05
-5.85921e-05
-2.91621e-05
-6.05988e-05
-2.7444e-05
-6.28208e-05
-2.3864e-05
-6.45743e-05
-1.90256e-05
-6.47687e-05
-1.39255e-05
-6.29678e-05
-8.84561e-06
-5.95634e-05
-3.65813e-06
-5.53858e-05
1.27964e-06
-5.08834e-05
4.98294e-06
-4.60982e-05
7.25838e-06
-4.10039e-05
8.74195e-06
-3.70172e-05
1.06467e-05
-3.46267e-05
1.26764e-05
-3.30772e-05
1.47348e-05
-3.09845e-05
1.72283e-05
-2.76283e-05
2.04951e-05
-2.32818e-05
2.42025e-05
-1.85986e-05
2.75972e-05
-1.39208e-05
3.02956e-05
-9.3548e-06
3.25718e-05
-5.23058e-06
3.47391e-05
-2.05128e-06
3.67303e-05
-1.38798e-08
3.83973e-05
1.02245e-06
3.97368e-05
1.2236e-06
4.07898e-05
7.49941e-07
4.15176e-05
3.59344e-05
-1.84401e-06
-6.93601e-06
-4.04455e-06
-7.30138e-06
-6.41605e-06
-7.1052e-06
-9.04472e-06
-7.14161e-06
-1.18833e-05
-7.78577e-06
-1.53481e-05
-9.09149e-06
-2.02873e-05
-1.09905e-05
-2.72295e-05
-1.31302e-05
-3.60913e-05
-1.51174e-05
-4.61309e-05
-1.68168e-05
-5.62269e-05
-1.84535e-05
-6.58698e-05
-2.0052e-05
-7.48376e-05
-2.13728e-05
-8.21201e-05
-2.18629e-05
-9.03298e-05
-2.19127e-05
-9.72174e-05
-2.28032e-05
-0.000103475
-2.32694e-05
-0.000109357
-2.32808e-05
-0.000114742
-2.20587e-05
-0.000119147
-1.94575e-05
-0.000121909
-1.62618e-05
-0.000122563
-1.32724e-05
-0.000120925
-1.04838e-05
-0.000117216
-7.36511e-06
-0.000112049
-3.88709e-06
-0.000106408
-6.59381e-07
-0.00010066
1.51003e-06
-9.52578e-05
3.34219e-06
-8.99576e-05
5.34605e-06
-8.49954e-05
7.71153e-06
-8.03731e-05
1.01147e-05
-7.56211e-05
1.24784e-05
-7.01189e-05
1.499e-05
-6.37081e-05
1.77902e-05
-5.67964e-05
2.06871e-05
-4.98919e-05
2.33912e-05
-4.31429e-05
2.58212e-05
-3.64851e-05
2.80805e-05
-2.99608e-05
3.02059e-05
-2.36629e-05
3.20986e-05
-1.75598e-05
3.36322e-05
-1.14951e-05
3.47234e-05
-5.35453e-06
3.53756e-05
3.05799e-05
-4.39045e-06
-2.54471e-06
-9.30742e-06
-2.38448e-06
-1.42962e-05
-2.11626e-06
-1.93273e-05
-2.11059e-06
-2.46002e-05
-2.51243e-06
-3.03742e-05
-3.31719e-06
-3.69903e-05
-4.37487e-06
-4.45769e-05
-5.54418e-06
-5.30026e-05
-6.69115e-06
-6.1944e-05
-7.87376e-06
-7.11323e-05
-9.26395e-06
-8.02998e-05
-1.08849e-05
-8.91656e-05
-1.25076e-05
-9.72677e-05
-1.37597e-05
-0.000105085
-1.40932e-05
-0.00011257
-1.53176e-05
-0.000119977
-1.58632e-05
-0.000127262
-1.59969e-05
-0.000133971
-1.53482e-05
-0.000139481
-1.3945e-05
-0.000143411
-1.23323e-05
-0.000145668
-1.10171e-05
-0.000146201
-9.95114e-06
-0.000144888
-8.67581e-06
-0.000141807
-6.96779e-06
-0.000137327
-5.14233e-06
-0.000132217
-3.60159e-06
-0.000126597
-2.27444e-06
-0.000120479
-7.72238e-07
-0.000113938
1.16769e-06
-0.000107082
3.25848e-06
-0.000100056
5.45444e-06
-9.28192e-05
7.75283e-06
-8.52663e-05
1.02352e-05
-7.74544e-05
1.28749e-05
-6.9564e-05
1.55011e-05
-6.17004e-05
1.79569e-05
-5.37661e-05
2.01451e-05
-4.55978e-05
2.20369e-05
-3.70752e-05
2.35756e-05
-2.81162e-05
2.46729e-05
-1.86525e-05
2.52594e-05
-8.70376e-06
2.54265e-05
2.18762e-05
-4.13724e-06
1.59268e-06
-8.57437e-06
2.05163e-06
-1.2767e-05
2.07619e-06
-1.68542e-05
1.97641e-06
-2.10109e-05
1.64493e-06
-2.54397e-05
1.11197e-06
-3.04027e-05
5.87881e-07
-3.6073e-05
1.25786e-07
-4.23443e-05
-4.18729e-07
-4.90353e-05
-1.18066e-06
-5.59537e-05
-2.34439e-06
-6.28894e-05
-3.94997e-06
-6.96085e-05
-5.78971e-06
-7.58379e-05
-7.52978e-06
-8.10201e-05
-8.90924e-06
-8.64953e-05
-9.84225e-06
-9.19394e-05
-1.0421e-05
-9.74682e-05
-1.04695e-05
-0.000102961
-9.85457e-06
-0.000108168
-8.73607e-06
-0.000112875
-7.62592e-06
-0.000116874
-7.0206e-06
-0.000119875
-6.95071e-06
-0.000121506
-7.04261e-06
-0.000121529
-6.94494e-06
-0.000120014
-6.6593e-06
-0.000117256
-6.36071e-06
-0.000113494
-6.03563e-06
-0.000108842
-5.42304e-06
-0.000103384
-4.29198e-06
-9.74612e-05
-2.66578e-06
-9.14491e-05
-5.56567e-07
-8.51179e-05
1.42198e-06
-7.85863e-05
3.70268e-06
-7.1836e-05
6.12417e-06
-6.48677e-05
8.53303e-06
-5.76708e-05
1.07602e-05
-5.02077e-05
1.26819e-05
-4.24049e-05
1.42338e-05
-3.42205e-05
1.53912e-05
-2.56654e-05
1.6118e-05
-1.68173e-05
1.64117e-05
-7.77662e-06
1.63861e-05
1.41e-05
-3.61172e-06
5.20411e-06
-7.35412e-06
5.7929e-06
-1.07144e-05
5.43672e-06
-1.37853e-05
5.04737e-06
-1.67752e-05
4.63594e-06
-1.9847e-05
4.18477e-06
-2.30268e-05
3.76769e-06
-2.63362e-05
3.43471e-06
-2.98287e-05
3.07432e-06
-3.34235e-05
2.41562e-06
-3.71286e-05
1.36136e-06
-4.0929e-05
-1.50878e-07
-4.46708e-05
-2.04977e-06
-4.80749e-05
-4.12602e-06
-5.09061e-05
-6.07708e-06
-5.36092e-05
-7.13937e-06
-5.62898e-05
-7.74223e-06
-5.91705e-05
-7.59038e-06
-6.23499e-05
-6.67444e-06
-6.58336e-05
-5.2508e-06
-6.95606e-05
-3.89923e-06
-7.3402e-05
-3.18123e-06
-7.70681e-05
-3.28548e-06
-8.01345e-05
-3.97493e-06
-8.22347e-05
-4.84426e-06
-8.32289e-05
-5.66696e-06
-8.31967e-05
-6.39434e-06
-8.22761e-05
-6.95552e-06
-8.05539e-05
-7.14444e-06
-7.80786e-05
-6.76815e-06
-7.49755e-05
-5.76975e-06
-7.12589e-05
-4.27265e-06
-6.73961e-05
-2.43993e-06
-6.31763e-05
-5.16828e-07
-5.8373e-05
1.32083e-06
-5.3055e-05
3.21545e-06
-4.72308e-05
4.93638e-06
-4.09387e-05
6.39011e-06
-3.42407e-05
7.53593e-06
-2.72253e-05
8.37609e-06
-2.00434e-05
8.93659e-06
-1.28934e-05
9.26251e-06
-5.9032e-06
9.39684e-06
8.19777e-06
-3.53446e-06
8.73842e-06
-7.34899e-06
9.6068e-06
-1.08133e-05
8.90171e-06
-1.37302e-05
7.96457e-06
-1.6014e-05
6.92089e-06
-1.77364e-05
5.90796e-06
-1.9044e-05
5.07478e-06
-2.00349e-05
4.42426e-06
-2.08549e-05
3.89383e-06
-2.17104e-05
3.27163e-06
-2.25862e-05
2.23716e-06
-2.35647e-05
8.2607e-07
-2.47262e-05
-8.90437e-07
-2.58916e-05
-2.96136e-06
-2.71421e-05
-4.82592e-06
-2.80838e-05
-6.19751e-06
-2.89352e-05
-6.89223e-06
-2.97883e-05
-6.73859e-06
-3.07433e-05
-5.71904e-06
-3.19128e-05
-4.07986e-06
-3.34683e-05
-2.34352e-06
-3.55046e-05
-1.1465e-06
-3.79571e-05
-8.33918e-07
-4.0626e-05
-1.30536e-06
-4.32267e-05
-2.24321e-06
-4.55481e-05
-3.34678e-06
-4.75377e-05
-4.40614e-06
-4.918e-05
-5.3132e-06
-5.04182e-05
-5.90563e-06
-5.11634e-05
-6.0232e-06
-5.13229e-05
-5.61071e-06
-5.08442e-05
-4.75117e-06
-4.96566e-05
-3.62686e-06
-4.78169e-05
-2.35619e-06
-4.53203e-05
-1.17573e-06
-4.20535e-05
-5.13532e-08
-3.80657e-05
9.48812e-07
-3.34475e-05
1.77226e-06
-2.83249e-05
2.41381e-06
-2.28358e-05
2.88774e-06
-1.71096e-05
3.21144e-06
-1.12383e-05
3.39249e-06
-5.26957e-06
3.42963e-06
2.92922e-06
-3.7876e-06
1.25265e-05
-7.94529e-06
1.37643e-05
-1.17339e-05
1.26907e-05
-1.4896e-05
1.11266e-05
-1.72561e-05
9.2814e-06
-1.87673e-05
7.41895e-06
-1.94057e-05
5.71157e-06
-1.92092e-05
4.22568e-06
-1.83652e-05
3.04884e-06
-1.71438e-05
2.05035e-06
-1.60497e-05
1.14293e-06
-1.53241e-05
9.92775e-08
-1.49995e-05
-1.21663e-06
-1.52438e-05
-2.71763e-06
-1.60324e-05
-4.03663e-06
-1.68812e-05
-5.34811e-06
-1.7558e-05
-6.216e-06
-1.79457e-05
-6.35183e-06
-1.7998e-05
-5.66647e-06
-1.78304e-05
-4.24623e-06
-1.76993e-05
-2.47417e-06
-1.79495e-05
-8.97402e-07
-1.88223e-05
3.78176e-08
-2.02666e-05
1.39019e-07
-2.2225e-05
-2.84633e-07
-2.45457e-05
-1.02687e-06
-2.70859e-05
-1.86714e-06
-2.97525e-05
-2.64691e-06
-3.23467e-05
-3.31106e-06
-3.46681e-05
-3.7017e-06
-3.65234e-05
-3.75568e-06
-3.77365e-05
-3.53811e-06
-3.82014e-05
-3.16174e-06
-3.78144e-05
-2.74301e-06
-3.6601e-05
-2.38925e-06
-3.4599e-05
-2.05353e-06
-3.18446e-05
-1.80548e-06
-2.84203e-05
-1.65153e-06
-2.44502e-05
-1.55544e-06
-2.00577e-05
-1.50361e-06
-1.53326e-05
-1.5122e-06
-1.02865e-05
-1.65191e-06
-4.92363e-06
-1.93163e-06
-1.99386e-06
-3.37088e-06
1.58981e-05
-7.12876e-06
1.75218e-05
-1.08077e-05
1.6369e-05
-1.43475e-05
1.46655e-05
-1.75894e-05
1.25227e-05
-2.02083e-05
1.00368e-05
-2.18089e-05
7.31023e-06
-2.21973e-05
4.61224e-06
-2.15203e-05
2.37106e-06
-1.99494e-05
4.79648e-07
-1.81228e-05
-6.83377e-07
-1.66108e-05
-1.41316e-06
-1.58111e-05
-2.01714e-06
-1.58678e-05
-2.66122e-06
-1.65579e-05
-3.34582e-06
-1.7672e-05
-4.23325e-06
-1.8896e-05
-4.99215e-06
-1.99051e-05
-5.3433e-06
-2.05067e-05
-5.06473e-06
-2.06821e-05
-4.06982e-06
-2.06039e-05
-2.5517e-06
-2.05562e-05
-9.45641e-07