/*--------------------------------*- C++ -*----------------------------------*\
  =========                 |
  \\      /  F ield         | OpenFOAM: The Open Source CFD Toolbox
   \\    /   O peration     | Website:  https://openfoam.org
    \\  /    A nd           | Version:  7
     \\/     M anipulation  |
\*---------------------------------------------------------------------------*/
FoamFile
{
    version     2.0;
    format      ascii;
    class       volVectorField;
    location    "1";
    object      U;
}
// * * * * * * * * * * * * * * * * * * * * * * * * * * * * * * * * * * * * * //

dimensions      [0 1 -1 0 0 0 0];

internalField   nonuniform List<vector> 
900
(
(2.65756e-05 -2.58124e-05 0)
(-0.00015931 9.20044e-05 0)
(-0.000668533 0.000176275 0)
(-0.0013024 0.000209974 0)
(-0.00197678 0.000215226 0)
(-0.00264654 0.00020787 0)
(-0.00328504 0.000195518 0)
(-0.00388129 0.000180857 0)
(-0.00442715 0.000164469 0)
(-0.00491648 0.000146322 0)
(-0.00534346 0.000126351 0)
(-0.00570235 0.000104653 0)
(-0.00598812 8.13247e-05 0)
(-0.00619627 5.64903e-05 0)
(-0.00632288 3.03551e-05 0)
(-0.00636479 3.16389e-06 0)
(-0.00631968 -2.48203e-05 0)
(-0.00618622 -5.32446e-05 0)
(-0.00596421 -8.17136e-05 0)
(-0.00565457 -0.000109847 0)
(-0.00525943 -0.000137229 0)
(-0.00478264 -0.000163358 0)
(-0.00422912 -0.000187856 0)
(-0.00360528 -0.000210211 0)
(-0.00292135 -0.000229122 0)
(-0.00219204 -0.000240951 0)
(-0.00145095 -0.000236944 0)
(-0.000751323 -0.000200268 0)
(-0.000187599 -0.000108038 0)
(2.4244e-05 2.18526e-05 0)
(-9.02201e-05 0.000158243 0)
(-0.000699648 0.000695534 0)
(-0.00189382 0.00105001 0)
(-0.00332089 0.00120555 0)
(-0.0048211 0.00123689 0)
(-0.00631391 0.001203 0)
(-0.00774168 0.00113647 0)
(-0.00907701 0.00105141 0)
(-0.0102979 0.000952979 0)
(-0.0113888 0.000842856 0)
(-0.0123362 0.000721957 0)
(-0.0131274 0.000591335 0)
(-0.0137515 0.000451991 0)
(-0.0141992 0.000305025 0)
(-0.014463 0.000151767 0)
(-0.0145366 -6.29179e-06 0)
(-0.0144163 -0.000167489 0)
(-0.0140999 -0.000329924 0)
(-0.0135883 -0.000491463 0)
(-0.0128842 -0.000649898 0)
(-0.0119934 -0.000802812 0)
(-0.0109255 -0.000947411 0)
(-0.00969235 -0.00108081 0)
(-0.00831012 -0.00119889 0)
(-0.00680467 -0.00129342 0)
(-0.0052097 -0.00134637 0)
(-0.00359488 -0.00132073 0)
(-0.00205323 -0.00115394 0)
(-0.000762283 -0.000769193 0)
(-0.000100063 -0.000184359 0)
(-0.000177891 0.00067232 0)
(-0.00108176 0.00189872 0)
(-0.00271736 0.00265749 0)
(-0.00462621 0.00299795 0)
(-0.00661134 0.0030686 0)
(-0.00858019 0.00298797 0)
(-0.0104611 0.00282516 0)
(-0.0122193 0.00261269 0)
(-0.0138247 0.00236426 0)
(-0.0152568 0.00208561 0)
(-0.0164977 0.00178014 0)
(-0.0175307 0.0014509 0)
(-0.018342 0.00110084 0)
(-0.0189201 0.000733049 0)
(-0.0192554 0.000350983 0)
(-0.0193406 -4.15891e-05 0)
(-0.0191712 -0.000440518 0)
(-0.0187453 -0.000841181 0)
(-0.0180641 -0.00123847 0)
(-0.0171319 -0.0016269 0)
(-0.0159566 -0.00200051 0)
(-0.0145512 -0.0023525 0)
(-0.0129316 -0.00267518 0)
(-0.0111193 -0.00295757 0)
(-0.00914878 -0.00317945 0)
(-0.00706211 -0.00330032 0)
(-0.00494487 -0.00324229 0)
(-0.00290318 -0.00287974 0)
(-0.00115504 -0.00206054 0)
(-0.000189338 -0.000736678 0)
(-0.000220645 0.00133276 0)
(-0.00129638 0.00338301 0)
(-0.00320397 0.00459435 0)
(-0.00540159 0.00512899 0)
(-0.00766934 0.00523196 0)
(-0.00991027 0.00508989 0)
(-0.0120472 0.00481082 0)
(-0.0140427 0.00444662 0)
(-0.0158634 0.00402006 0)
(-0.017486 0.0035416 0)
(-0.0188907 0.00301768 0)
(-0.0200588 0.00245381 0)
(-0.0209749 0.00185531 0)
(-0.0216264 0.00122771 0)
(-0.0220028 0.000576949 0)
(-0.0220961 -9.05553e-05 0)
(-0.0219014 -0.00076783 0)
(-0.0214165 -0.00144713 0)
(-0.020643 -0.00211994 0)
(-0.0195855 -0.00277703 0)
(-0.0182526 -0.00340825 0)
(-0.016659 -0.00400223 0)
(-0.0148224 -0.00454562 0)
(-0.012767 -0.00501968 0)
(-0.0105312 -0.00539141 0)
(-0.00816022 -0.0055966 0)
(-0.00574686 -0.00551383 0)
(-0.00340308 -0.00494528 0)
(-0.00137264 -0.00364001 0)
(-0.000231404 -0.00143666 0)
(-0.000240321 0.00207517 0)
(-0.00141824 0.00503621 0)
(-0.00350225 0.00673116 0)
(-0.0058891 0.00746283 0)
(-0.00834131 0.00759038 0)
(-0.010758 0.00737565 0)
(-0.0130591 0.0069673 0)
(-0.0152061 0.00643679 0)
(-0.0171641 0.00581593 0)
(-0.0189086 0.00512007 0)
(-0.0204189 0.00435888 0)
(-0.0216753 0.00354054 0)
(-0.0226616 0.00267292 0)
(-0.0233646 0.00176415 0)
(-0.023773 0.000822747 0)
(-0.0238784 -0.000142118 0)
(-0.0236751 -0.00112053 0)
(-0.0231606 -0.00210152 0)
(-0.0223356 -0.00307305 0)
(-0.0212046 -0.00402189 0)
(-0.0197759 -0.0049334 0)
(-0.0180645 -0.00579123 0)
(-0.0160886 -0.00657595 0)
(-0.0138735 -0.00726049 0)
(-0.0114595 -0.0077987 0)
(-0.00889431 -0.00810185 0)
(-0.00627577 -0.0080026 0)
(-0.00372271 -0.00722309 0)
(-0.00150034 -0.00539563 0)
(-0.000250847 -0.0022191 0)
(-0.000252549 0.00286913 0)
(-0.00150628 0.00681149 0)
(-0.00373006 0.00902073 0)
(-0.00627173 0.00995565 0)
(-0.0088776 0.0101031 0)
(-0.0114414 0.00980684 0)
(-0.0138799 0.00925871 0)
(-0.0161535 0.00855042 0)
(-0.0182266 0.00772295 0)
(-0.0200741 0.00679658 0)
(-0.0216745 0.00578436 0)
(-0.0230078 0.00469719 0)
(-0.0240573 0.00354555 0)
(-0.0248093 0.00234011 0)
(-0.025252 0.00109197 0)
(-0.0253761 -0.00018705 0)
(-0.0251751 -0.00148415 0)
(-0.0246454 -0.00278522 0)
(-0.0237868 -0.00407464 0)
(-0.0226023 -0.00533509 0)
(-0.0210996 -0.00654726 0)
(-0.0192927 -0.00768942 0)
(-0.0171995 -0.00873555 0)
(-0.0148459 -0.00964961 0)
(-0.0122737 -0.0103714 0)
(-0.00953329 -0.0107857 0)
(-0.00672905 -0.0106758 0)
(-0.00398958 -0.00967595 0)
(-0.0016017 -0.00728796 0)
(-0.000264363 -0.00305719 0)
(-0.000265007 0.00370664 0)
(-0.00159361 0.00869558 0)
(-0.00395706 0.0114516 0)
(-0.00665686 0.0125994 0)
(-0.0094224 0.0127644 0)
(-0.0121402 0.012379 0)
(-0.0147232 0.0116812 0)
(-0.01713 0.0107842 0)
(-0.0193243 0.00973849 0)
(-0.0212805 0.00856956 0)
(-0.0229769 0.00729387 0)
(-0.0243931 0.00592507 0)
(-0.0255123 0.00447622 0)
(-0.0263201 0.0029604 0)
(-0.0268044 0.00139108 0)
(-0.0269549 -0.000217447 0)
(-0.0267638 -0.00184978 0)
(-0.0262261 -0.00348879 0)
(-0.0253397 -0.00511542 0)
(-0.0241061 -0.00670823 0)
(-0.0225308 -0.00824307 0)
(-0.0206266 -0.00969244 0)
(-0.0184104 -0.011023 0)
(-0.0159081 -0.0121888 0)
(-0.0131631 -0.0131139 0)
(-0.0102297 -0.0136542 0)
(-0.00722065 -0.0135382 0)
(-0.00427754 -0.0123047 0)
(-0.00171154 -0.00931356 0)
(-0.000279834 -0.00394776 0)
(-0.000280755 0.00459308 0)
(-0.00169597 0.0106982 0)
(-0.00421847 0.0140372 0)
(-0.00709915 0.0154104 0)
(-0.0100484 0.0155919 0)
(-0.0129439 0.0151095 0)
(-0.0156937 0.014251 0)
(-0.0182543 0.0131529 0)
(-0.0205883 0.0118761 0)
(-0.0226698 0.0104513 0)
(-0.024477 0.00889873 0)
(-0.0259895 0.00723469 0)
(-0.0271904 0.00547472 0)
(-0.028065 0.00363411 0)
(-0.0286005 0.00172843 0)
(-0.0287857 -0.000225961 0)
(-0.0286113 -0.00221144 0)
(-0.0280702 -0.00420819 0)
(-0.0271581 -0.00619396 0)
(-0.0258734 -0.00814329 0)
(-0.0242195 -0.010027 0)
(-0.0222065 -0.0118114 0)
(-0.0198495 -0.0134549 0)
(-0.0171743 -0.0149002 0)
(-0.0142257 -0.0160533 0)
(-0.0110635 -0.0167373 0)
(-0.00781038 -0.0166206 0)
(-0.00462468 -0.015137 0)
(-0.0018464 -0.0114935 0)
(-0.000300273 -0.00490145 0)
(-0.000300846 0.00553962 0)
(-0.00182049 0.0128412 0)
(-0.00453164 0.016805 0)
(-0.007626 0.0184181 0)
(-0.0107919 0.0186148 0)
(-0.0138966 0.0180262 0)
(-0.0168422 0.016994 0)
(-0.0195827 0.0156801 0)
(-0.0220799 0.0141567 0)
(-0.0243073 0.0124605 0)
(-0.0262435 0.0106154 0)
(-0.0278684 0.0086406 0)
(-0.0291651 0.00655393 0)
(-0.0301192 0.00437255 0)
(-0.030717 0.00211369 0)
(-0.0309465 -0.00020471 0)
(-0.0307964 -0.0025635 0)
(-0.030257 -0.00494063 0)
(-0.029321 -0.00731107 0)
(-0.0279832 -0.00964561 0)
(-0.0262431 -0.01191 0)
(-0.0241072 -0.0140636 0)
(-0.0215876 -0.0160558 0)
(-0.0187094 -0.0178159 0)
(-0.0155186 -0.0192286 0)
(-0.0120812 -0.0200795 0)
(-0.00853287 -0.0199694 0)
(-0.00505216 -0.0182169 0)
(-0.00201446 -0.0138626 0)
(-0.00032671 -0.00593497 0)
(-0.000325752 0.00655984 0)
(-0.0019712 0.0151526 0)
(-0.00490699 0.0197894 0)
(-0.00825408 0.0216586 0)
(-0.0116749 0.0218684 0)
(-0.0150243 0.0211617 0)
(-0.0181981 0.0199397 0)
(-0.0211471 0.0183919 0)
(-0.0238324 0.0166033 0)
(-0.0262276 0.0146173 0)
(-0.0283118 0.0124617 0)
(-0.0300658 0.0101586 0)
(-0.0314734 0.00772787 0)
(-0.0325203 0.00518818 0)
(-0.0331927 0.00255782 0)
(-0.0334775 -0.000144384 0)
(-0.0333614 -0.00289877 0)
(-0.0328313 -0.00568164 0)
(-0.0318761 -0.00846602 0)
(-0.0304856 -0.0112194 0)
(-0.0286539 -0.0139026 0)
(-0.0263822 -0.0164676 0)
(-0.0236781 -0.018853 0)
(-0.0205642 -0.0209726 0)
(-0.0170874 -0.0226857 0)
(-0.013321 -0.0237344 0)
(-0.00941597 -0.0236419 0)
(-0.00557649 -0.0215991 0)
(-0.00222168 -0.0164642 0)
(-0.000359735 -0.00706808 0)
(-0.000355932 0.00766905 0)
(-0.00215158 0.017665 0)
(-0.00535343 0.0230302 0)
(-0.00899761 0.0251729 0)
(-0.0127158 0.0253914 0)
(-0.016349 0.0245514 0)
(-0.0197852 0.0231194 0)
(-0.0229724 0.0213158 0)
(-0.0258714 0.0192399 0)
(-0.028456 0.0169424 0)
(-0.0307069 0.0144556 0)
(-0.0326064 0.0118046 0)
(-0.0341397 0.00901094 0)
(-0.0352933 0.00609428 0)
(-0.0360535 0.00307301 0)
(-0.0364069 -3.44611e-05 0)
(-0.0363373 -0.00320738 0)
(-0.0358278 -0.00642339 0)
(-0.0348624 -0.00965434 0)
(-0.0334245 -0.0128652 0)
(-0.0315006 -0.0160122 0)
(-0.0290841 -0.0190395 0)
(-0.0261754 -0.0218738 0)
(-0.0227926 -0.0244099 0)
(-0.0189822 -0.0264767 0)
(-0.014825 -0.027764 0)
(-0.0104909 -0.0277062 0)
(-0.00621625 -0.0253494 0)
(-0.00247487 -0.0193499 0)
(-0.00040013 -0.00832345 0)
(-0.000392013 0.00888444 0)
(-0.00236573 0.0204154 0)
(-0.00588099 0.0265725 0)
(-0.00987239 0.0290068 0)
(-0.0139353 0.0292265 0)
(-0.0178941 0.0282333 0)
(-0.0216289 0.0265659 0)
(-0.0250846 0.0244795 0)
(-0.0282221 0.0220897 0)
(-0.0310167 0.0194555 0)
(-0.0334516 0.0166142 0)
(-0.0355118 0.0135938 0)
(-0.0371849 0.0104175 0)
(-0.0384594 0.00710498 0)
(-0.0393225 0.00367372 0)
(-0.0397589 0.000140653 0)
(-0.0397513 -0.00347506 0)
(-0.0392793 -0.00715305 0)
(-0.0383193 -0.0108659 0)
(-0.0368462 -0.0145777 0)
(-0.0348369 -0.0182408 0)
(-0.0322731 -0.0217919 0)
(-0.0291443 -0.0251439 0)
(-0.0254608 -0.028169 0)
(-0.0212655 -0.0306591 0)
(-0.0166473 -0.0322408 0)
(-0.0117985 -0.0322431 0)
(-0.0069961 -0.0295468 0)
(-0.00278331 -0.0225818 0)
(-0.000449071 -0.0097277 0)
(-0.000434901 0.0102257 0)
(-0.00261905 0.0234464 0)
(-0.00650244 0.0304678 0)
(-0.0108982 0.0332116 0)
(-0.0153582 0.0334203 0)
(-0.0196882 0.0322474 0)
(-0.0237592 0.0303128 0)
(-0.0275133 0.0279105 0)
(-0.0309129 0.0251749 0)
(-0.0339361 0.0221747 0)
(-0.03657 0.0189528 0)
(-0.0388037 0.0155403 0)
(-0.0406291 0.0119613 0)
(-0.0420376 0.00823465 0)
(-0.0430183 0.00437587 0)
(-0.0435561 0.000398704 0)
(-0.0436315 -0.00368293 0)
(-0.0432192 -0.00785142 0)
(-0.042288 -0.0120829 0)
(-0.0408021 -0.0163428 0)
(-0.0387246 -0.0205818 0)
(-0.0360214 -0.0247296 0)
(-0.0326656 -0.0286844 0)
(-0.0286535 -0.0322915 0)
(-0.0240202 -0.0352966 0)
(-0.018861 -0.0372489 0)
(-0.0133949 -0.0373504 0)
(-0.00795039 -0.0342884 0)
(-0.00316005 -0.0262363 0)
(-0.000508236 -0.011313 0)
(-0.000485889 0.0117158 0)
(-0.00291887 0.0268076 0)
(-0.00723478 0.0347755 0)
(-0.0121007 0.0378454 0)
(-0.017017 0.0380244 0)
(-0.0217673 0.0366367 0)
(-0.026213 0.0343941 0)
(-0.0302945 0.031635 0)
(-0.0339772 0.0285154 0)
(-0.0372438 0.0251153 0)
(-0.0400875 0.021484 0)
(-0.042504 0.0176554 0)
(-0.0444911 0.0136542 0)
(-0.0460452 0.00949722 0)
(-0.0471589 0.00519612 0)
(-0.0478182 0.000758987 0)
(-0.0480019 -0.00380693 0)
(-0.0476798 -0.00849131 0)
(-0.0468117 -0.013277 0)
(-0.0453485 -0.0181345 0)
(-0.0432354 -0.023016 0)
(-0.0404164 -0.0278462 0)
(-0.0368403 -0.0325082 0)
(-0.0324809 -0.0368162 0)
(-0.0273572 -0.0404586 0)
(-0.0215667 -0.0428873 0)
(-0.0153589 -0.0431478 0)
(-0.00912819 -0.0396963 0)
(-0.00362371 -0.03041 0)
(-0.000579911 -0.0131194 0)
(-0.00054684 0.0133825 0)
(-0.00327542 0.0305586 0)
(-0.00810114 0.0395652 0)
(-0.0135145 0.0429747 0)
(-0.0189537 0.0430953 0)
(-0.0241771 0.0414461 0)
(-0.0290365 0.0388433 0)
(-0.0334719 0.0356766 0)
(-0.037454 0.0321271 0)
(-0.0409731 0.0282878 0)
(-0.0440315 0.0242152 0)
(-0.0466343 0.0199463 0)
(-0.0487879 0.0155051 0)
(-0.0504962 0.0109054 0)
(-0.0517571 0.00615254 0)
(-0.0525597 0.00124641 0)
(-0.0528823 -0.00381582 0)
(-0.0526899 -0.00903529 0)
(-0.0519325 -0.0144064 0)
(-0.0505451 -0.0199102 0)
(-0.0484505 -0.0255055 0)
(-0.0455626 -0.0311167 0)
(-0.0417956 -0.0366132 0)
(-0.0370874 -0.0417743 0)
(-0.0314272 -0.046218 0)
(-0.0249058 -0.0492723 0)
(-0.0178045 -0.0497847 0)
(-0.0106016 -0.0459275 0)
(-0.00420153 -0.0352286 0)
(-0.000667221 -0.0151981 0)
(-0.000620475 0.01526 0)
(-0.00370317 0.0347718 0)
(-0.00913358 0.0449203 0)
(-0.015186 0.0486766 0)
(-0.0212241 0.0486962 0)
(-0.0269773 0.0467225 0)
(-0.032288 0.0436922 0)
(-0.0370988 0.0400544 0)
(-0.0413894 0.0360194 0)
(-0.0451617 0.0316956 0)
(-0.0484309 0.0271471 0)
(-0.0512151 0.0224139 0)
(-0.0535328 0.0175183 0)
(-0.0553986 0.012469 0)
(-0.0568185 0.00726312 0)
(-0.0577872 0.00188881 0)
(-0.0582843 -0.0036709 0)
(-0.0582712 -0.00943375 0)
(-0.0576882 -0.0154121 0)
(-0.0564525 -0.0216049 0)
(-0.0544591 -0.0279863 0)
(-0.0515835 -0.0344881 0)
(-0.0476907 -0.0409719 0)
(-0.0426631 -0.0471802 0)
(-0.0364384 -0.0526463 0)
(-0.0290814 -0.0565397 0)
(-0.0209012 -0.0574508 0)
(-0.0124805 -0.0531906 0)
(-0.00493531 -0.0408621 0)
(-0.000774667 -0.0176165 0)
(-0.000710874 0.017392 0)
(-0.00422303 0.0395383 0)
(-0.0103772 0.0509423 0)
(-0.0171794 0.0550413 0)
(-0.0239028 0.0548966 0)
(-0.030245 0.0525132 0)
(-0.0360413 0.0489683 0)
(-0.0412409 0.04478 0)
(-0.0458383 0.0401926 0)
(-0.049852 0.0353317 0)
(-0.0533153 0.0302701 0)
(-0.0562643 0.0250497 0)
(-0.0587335 0.0196902 0)
(-0.0607521 0.014193 0)
(-0.062338 0.00854401 0)
(-0.0634944 0.0027163 0)
(-0.0642055 -0.00332598 0)
(-0.0644319 -0.00962322 0)
(-0.0641054 -0.0162137 0)
(-0.0631251 -0.0231245 0)
(-0.0613545 -0.0303573 0)
(-0.0586207 -0.0378654 0)
(-0.0547221 -0.0455144 0)
(-0.0494587 -0.0530148 0)
(-0.0426806 -0.0598022 0)
(-0.0343919 -0.0648436 0)
(-0.0249098 -0.0663889 0)
(-0.014941 -0.0617701 0)
(-0.00589356 -0.0475489 0)
(-0.000909601 -0.0204676 0)
(-0.000824378 0.0198363 0)
(-0.00486593 0.044975 0)
(-0.0118965 0.0577574 0)
(-0.0195835 0.0621751 0)
(-0.0270905 0.0617727 0)
(-0.0340816 0.0588642 0)
(-0.0403899 0.0546917 0)
(-0.0459789 0.0498535 0)
(-0.0508649 0.0446328 0)
(-0.055091 0.0391747 0)
(-0.0587148 0.0335602 0)
(-0.0617956 0.0278325 0)
(-0.0643896 0.0220065 0)
(-0.0665447 0.0160742 0)
(-0.068295 0.010007 0)
(-0.0696567 0.00375939 0)
(-0.0706232 -0.0027282 0)
(-0.0711583 -0.00952559 0)
(-0.0711897 -0.016706 0)
(-0.0706012 -0.0243378 0)
(-0.0692235 -0.0324676 0)
(-0.0668276 -0.0410916 0)
(-0.0631261 -0.0501028 0)
(-0.0578006 -0.0591968 0)
(-0.0505599 -0.0677067 0)
(-0.0412828 -0.0743472 0)
(-0.0302444 -0.0769103 0)
(-0.0182788 -0.072066 0)
(-0.00719752 -0.0556403 0)
(-0.00108648 -0.0238879 0)
(-0.000971335 0.0226713 0)
(-0.00567903 0.0512366 0)
(-0.0137859 0.0655243 0)
(-0.0225233 0.0702038 0)
(-0.0309236 0.0694063 0)
(-0.0386199 0.065816 0)
(-0.0454526 0.0608692 0)
(-0.0514109 0.0552572 0)
(-0.0565443 0.0493067 0)
(-0.0609296 0.0431829 0)
(-0.0646568 0.0369744 0)
(-0.0678152 0.0307235 0)
(-0.0704881 0.024438 0)
(-0.072747 0.0180972 0)
(-0.0746472 0.0116556 0)
(-0.076223 0.00504536 0)
(-0.0774828 -0.00182101 0)
(-0.078401 -0.00904954 0)
(-0.0789088 -0.0167577 0)
(-0.0788822 -0.0250701 0)
(-0.0781251 -0.0341012 0)
(-0.0763502 -0.043922 0)
(-0.0731681 -0.0544928 0)
(-0.0680997 -0.0655343 0)
(-0.0606359 -0.0762944 0)
(-0.0504211 -0.085192 0)
(-0.0375746 -0.0894051 0)
(-0.0230091 -0.0846533 0)
(-0.00907777 -0.0656803 0)
(-0.00133889 -0.0280956 0)
(-0.00116962 0.0260091 0)
(-0.00673665 0.0585322 0)
(-0.0161856 0.0744459 0)
(-0.0261763 0.0792755 0)
(-0.0355877 0.0778811 0)
(-0.0440326 0.0733963 0)
(-0.0513767 0.0674863 0)
(-0.0576529 0.0609474 0)
(-0.0629589 0.054153 0)
(-0.0674172 0.0472875 0)
(-0.0711597 0.0404441 0)
(-0.0743131 0.0336608 0)
(-0.0769933 0.0269346 0)
(-0.0793008 0.0202293 0)
(-0.0813167 0.0134794 0)
(-0.0830989 0.00659198 0)
(-0.0846788 -0.000552034 0)
(-0.0860502 -0.0080962 0)
(-0.0871602 -0.0162138 0)
(-0.0878935 -0.0251004 0)
(-0.0880426 -0.0349644 0)
(-0.0872742 -0.0459945 0)
(-0.0850926 -0.0582809 0)
(-0.08082 -0.071647 0)
(-0.0736324 -0.085322 0)
(-0.062768 -0.0974212 0)
(-0.0479646 -0.104328 0)
(-0.0300342 -0.100363 0)
(-0.0119903 -0.0785473 0)
(-0.00175104 -0.0334756 0)
(-0.00145203 0.0300161 0)
(-0.00816013 0.0671519 0)
(-0.0193074 0.0847821 0)
(-0.0307947 0.0895596 0)
(-0.0413312 0.0872736 0)
(-0.0505374 0.0816075 0)
(-0.0583359 0.0744931 0)
(-0.0648291 0.0668413 0)
(-0.0701832 0.0590714 0)
(-0.0745816 0.0513824 0)
(-0.0782086 0.0438665 0)
(-0.0812358 0.0365514 0)
(-0.0838171 0.0294186 0)
(-0.0860858 0.0224126 0)
(-0.0881534 0.0154457 0)
(-0.090107 0.00839906 0)
(-0.0920053 0.00112175 0)
(-0.0938758 -0.00657109 0)
(-0.0957013 -0.0149093 0)
(-0.0973963 -0.0241712 0)
(-0.0987746 -0.034685 0)
(-0.0994921 -0.0468072 0)
(-0.0989729 -0.0608467 0)
(-0.096328 -0.0768607 0)
(-0.0903214 -0.094215 0)
(-0.079549 -0.110816 0)
(-0.0629707 -0.122105 0)
(-0.0408528 -0.120359 0)
(-0.0168237 -0.0956866 0)
(-0.00253057 -0.0407628 0)
(-0.00188219 0.0349533 0)
(-0.010154 0.0775055 0)
(-0.0234735 0.0968618 0)
(-0.0367298 0.101237 0)
(-0.0484705 0.0976316 0)
(-0.0583827 0.0904018 0)
(-0.0664973 0.0817807 0)
(-0.0730239 0.0727957 0)
(-0.0782231 0.0639039 0)
(-0.0823569 0.0553086 0)
(-0.0856732 0.0470906 0)
(-0.0883953 0.0392588 0)
(-0.0907188 0.0317722 0)
(-0.0928121 0.0245515 0)
(-0.0948182 0.0174849 0)
(-0.0968564 0.0104288 0)
(-0.0990216 0.00320392 0)
(-0.101383 -0.00441435 0)
(-0.103976 -0.012703 0)
(-0.106782 -0.0220257 0)
(-0.109683 -0.0328456 0)
(-0.112391 -0.0457346 0)
(-0.114326 -0.0613253 0)
(-0.11444 -0.0801039 0)
(-0.111042 -0.101863 0)
(-0.101829 -0.124607 0)
(-0.0843997 -0.142866 0)
(-0.0576051 -0.146088 0)
(-0.0251709 -0.119406 0)
(-0.00415001 -0.0514001 0)
(-0.00258838 0.0412511 0)
(-0.0130702 0.0901751 0)
(-0.0291644 0.111083 0)
(-0.0444388 0.114464 0)
(-0.0573462 0.108925 0)
(-0.0677558 0.0996305 0)
(-0.0758875 0.0891334 0)
(-0.0821093 0.0785637 0)
(-0.0868087 0.0683965 0)
(-0.0903464 0.0588205 0)
(-0.0930453 0.0498886 0)
(-0.0951848 0.0415773 0)
(-0.0970026 0.0338133 0)
(-0.0987001 0.0264879 0)
(-0.100449 0.0194636 0)
(-0.102398 0.0125746 0)
(-0.10468 0.00562039 0)
(-0.107407 -0.00164708 0)
(-0.110685 -0.00954617 0)
(-0.114593 -0.0184966 0)
(-0.119138 -0.0290927 0)
(-0.124182 -0.0421435 0)
(-0.129278 -0.0587018 0)
(-0.133381 -0.0799214 0)
(-0.134449 -0.106473 0)
(-0.129148 -0.137091 0)
(-0.113073 -0.165875 0)
(-0.0823503 -0.178817 0)
(-0.0394082 -0.153006 0)
(-0.00755346 -0.0681177 0)
(-0.00383346 0.0496519 0)
(-0.0175125 0.105971 0)
(-0.0370467 0.127856 0)
(-0.0543894 0.129265 0)
(-0.068101 0.120924 0)
(-0.0784414 0.108923 0)
(-0.0859422 0.0961164 0)
(-0.0911993 0.083694 0)
(-0.0947685 0.072111 0)
(-0.0971306 0.0615097 0)
(-0.0986921 0.0518894 0)
(-0.0997878 0.0431741 0)
(-0.10069 0.0352442 0)
(-0.101624 0.0279536 0)
(-0.102778 0.0211372 0)
(-0.104318 0.014611 0)
(-0.106402 0.00816454 0)
(-0.109183 0.00154244 0)
(-0.112825 -0.00559027 0)
(-0.117513 -0.0136607 0)
(-0.123428 -0.0233539 0)
(-0.130662 -0.0356861 0)
(-0.139075 -0.0521664 0)
(-0.147912 -0.0748282 0)
(-0.15515 -0.105767 0)
(-0.15668 -0.145447 0)
(-0.145803 -0.188734 0)
(-0.114591 -0.218398 0)
(-0.0618264 -0.200122 0)
(-0.0142748 -0.0955285 0)
(-0.00615139 0.0614863 0)
(-0.0244806 0.125936 0)
(-0.0478502 0.147383 0)
(-0.0666036 0.145219 0)
(-0.0798998 0.132875 0)
(-0.0887548 0.117382 0)
(-0.0941993 0.1018 0)
(-0.0971525 0.0872911 0)
(-0.098386 0.0742235 0)
(-0.0985173 0.0626398 0)
(-0.0980315 0.0524449 0)
(-0.0973013 0.0434805 0)
(-0.0966111 0.0355614 0)
(-0.0961814 0.0284932 0)
(-0.0961904 0.0220797 0)
(-0.0967947 0.0161223 0)
(-0.0981482 0.0104119 0)
(-0.10042 0.00471013 0)
(-0.103784 -0.00128502 0)
(-0.108502 -0.00802257 0)
(-0.11491 -0.0161347 0)
(-0.123344 -0.0267543 0)
(-0.134084 -0.0417699 0)
(-0.146996 -0.0641505 0)
(-0.160754 -0.0978486 0)
(-0.171441 -0.146187 0)
(-0.170829 -0.206794 0)
(-0.146607 -0.261233 0)
(-0.0914595 -0.262239 0)
(-0.0258108 -0.139919 0)
(-0.0105956 0.0792345 0)
(-0.0354825 0.151088 0)
(-0.0616592 0.168957 0)
(-0.0790743 0.160664 0)
(-0.0886193 0.142734 0)
(-0.0926847 0.122909 0)
(-0.0930694 0.104206 0)
(-0.0911188 0.0875858 0)
(-0.0878364 0.0732044 0)
(-0.0839435 0.0609149 0)
(-0.0799465 0.0504656 0)
(-0.0761923 0.041577 0)
(-0.0729142 0.0339754 0)
(-0.0702716 0.0274074 0)
(-0.0683803 0.021643 0)
(-0.0673375 0.0164721 0)
(-0.0672425 0.0116946 0)
(-0.068217 0.00710434 0)
(-0.070443 0.00245628 0)
(-0.074132 -0.00263196 0)
(-0.0796215 -0.00871837 0)
(-0.0874362 -0.0168599 0)
(-0.0982074 -0.0290838 0)
(-0.112587 -0.0490158 0)
(-0.130688 -0.0823926 0)
(-0.150507 -0.136087 0)
(-0.164755 -0.212859 0)
(-0.158597 -0.29763 0)
(-0.118094 -0.333557 0)
(-0.04084 -0.207414 0)
(-0.0190818 0.107247 0)
(-0.0521397 0.180895 0)
(-0.0750132 0.189121 0)
(-0.0829176 0.170944 0)
(-0.0808876 0.145741 0)
(-0.0734888 0.121192 0)
(-0.063443 0.0996718 0)
(-0.0524189 0.0815893 0)
(-0.0414565 0.0666716 0)
(-0.0311665 0.0544577 0)
(-0.0218824 0.0444723 0)
(-0.0137631 0.0362838 0)
(-0.00686313 0.0295211 0)
(-0.00118083 0.023874 0)
(0.00330806 0.0190864 0)
(0.00662797 0.0149447 0)
(0.00878714 0.0112649 0)
(0.00976239 0.00787423 0)
(0.00947619 0.00458433 0)
(0.0077897 0.00115516 0)
(0.004468 -0.00287471 0)
(-0.000939669 -0.00835809 0)
(-0.00920607 -0.0170627 0)
(-0.0215647 -0.032565 0)
(-0.0398078 -0.061373 0)
(-0.0654372 -0.113258 0)
(-0.0960288 -0.197535 0)
(-0.118726 -0.309518 0)
(-0.118176 -0.394476 0)
(-0.0504293 -0.299334 0)
(-0.0334071 0.150544 0)
(-0.0710276 0.206737 0)
(-0.0688654 0.195868 0)
(-0.048682 0.16425 0)
(-0.0212628 0.131974 0)
(0.00717641 0.104546 0)
(0.0339595 0.0825365 0)
(0.0580386 0.0652442 0)
(0.0790796 0.0517616 0)
(0.0971288 0.0412595 0)
(0.112408 0.0330512 0)
(0.125204 0.0265904 0)
(0.135813 0.0214524 0)
(0.144507 0.0173116 0)
(0.151521 0.0139201 0)
(0.157046 0.0110871 0)
(0.161224 0.00866122 0)
(0.164154 0.00651272 0)
(0.165876 0.0045114 0)
(0.166369 0.00249801 0)
(0.16549 0.000186556 0)
(0.162949 -0.00299134 0)
(0.158038 -0.00824971 0)
(0.149317 -0.0182187 0)
(0.13393 -0.0382325 0)
(0.107326 -0.0781594 0)
(0.064087 -0.152291 0)
(0.00882104 -0.272858 0)
(-0.0597253 -0.409295 0)
(-0.0349572 -0.393547 0)
(-0.0363089 0.239702 0)
(-0.0421557 0.209581 0)
(0.0356441 0.156787 0)
(0.105481 0.116797 0)
(0.16769 0.0861691 0)
(0.219918 0.0634501 0)
(0.262497 0.0470715 0)
(0.296851 0.0353224 0)
(0.324488 0.026837 0)
(0.346722 0.0206506 0)
(0.364636 0.0160916 0)
(0.379097 0.0126862 0)
(0.390788 0.0100997 0)
(0.400239 0.00809704 0)
(0.40786 0.00651365 0)
(0.41396 0.0052329 0)
(0.418771 0.00416917 0)
(0.422459 0.00325369 0)
(0.425127 0.00242022 0)
(0.426807 0.00158733 0)
(0.427424 0.000615854 0)
(0.426759 -0.000748302 0)
(0.424116 -0.00310817 0)
(0.418096 -0.00778544 0)
(0.405399 -0.0174549 0)
(0.380555 -0.0380583 0)
(0.331546 -0.0814162 0)
(0.253054 -0.173579 0)
(0.0979412 -0.327597 0)
(0.0468748 -0.407634 0)
(0.232051 0.159171 0)
(0.294965 0.119349 0)
(0.447607 0.0776858 0)
(0.547628 0.0515032 0)
(0.613508 0.0341705 0)
(0.659601 0.0225276 0)
(0.692601 0.0148877 0)
(0.716448 0.00995314 0)
(0.733926 0.00677151 0)
(0.746975 0.00471072 0)
(0.756904 0.00336552 0)
(0.764588 0.00247552 0)
(0.770625 0.00187358 0)
(0.775423 0.00145375 0)
(0.779267 0.0011498 0)
(0.782356 0.000920442 0)
(0.784829 0.000739306 0)
(0.786782 0.00058783 0)
(0.788272 0.000449507 0)
(0.789315 0.000304834 0)
(0.78985 0.000122271 0)
(0.789711 -0.000160333 0)
(0.788341 -0.000679102 0)
(0.784796 -0.00178634 0)
(0.776297 -0.00408867 0)
(0.759441 -0.0091782 0)
(0.719453 -0.0199347 0)
(0.652667 -0.0452733 0)
(0.45509 -0.109992 0)
(0.31353 -0.179732 0)
)
;

boundaryField
{
    movingWall
    {
        type            fixedValue;
        value           uniform (1 0 0);
    }
    fixedWalls
    {
        type            noSlip;
    }
    frontAndBack
    {
        type            empty;
    }
}


// ************************************************************************* //
