/*--------------------------------*- C++ -*----------------------------------*\
  =========                 |
  \\      /  F ield         | OpenFOAM: The Open Source CFD Toolbox
   \\    /   O peration     | Website:  https://openfoam.org
    \\  /    A nd           | Version:  7
     \\/     M anipulation  |
\*---------------------------------------------------------------------------*/
FoamFile
{
    version     2.0;
    format      ascii;
    class       volScalarField;
    location    "0.1";
    object      p;
}
// * * * * * * * * * * * * * * * * * * * * * * * * * * * * * * * * * * * * * //

dimensions      [0 2 -2 0 0 0 0];

internalField   nonuniform List<scalar> 
900
(
-1.42401e-07
0.026268
-0.0204461
0.0338544
-0.0133718
0.0229161
0.00469736
0.0147367
0.0148876
0.016761
0.0188945
0.0211445
0.0234942
0.0259184
0.0283873
0.0308716
0.0333477
0.0357909
0.0381649
0.0404457
0.0426401
0.0446073
0.0432823
0.0568368
0.0322071
0.0767448
0.0199402
0.0844322
0.0288486
0.0607388
-0.00186103
0.0278966
-0.0225828
0.0358946
-0.0151508
0.0238499
0.00422212
0.0148463
0.0148247
0.0166959
0.0188421
0.0211023
0.0234618
0.0258983
0.0283775
0.030871
0.0333613
0.0358178
0.0382018
0.0404907
0.0426997
0.0446782
0.0429915
0.0572776
0.031246
0.078982
0.0175412
0.0869331
0.0271075
0.0624012
-0.00290931
0.02806
-0.0239835
0.036472
-0.0164577
0.0240163
0.00361241
0.0146572
0.0145588
0.0164658
0.0186514
0.0209537
0.0233524
0.0258253
0.0283461
0.0308846
0.0334175
0.0359148
0.0383362
0.0406604
0.0429057
0.0449261
0.0430779
0.0578484
0.0310896
0.080583
0.0168003
0.0885578
0.0269686
0.0634394
-0.0038507
0.0278677
-0.0253471
0.0365591
-0.0176778
0.0237894
0.00290388
0.0141806
0.0141189
0.0160841
0.0183349
0.0206996
0.0231634
0.0257057
0.0282979
0.0309091
0.0335137
0.0360779
0.0385637
0.0409501
0.0432547
0.045325
0.0434711
0.0585708
0.0312599
0.0820034
0.0166111
0.0900964
0.0271393
0.0644355
-0.00491412
0.0272563
-0.0267506
0.0361166
-0.0189177
0.0231446
0.00205821
0.0134075
0.013515
0.0155511
0.0178859
0.0203405
0.0228966
0.0255372
0.0282332
0.0309466
0.033649
0.0363086
0.0388888
0.0413654
0.0437505
0.0458715
0.0441398
0.0592906
0.031984
0.0834229
0.0170199
0.0916465
0.0277518
0.0655803
-0.006188
0.0262392
-0.0282308
0.0352152
-0.020235
0.0221084
0.00105685
0.0123585
0.0127201
0.0148545
0.0172973
0.0198691
0.0225501
0.0253217
0.0281508
0.0309946
0.0338252
0.0366131
0.0393192
0.0419144
0.044404
0.0465985
0.0451408
0.0601781
0.0330981
0.084849
0.0179329
0.0932485
0.0287896
0.0669349
-0.00772594
0.0248476
-0.029858
0.0339137
-0.0216877
0.0206998
-0.000145005
0.0110401
0.0117157
0.0139795
0.0165614
0.0192834
0.0221223
0.025056
0.0280477
0.0310536
0.0340462
0.0369961
0.0398597
0.042604
0.0452291
0.0475352
0.0465009
0.0613777
0.0344695
0.0863275
0.0192653
0.0949782
0.0302203
0.0685461
-0.00957419
0.0230887
-0.0316996
0.0322588
-0.0233068
0.0189046
-0.00158949
0.00943531
0.0104884
0.0129176
0.0156731
0.0185789
0.0216075
0.024735
0.0279226
0.0311256
0.0343155
0.0374605
0.040514
0.0434407
0.0462349
0.0486852
0.048143
0.0627421
0.0362596
0.0880126
0.0209901
0.0969114
0.0320274
0.0704508
-0.0117717
0.0209501
-0.0338099
0.0302974
-0.0250315
0.0166107
-0.00333422
0.00753495
0.00902766
0.0116619
0.0146252
0.0177479
0.0210003
0.0243565
0.0277754
0.031212
0.0346353
0.0380101
0.0412878
0.044433
0.0474321
0.0500637
0.050076
0.0643613
0.0384245
0.089946
0.0230841
0.0991102
0.0342107
0.0726855
-0.0143595
0.018401
-0.0362563
0.0280422
-0.026447
0.0133453
-0.00540932
0.00535464
0.00732797
0.0102041
0.0134085
0.016783
0.020296
0.0239182
0.0276055
0.031313
0.0350077
0.0386494
0.0421887
0.0455903
0.048833
0.0516909
0.0523236
0.0662984
0.0409939
0.0921231
0.025526
0.101623
0.036786
0.0752922
-0.0173943
0.0153826
-0.0391642
0.0251565
-0.0282896
0.00980369
-0.00751499
0.00295768
0.00539285
0.00853685
0.012015
0.0156776
0.0194894
0.0234162
0.027411
0.0314287
0.0354339
0.0393826
0.0432246
0.0469228
0.0504496
0.0535825
0.0548958
0.0685991
0.0441429
0.0944379
0.028296
0.104499
0.039789
0.0783225
-0.0209331
0.011832
-0.0426003
0.0215507
-0.0306992
0.00623057
-0.0097243
0.000318918
0.00320381
0.00664571
0.0104336
0.0144233
0.0185736
0.0228456
0.0271893
0.0315589
0.0359162
0.0402141
0.0444018
0.0484395
0.052292
0.0557471
0.0577783
0.0712826
0.0484984
0.0963286
0.031415
0.107816
0.0432806
0.08184
-0.0250174
0.00769891
-0.0466102
0.0172094
-0.0334564
0.00250537
-0.0122143
-0.00261709
0.0007282
0.00450842
0.00864867
0.0130092
0.0175415
0.0222017
0.0269384
0.0317045
0.0364576
0.0411484
0.0457264
0.0501474
0.0543673
0.0581817
0.0608954
0.0739418
0.0531176
0.0987756
0.0353618
0.111726
0.0473503
0.0859202
-0.0296684
0.00295909
-0.0512718
0.0116296
-0.0360812
-0.00145253
-0.0150471
-0.0058899
-0.0020675
0.0021008
0.00664263
0.0114231
0.0163853
0.0214799
0.0266557
0.031865
0.0370602
0.0421901
0.0472049
0.0520563
0.0566899
0.0609085
0.0642964
0.076775
0.0577041
0.101871
0.0402213
0.1163
0.0520846
0.0906345
-0.0348923
-0.00233916
-0.056345
0.00474089
-0.038624
-0.00597046
-0.0183714
-0.00956529
-0.00522125
-0.000601469
0.00439885
0.00965307
0.0150972
0.020676
0.0263389
0.0320387
0.0377244
0.0433431
0.0488453
0.054179
0.0592806
0.0639588
0.068026
0.0799269
0.0624594
0.105225
0.0461956
0.121611
0.0575467
0.0960329
-0.0407258
-0.00817238
-0.0611493
-0.00104547
-0.0437301
-0.0117484
-0.0223187
-0.0136985
-0.0087656
-0.00361854
0.00190492
0.00769071
0.013671
0.0197864
0.0259864
0.0322249
0.03845
0.0446096
0.0506544
0.0565289
0.0621625
0.0673717
0.0721437
0.0835227
0.0675391
0.107644
0.0545378
0.127662
0.0637464
0.102144
-0.0473002
-0.0148716
-0.0667087
-0.00953045
-0.04797
-0.0176722
-0.0267117
-0.0182831
-0.0127131
-0.00696164
-0.000845359
0.00553304
0.0121043
0.018808
0.0255958
0.0324221
0.0392357
0.0459891
0.0526347
0.0591145
0.0653538
0.0711835
0.0767249
0.0877861
0.0740476
0.112983
0.0616414
0.133369
0.0706
0.108998
-0.0548285
-0.0226188
-0.0707039
-0.0190351
-0.0544297
-0.0246935
-0.0317385
-0.0233489
-0.0170711
-0.0106345
-0.00385285
0.00318143
0.0103985
0.0177406
0.0251642
0.0326262
0.0400781
0.0474784
0.0547837
0.0619351
0.0688576
0.0754013
0.0817689
0.0925558
0.0809036
0.117839
0.0713641
0.13965
0.0784778
0.116739
-0.0635662
-0.0335069
-0.0755816
-0.0292387
-0.0602195
-0.0321085
-0.0373087
-0.0288769
-0.0218281
-0.0146296
-0.00711156
0.000641319
0.00855791
0.0165863
0.0246907
0.0328331
0.0409699
0.0490683
0.05709
0.0649783
0.0726626
0.080017
0.0872884
0.0979729
0.088875
0.124885
0.08265
0.144076
0.0877875
0.125617
-0.0726598
-0.0460426
-0.0821843
-0.0399574
-0.0672571
-0.0404363
-0.0435315
-0.0348716
-0.0269705
-0.0189299
-0.0106062
-0.00207527
0.00659182
0.0153505
0.0241761
0.0330376
0.0419
0.0507412
0.0595311
0.0682182
0.0767409
0.085
0.0932464
0.103921
0.097269
0.13123
0.0946828
0.149026
0.101366
0.135853
-0.0818054
-0.0607641
-0.0908562
-0.0519526
-0.0752063
-0.0496127
-0.0504301
-0.0413271
-0.0324765
-0.0235078
-0.0143095
-0.00494647
0.00451586
0.0140429
0.0236225
0.0332336
0.0428521
0.0524708
0.0620719
0.0716139
0.0810493
0.0903075
0.0996181
0.110484
0.106631
0.139009
0.107646
0.15746
0.115794
0.145991
-0.0938893
-0.0760904
-0.101128
-0.0652479
-0.0843075
-0.0597082
-0.0580146
-0.0482194
-0.0383086
-0.0283225
-0.0181812
-0.00793741
0.00235586
0.0126788
0.0230342
0.033413
0.0438049
0.0542222
0.0646653
0.0751094
0.085525
0.0958704
0.106345
0.11764
0.116809
0.14764
0.121485
0.166838
0.133967
0.157692
-0.108773
-0.0929991
-0.113482
-0.079923
-0.0946058
-0.07072
-0.0662612
-0.0554931
-0.0444043
-0.0333115
-0.0221645
-0.0109987
0.000150682
0.0112826
0.0224185
0.0335653
0.0447312
0.0559522
0.0672533
0.0786311
0.0900787
0.101586
0.113323
0.125351
0.127834
0.157526
0.13703
0.179304
0.152215
0.172734
-0.126795
-0.112216
-0.128381
-0.0961907
-0.106198
-0.0826002
-0.0751011
-0.0630554
-0.0506659
-0.0383833
-0.0261784
-0.0140628
-0.00204827
0.00988624
0.0217851
0.033679
0.0455999
0.0576117
0.0697654
0.0820836
0.0945883
0.107309
0.120398
0.133509
0.139597
0.168571
0.153992
0.19425
0.172861
0.191721
-0.148954
-0.134634
-0.146199
-0.114215
-0.11908
-0.095197
-0.0843978
-0.070766
-0.056949
-0.043408
-0.0301131
-0.0170422
-0.00417779
0.00852739
0.0211479
0.0337453
0.0463807
0.0591444
0.0721144
0.0853433
0.0988953
0.112854
0.127362
0.141901
0.151847
0.180689
0.172512
0.212339
0.196729
0.215625
-0.177052
-0.161374
-0.167438
-0.134076
-0.133102
-0.108183
-0.0939178
-0.0784167
-0.0630542
-0.0482098
-0.0338243
-0.0198281
-0.0061644
0.00724969
0.0205257
0.0337603
0.0470419
0.0604844
0.0741941
0.0882646
0.102814
0.117985
0.133935
0.150173
0.164111
0.193573
0.192491
0.233894
0.225026
0.246676
-0.214703
-0.193907
-0.192641
-0.155553
-0.147884
-0.120963
-0.1033
-0.0857044
-0.0687114
-0.0525638
-0.0371379
-0.0222966
-0.0079253
0.00610464
0.0199451
0.0337219
0.047547
0.0615571
0.075894
0.0906962
0.106135
0.122414
0.139743
0.157821
0.175576
0.206538
0.213303
0.258994
0.258951
0.289067
-0.269202
-0.2334
-0.222338
-0.177501
-0.162812
-0.132386
-0.112109
-0.0922111
-0.0735587
-0.0561947
-0.039858
-0.0243107
-0.00936571
0.00515572
0.0194379
0.0336288
0.0478629
0.0623021
0.0771195
0.0924875
0.108625
0.125808
0.144356
0.164269
0.184765
0.218595
0.232835
0.286848
0.297737
0.34936
-0.349885
-0.278504
-0.25588
-0.197326
-0.177198
-0.13962
-0.120233
-0.0972291
-0.07703
-0.0587217
-0.0417289
-0.0256909
-0.010355
0.00449134
0.0190542
0.0335066
0.0479889
0.0626904
0.0778017
0.0935145
0.110088
0.127863
0.147366
0.169371
0.1891
0.229595
0.247644
0.31537
0.339505
0.447299
-0.563152
-0.332083
-0.275883
-0.214916
-0.178557
-0.146459
-0.121425
-0.098642
-0.0781901
-0.0595951
-0.0423835
-0.0261783
-0.0107052
0.00425025
0.0188925
0.0334123
0.0479818
0.0627569
0.0779374
0.0937445
0.110428
0.12834
0.147957
0.169918
0.194886
0.228909
0.26521
0.338714
0.420623
0.681242
)
;

boundaryField
{
    movingWall
    {
        type            zeroGradient;
    }
    fixedWalls
    {
        type            zeroGradient;
    }
    frontAndBack
    {
        type            empty;
    }
}


// ************************************************************************* //
