/*--------------------------------*- C++ -*----------------------------------*\
  =========                 |
  \\      /  F ield         | OpenFOAM: The Open Source CFD Toolbox
   \\    /   O peration     | Website:  https://openfoam.org
    \\  /    A nd           | Version:  7
     \\/     M anipulation  |
\*---------------------------------------------------------------------------*/
FoamFile
{
    version     2.0;
    format      ascii;
    class       surfaceScalarField;
    location    "0.1";
    object      phi;
}
// * * * * * * * * * * * * * * * * * * * * * * * * * * * * * * * * * * * * * //

dimensions      [0 3 -1 0 0 0 0];

internalField   nonuniform List<scalar> 
1740
(
-1.58762e-05
1.58763e-05
5.28403e-06
-2.11602e-05
-1.424e-05
1.9524e-05
-4.09668e-06
-1.01432e-05
-1.36295e-05
9.53276e-06
-1.26085e-05
-1.02099e-06
-1.5589e-05
2.98047e-06
-1.70752e-05
1.48621e-06
-1.85734e-05
1.49824e-06
-1.99551e-05
1.38171e-06
-2.10829e-05
1.12784e-06
-2.19688e-05
8.85831e-07
-2.26732e-05
7.04404e-07
-2.30618e-05
3.88674e-07
-2.31478e-05
8.5939e-08
-2.30343e-05
-1.13462e-07
-2.26746e-05
-3.59629e-07
-2.20357e-05
-6.39e-07
-2.11638e-05
-8.71853e-07
-2.00662e-05
-1.09764e-06
-1.87069e-05
-1.35932e-06
-1.71796e-05
-1.52731e-06
-1.60381e-05
-1.14149e-06
-1.2382e-05
-3.65617e-06
-1.46049e-05
2.22295e-06
-2.94787e-06
-1.1657e-05
-1.54223e-05
1.24744e-05
8.28942e-06
-2.37117e-05
-1.6495e-05
2.47844e-05
-1.64951e-05
1.99949e-06
1.38768e-05
-7.96181e-06
-1.11989e-05
-6.49422e-06
1.80563e-05
-1.29751e-05
-3.66237e-06
-1.38495e-05
1.04072e-05
-1.74047e-05
2.53423e-06
-1.96244e-05
5.20007e-06
-2.20748e-05
3.93655e-06
-2.41647e-05
3.58813e-06
-2.58518e-05
3.06884e-06
-2.73533e-05
2.62932e-06
-2.85499e-05
2.08254e-06
-2.93488e-05
1.50324e-06
-2.98547e-05
8.94587e-07
-3.00373e-05
2.68627e-07
-2.98568e-05
-2.94091e-07
-2.93958e-05
-8.20518e-07
-2.86038e-05
-1.43101e-06
-2.7436e-05
-2.03972e-06
-2.59655e-05
-2.56819e-06
-2.42421e-05
-3.08271e-06
-2.22287e-05
-3.54077e-06
-1.96435e-05
-3.72672e-06
-1.75624e-05
-5.73725e-06
-1.37343e-05
-1.60517e-06
-1.34475e-05
-1.19437e-05
-6.42719e-06
5.45402e-06
-9.19981e-06
-2.09391e-05
1.79695e-06
1.37878e-05
-1.46981e-05
2.35072e-06
1.15261e-05
-8.92423e-06
7.60712e-08
-6.79504e-06
1.59272e-05
-1.37595e-05
3.30201e-06
-1.45875e-05
1.12352e-05
-1.83986e-05
6.34524e-06
-2.06073e-05
7.40882e-06
-2.30763e-05
6.40553e-06
-2.51751e-05
5.68701e-06
-2.70207e-05
4.91441e-06
-2.8572e-05
4.18063e-06
-2.97784e-05
3.28891e-06
-3.05977e-05
2.32263e-06
-3.10873e-05
1.38412e-06
-3.12958e-05
4.77147e-07
-3.11758e-05
-4.14019e-07
-3.06439e-05
-1.35253e-06
-2.97887e-05
-2.28626e-06
-2.86218e-05
-3.20659e-06
-2.71111e-05
-4.07886e-06
-2.52891e-05
-4.90477e-06
-2.31651e-05
-5.66475e-06
-2.05324e-05
-6.35943e-06
-1.85876e-05
-7.68204e-06
-1.44246e-05
-5.76811e-06
-1.42126e-05
-1.21557e-05
-6.54059e-06
-2.21799e-06
-1.00323e-05
-1.74474e-05
2.56799e-06
1.1874e-06
-1.21301e-05
-2.11645e-07
1.17378e-05
-8.00429e-06
7.86869e-06
-7.91974e-06
1.58426e-05
-1.36556e-05
9.0379e-06
-1.53631e-05
1.29426e-05
-1.89862e-05
9.96834e-06
-2.11373e-05
9.55994e-06
-2.38141e-05
9.08237e-06
-2.60296e-05
7.90246e-06
-2.79221e-05
6.80701e-06
-2.94268e-05
5.68528e-06
-3.06577e-05
4.51984e-06
-3.15598e-05
3.22476e-06
-3.2097e-05
1.9213e-06
-3.23163e-05
6.96418e-07
-3.21688e-05
-5.61564e-07
-3.1636e-05
-1.88534e-06
-3.07216e-05
-3.2007e-06
-2.95019e-05
-4.42624e-06
-2.79609e-05
-5.61991e-06
-2.61031e-05
-6.76257e-06
-2.39435e-05
-7.82433e-06
-2.12919e-05
-9.01104e-06
-1.92234e-05
-9.75049e-06
-1.52204e-05
-9.77122e-06
-1.3918e-05
-1.3458e-05
-7.66978e-06
-8.46615e-06
-8.39463e-06
-1.67226e-05
2.21822e-07
-7.42907e-06
-1.19083e-05
-1.61548e-06
1.33532e-05
-7.43259e-06
1.36858e-05
-9.12162e-06
1.75316e-05
-1.37888e-05
1.37051e-05
-1.60242e-05
1.51779e-05
-1.97044e-05
1.36485e-05
-2.22743e-05
1.21299e-05
-2.48034e-05
1.16115e-05
-2.702e-05
1.0119e-05
-2.90117e-05
8.79866e-06
-3.06833e-05
7.35698e-06
-3.19069e-05
5.74338e-06
-3.28059e-05
4.12374e-06
-3.34233e-05
2.53877e-06
-3.36514e-05
9.24465e-07
-3.34491e-05
-7.63881e-07
-3.28551e-05
-2.47938e-06
-3.19499e-05
-4.10591e-06
-3.07058e-05
-5.67039e-06
-2.91082e-05
-7.21743e-06
-2.71742e-05
-8.6965e-06
-2.49317e-05
-1.00669e-05
-2.2213e-05
-1.17298e-05
-1.98717e-05
-1.20917e-05
-1.60817e-05
-1.35612e-05
-1.39111e-05
-1.56287e-05
-8.75488e-06
-1.36224e-05
-7.43312e-06
-1.80443e-05
-1.33688e-06
-1.35253e-05
-1.32452e-05
-2.49803e-06
1.58512e-05
-7.16937e-06
1.8357e-05
-9.76469e-06
2.01269e-05
-1.41668e-05
1.81072e-05
-1.71617e-05
1.81728e-05
-2.06604e-05
1.71472e-05
-2.32527e-05
1.47221e-05
-2.60084e-05
1.43672e-05
-2.84476e-05
1.25582e-05
-3.04954e-05
1.08465e-05
-3.21523e-05
9.01381e-06
-3.34897e-05
7.08082e-06
-3.44907e-05
5.12479e-06
-3.5087e-05
3.13501e-06
-3.52733e-05
1.11075e-06
-3.50614e-05
-9.75798e-07
-3.45071e-05
-3.03372e-06
-3.3566e-05
-5.04696e-06
-3.22581e-05
-6.97821e-06
-3.05801e-05
-8.89538e-06
-2.855e-05
-1.07267e-05
-2.61753e-05
-1.24416e-05
-2.33552e-05
-1.45499e-05
-2.07625e-05
-1.46844e-05
-1.70748e-05
-1.72488e-05
-1.42838e-05
-1.84197e-05
-9.73766e-06
-1.81686e-05
-7.14291e-06
-2.06391e-05
-2.19316e-06
-1.84751e-05
-1.54383e-05
-2.94315e-06
1.87944e-05
-7.4032e-06
2.2817e-05
-1.08084e-05
2.35321e-05
-1.49084e-05
2.22072e-05
-1.81615e-05
2.14259e-05
-2.17828e-05
2.07685e-05
-2.47014e-05
1.76408e-05
-2.76044e-05
1.72701e-05
-3.01243e-05
1.50781e-05
-3.22721e-05
1.29943e-05
-3.4047e-05
1.07887e-05
-3.54641e-05
8.49794e-06
-3.6498e-05
6.15875e-06
-3.71229e-05
3.75985e-06
-3.73061e-05
1.29396e-06
-3.71129e-05
-1.16898e-06
-3.65313e-05
-3.61532e-06
-3.55546e-05
-6.02362e-06
-3.41529e-05
-8.37996e-06
-3.23776e-05
-1.06706e-05
-3.0251e-05
-1.28533e-05
-2.77463e-05
-1.49463e-05
-2.48306e-05
-1.74655e-05
-2.20077e-05
-1.75074e-05
-1.82471e-05
-2.10094e-05
-1.49721e-05
-2.16947e-05
-1.06552e-05
-2.24854e-05
-7.26095e-06
-2.40333e-05
-2.72839e-06
-2.30076e-05
-1.81667e-05
-3.25566e-06
2.20501e-05
-7.68903e-06
2.72504e-05
-1.16024e-05
2.74453e-05
-1.57554e-05
2.63602e-05
-1.93368e-05
2.50074e-05
-2.32283e-05
2.466e-05
-2.64716e-05
2.08842e-05
-2.94984e-05
2.02969e-05
-3.21578e-05
1.77375e-05
-3.44415e-05
1.52781e-05
-3.63394e-05
1.26866e-05
-3.7826e-05
9.98452e-06
-3.89035e-05
7.23623e-06
-3.95546e-05
4.41093e-06
-3.97679e-05
1.50735e-06
-3.9559e-05
-1.37786e-06
-3.89519e-05
-4.22244e-06
-3.79184e-05
-7.05708e-06
-3.64333e-05
-9.86507e-06
-3.45547e-05
-1.25493e-05
-3.22816e-05
-1.51264e-05
-2.96137e-05
-1.76141e-05
-2.65641e-05
-2.05151e-05
-2.34826e-05
-2.05889e-05
-1.96131e-05
-2.4879e-05
-1.59364e-05
-2.53713e-05
-1.16036e-05
-2.68183e-05
-7.65612e-06
-2.79807e-05
-3.15954e-06
-2.75041e-05
-2.13262e-05
-3.44839e-06
2.54984e-05
-8.09311e-06
3.18951e-05
-1.25008e-05
3.1853e-05
-1.68945e-05
3.07539e-05
-2.06031e-05
2.8716e-05
-2.49988e-05
2.90557e-05
-2.8527e-05
2.44124e-05
-3.17365e-05
2.35064e-05
-3.458e-05
2.0581e-05
-3.70171e-05
1.77152e-05
-3.9029e-05
1.46985e-05
-4.05978e-05
1.15534e-05
-4.17265e-05
8.36491e-06
-4.2414e-05
5.09853e-06
-4.26503e-05
1.74365e-06
-4.24384e-05
-1.58976e-06
-4.17945e-05
-4.86633e-06
-4.06981e-05
-8.15346e-06
-3.91352e-05
-1.14279e-05
-3.71408e-05
-1.45436e-05
-3.47056e-05
-1.75616e-05
-3.1862e-05
-2.04577e-05
-2.86206e-05
-2.37565e-05
-2.52361e-05
-2.39734e-05
-2.11555e-05
-2.89597e-05
-1.71564e-05
-2.93704e-05
-1.2673e-05
-3.13017e-05
-8.27138e-06
-3.23823e-05
-3.58405e-06
-3.21915e-05
-2.49102e-05
-3.73335e-06
2.92317e-05
-8.76301e-06
3.69248e-05
-1.3692e-05
3.6782e-05
-1.85338e-05
3.55957e-05
-2.2701e-05
3.28831e-05
-2.72843e-05
3.3639e-05
-3.09802e-05
2.81082e-05
-3.43935e-05
2.69197e-05
-3.74271e-05
2.36147e-05
-4.001e-05
2.02982e-05
-4.21372e-05
1.68258e-05
-4.38014e-05
1.32175e-05
-4.50013e-05
9.56476e-06
-4.57317e-05
5.82902e-06
-4.59883e-05
2.0002e-06
-4.57725e-05
-1.80554e-06
-4.50734e-05
-5.56541e-06
-4.38829e-05
-9.34398e-06
-4.22487e-05
-1.30621e-05
-4.01568e-05
-1.66355e-05
-3.75758e-05
-2.01425e-05
-3.45351e-05
-2.34986e-05
-3.10791e-05
-2.72125e-05
-2.73368e-05
-2.77157e-05
-2.2888e-05
-3.34084e-05
-1.86136e-05
-3.36448e-05
-1.38803e-05
-3.6035e-05
-9.04431e-06
-3.72183e-05
-4.0233e-06
-3.72125e-05
-2.89335e-05
-4.13884e-06
3.33705e-05
-9.64758e-06
4.24334e-05
-1.51001e-05
4.22345e-05
-2.04536e-05
4.09491e-05
-2.50252e-05
3.74548e-05
-2.98714e-05
3.84852e-05
-3.38392e-05
3.20761e-05
-3.74939e-05
3.05744e-05
-4.07268e-05
2.68476e-05
-4.34611e-05
2.30325e-05
-4.57082e-05
1.90729e-05
-4.74705e-05
1.49798e-05
-4.87389e-05
1.08332e-05
-4.95005e-05
6.59067e-06
-4.97721e-05
2.2718e-06
-4.95667e-05
-2.01097e-06
-4.88537e-05
-6.27837e-06
-4.76058e-05
-1.05918e-05
-4.58664e-05
-1.48015e-05
-4.3619e-05
-1.88829e-05
-4.08664e-05
-2.28951e-05
-3.76309e-05
-2.6734e-05
-3.39688e-05
-3.08746e-05
-2.98552e-05
-3.18293e-05
-2.46875e-05
-3.85761e-05
-2.03706e-05
-3.79618e-05
-1.52821e-05
-4.11235e-05
-9.95512e-06
-4.25453e-05
-4.47627e-06
-4.26914e-05
-3.34098e-05
-4.62103e-06
3.79915e-05
-1.06979e-05
4.85103e-05
-1.67357e-05
4.82722e-05
-2.27083e-05
4.69216e-05
-2.76682e-05
4.24147e-05
-3.28315e-05
4.36485e-05
-3.71337e-05
3.63782e-05
-4.10501e-05
3.44908e-05
-4.44995e-05
3.02971e-05
-4.74056e-05
2.59386e-05
-4.97835e-05
2.14508e-05
-5.16476e-05
1.6844e-05
-5.29933e-05
1.21789e-05
-5.38001e-05
7.39741e-06
-5.40686e-05
2.54033e-06
-5.38458e-05
-2.23373e-06
-5.30841e-05
-7.04e-06
-5.17807e-05
-1.18952e-05
-4.99741e-05
-1.66081e-05
-4.76174e-05
-2.12395e-05
-4.4706e-05
-2.58065e-05
-4.12456e-05
-3.01945e-05
-3.73459e-05
-3.47743e-05
-3.3047e-05
-3.61283e-05
-2.75776e-05
-4.40455e-05
-2.27278e-05
-4.28117e-05
-1.69788e-05
-4.68725e-05
-1.10308e-05
-4.84932e-05
-4.9588e-06
-4.87634e-05
-3.83686e-05
-5.17515e-06
4.31667e-05
-1.19239e-05
5.5259e-05
-1.86503e-05
5.49986e-05
-2.55419e-05
5.38133e-05
-3.07335e-05
4.76063e-05
-3.62502e-05
4.91652e-05
-4.09263e-05
4.10544e-05
-4.51158e-05
3.86803e-05
-4.87886e-05
3.39699e-05
-5.18789e-05
2.90289e-05
-5.43893e-05
2.39613e-05
-5.63422e-05
1.87968e-05
-5.77449e-05
1.35818e-05
-5.8593e-05
8.24544e-06
-5.88968e-05
2.84422e-06
-5.86674e-05
-2.4631e-06
-5.78784e-05
-7.82906e-06
-5.65201e-05
-1.32534e-05
-5.46164e-05
-1.85119e-05
-5.21345e-05
-2.37214e-05
-4.90789e-05
-2.88622e-05
-4.54115e-05
-3.38619e-05
-4.12283e-05
-3.89575e-05
-3.66101e-05
-4.07465e-05
-3.08662e-05
-4.97893e-05
-2.54862e-05
-4.81917e-05
-1.89716e-05
-5.33872e-05
-1.23002e-05
-5.51646e-05
-5.50149e-06
-5.55621e-05
-4.38701e-05
-5.80767e-06
4.89743e-05
-1.33152e-05
6.27665e-05
-2.06921e-05
6.23756e-05
-2.85383e-05
6.16595e-05
-3.40817e-05
5.31497e-05
-4.01253e-05
5.52089e-05
-4.5257e-05
4.61861e-05
-4.97523e-05
4.31756e-05
-5.3649e-05
3.78666e-05
-5.69188e-05
3.22987e-05
-5.95625e-05
2.6605e-05
-6.16039e-05
2.08383e-05
-6.3062e-05
1.50398e-05
-6.39362e-05
9.11964e-06
-6.42615e-05
3.16956e-06
-6.4022e-05
-2.70253e-06
-6.32079e-05
-8.64315e-06
-6.18305e-05
-1.46308e-05
-5.9856e-05
-2.04864e-05
-5.72481e-05
-2.63293e-05
-5.40288e-05
-3.20815e-05
-5.01573e-05
-3.77334e-05
-4.56922e-05
-4.34226e-05
-4.06893e-05
-4.57495e-05
-3.4575e-05
-5.59037e-05
-2.8773e-05
-5.39937e-05
-2.12988e-05
-6.08614e-05
-1.37882e-05
-6.26753e-05
-6.13273e-06
-6.32175e-05
-5.00028e-05
-6.54296e-06
5.55173e-05
-1.49214e-05
7.11449e-05
-2.27756e-05
7.02298e-05
-3.08016e-05
6.96855e-05
-3.76927e-05
6.00408e-05
-4.45557e-05
6.20718e-05
-5.02031e-05
5.18335e-05
-5.50379e-05
4.80103e-05
-5.91613e-05
4.19901e-05
-6.25909e-05
3.57283e-05
-6.53451e-05
2.93592e-05
-6.7454e-05
2.29472e-05
-6.89488e-05
1.65347e-05
-6.98434e-05
1.00143e-05
-7.0186e-05
3.5121e-06
-6.99466e-05
-2.94185e-06
-6.91146e-05
-9.47515e-06
-6.77165e-05
-1.60289e-05
-6.57062e-05
-2.24967e-05
-6.30168e-05
-2.90188e-05
-5.96422e-05
-3.5456e-05
-5.55523e-05
-4.18233e-05
-5.07928e-05
-4.8182e-05
-4.53503e-05
-5.11921e-05
-3.87862e-05
-6.24678e-05
-3.30736e-05
-5.97063e-05
-2.39503e-05
-6.99847e-05
-1.55074e-05
-7.11182e-05
-6.87596e-06
-7.1849e-05
-5.68788e-05
-7.44077e-06
6.29581e-05
-1.69591e-05
8.06633e-05
-2.57792e-05
7.90499e-05
-3.56047e-05
7.9511e-05
-4.25577e-05
6.69938e-05
-4.98161e-05
6.93303e-05
-5.59062e-05
5.79236e-05
-6.10618e-05
5.31659e-05
-6.53903e-05
4.63186e-05
-6.89449e-05
3.92829e-05
-7.17721e-05
3.21864e-05
-7.39172e-05
2.50923e-05
-7.54266e-05
1.8044e-05
-7.6326e-05
1.09138e-05
-7.66739e-05
3.85993e-06
-7.64517e-05
-3.16403e-06
-7.5628e-05
-1.02989e-05
-7.42262e-05
-1.74307e-05
-7.21996e-05
-2.45232e-05
-6.94703e-05
-3.17481e-05
-6.59836e-05
-3.89427e-05
-6.16947e-05
-4.61123e-05
-5.66288e-05
-5.3248e-05
-5.06443e-05
-5.71766e-05
-4.3094e-05
-7.00181e-05
-3.56082e-05
-6.71921e-05
-2.64315e-05
-7.91613e-05
-1.7465e-05
-8.00848e-05
-7.76154e-06
-8.15524e-05
-6.46403e-05
-8.57931e-06
7.15374e-05
-1.95014e-05
9.15854e-05
-2.83342e-05
8.78826e-05
-3.93619e-05
9.05387e-05
-4.78115e-05
7.54434e-05
-5.58927e-05
7.74116e-05
-6.24985e-05
6.45294e-05
-6.79247e-05
5.8592e-05
-7.24066e-05
5.08005e-05
-7.60275e-05
4.29038e-05
-7.8873e-05
3.5032e-05
-8.10097e-05
2.72291e-05
-8.24972e-05
1.95315e-05
-8.33906e-05
1.18072e-05
-8.37323e-05
4.2016e-06
-8.35272e-05
-3.36913e-06
-8.2749e-05
-1.10771e-05
-8.1385e-05
-1.87947e-05
-7.93808e-05
-2.65274e-05
-7.66592e-05
-3.44697e-05
-7.31269e-05
-4.24751e-05
-6.87061e-05
-5.05331e-05
-6.33885e-05
-5.85656e-05
-5.69462e-05
-6.3619e-05
-4.89171e-05
-7.80472e-05
-4.12719e-05
-7.48373e-05
-3.00445e-05
-9.03888e-05
-2.00039e-05
-9.01254e-05
-8.87601e-06
-9.26803e-05
-7.35163e-05
-1.0031e-05
8.15683e-05
-2.36328e-05
0.000105187
-3.37236e-05
9.79734e-05
-4.59301e-05
0.000102745
-5.45391e-05
8.40524e-05
-6.30955e-05
8.59679e-05
-7.01259e-05
7.15599e-05
-7.57298e-05
6.41959e-05
-8.02895e-05
5.53603e-05
-8.38914e-05
4.65057e-05
-8.66776e-05
3.78181e-05
-8.8752e-05
2.93034e-05
-9.01682e-05
2.09477e-05
-9.1017e-05
1.2656e-05
-9.13541e-05
4.53878e-06
-9.11754e-05
-3.54783e-06
-9.04697e-05
-1.17828e-05
-8.91946e-05
-2.00698e-05
-8.72808e-05
-2.84412e-05
-8.46428e-05
-3.71077e-05
-8.11567e-05
-4.59612e-05
-7.67033e-05
-5.49866e-05
-7.12132e-05
-6.40556e-05
-6.42785e-05
-7.05537e-05
-5.54047e-05
-8.69211e-05
-4.62525e-05
-8.39895e-05
-3.3382e-05
-0.000103259
-2.33216e-05
-0.000100186
-1.03176e-05
-0.000105684
-8.38339e-05
-1.13299e-05
9.28982e-05
-2.73906e-05
0.000121248
-3.91292e-05
0.000109712
-5.26301e-05
0.000116246
-6.22798e-05
9.37021e-05
-7.1485e-05
9.51731e-05
-7.88943e-05
7.89691e-05
-8.45939e-05
6.98956e-05
-8.91223e-05
5.98887e-05
-9.25968e-05
4.99802e-05
-9.52061e-05
4.04274e-05
-9.71261e-05
3.12233e-05
-9.84152e-05
2.22369e-05
-9.91871e-05
1.34278e-05
-9.94976e-05
4.84923e-06
-9.93551e-05
-3.6903e-06
-9.87488e-05
-1.2389e-05
-9.76308e-05
-2.11878e-05
-9.591e-05
-3.0162e-05
-9.34774e-05
-3.95402e-05
-9.01715e-05
-4.92671e-05
-8.58234e-05
-5.93346e-05
-8.02902e-05
-6.95889e-05
-7.30058e-05
-7.7838e-05
-6.36825e-05
-9.62445e-05
-5.43758e-05
-9.32962e-05
-4.00344e-05
-0.000117601
-2.8812e-05
-0.000111408
-1.21486e-05
-0.000122348
-9.59825e-05
-1.27574e-05
0.000105656
-3.20111e-05
0.000140502
-4.59169e-05
0.000123618
-6.1263e-05
0.000131592
-7.17526e-05
0.000104192
-8.1397e-05
0.000104818
-8.90164e-05
8.65885e-05
-9.46664e-05
7.55456e-05
-9.89851e-05
6.42073e-05
-0.000102178
5.3173e-05
-0.000104468
4.27173e-05
-0.00010609
3.28458e-05
-0.000107164
2.3311e-05
-0.000107817
1.40809e-05
-0.0001081
5.13141e-06
-0.00010802
-3.7697e-06
-0.000107566
-1.28437e-05
-0.000106679
-2.20739e-05
-0.000105264
-3.15779e-05
-0.000103188
-4.16156e-05
-0.000100243
-5.22123e-05
-9.61913e-05
-6.33863e-05
-9.07899e-05
-7.49903e-05
-8.33007e-05
-8.53272e-05
-7.34453e-05
-0.0001061
-6.30785e-05
-0.000103663
-4.70261e-05
-0.000133653
-3.32243e-05
-0.00012521
-1.36512e-05
-0.000141921
-0.000109634
-1.60432e-05
0.000121699
-3.87055e-05
0.000163164
-5.46574e-05
0.00013957
-7.19632e-05
0.000148898
-8.33714e-05
0.0001156
-9.32402e-05
0.000114686
-0.000100788
9.41365e-05
-0.000106106
8.08638e-05
-0.000109929
6.80303e-05
-0.000112607
5.5851e-05
-0.000114424
4.45338e-05
-0.00011563
3.40517e-05
-0.000116398
2.40796e-05
-0.000116856
1.45386e-05
-0.000117063
5.33809e-06
-0.000117051
-3.78145e-06
-0.000116807
-1.30875e-05
-0.00011626
-2.26208e-05
-0.0001153
-3.25378e-05
-0.000113773
-4.31429e-05
-0.000111422
-5.45631e-05
-0.000107934
-6.68742e-05
-0.000102955
-7.99701e-05
-9.55805e-05
-9.27013e-05
-8.55485e-05
-0.000116132
-7.44855e-05
-0.000114726
-5.64836e-05
-0.000151655
-4.06326e-05
-0.000141061
-1.61739e-05
-0.00016638
-0.000125808
-2.03438e-05
0.000142043
-4.74959e-05
0.000190316
-6.61749e-05
0.000158249
-8.55482e-05
0.000168271
-9.76951e-05
0.000127747
-0.000107424
0.000124415
-0.000114488
0.0001012
-0.000119083
8.54597e-05
-0.000122063
7.10101e-05
-0.000123923
5.77106e-05
-0.000125017
4.56275e-05
-0.000125603
3.46385e-05
-0.000125936
2.44123e-05
-0.00012614
1.47421e-05
-0.000126254
5.45244e-06
-0.000126327
-3.70894e-06
-0.000126358
-1.30559e-05
-0.000126278
-2.27013e-05
-0.000125947
-3.28688e-05
-0.000125191
-4.38988e-05
-0.000123724
-5.603e-05
-0.000121171
-6.94269e-05
-0.000117059
-8.40824e-05
-0.000110283
-9.94772e-05
-0.000100527
-0.000125888
-8.88252e-05
-0.000126428
-6.85243e-05
-0.000171956
-4.96514e-05
-0.000159934
-2.09495e-05
-0.000195081
-0.000146757
-2.63223e-05
0.000168365
-5.97386e-05
0.000223732
-8.1765e-05
0.000180275
-0.000103045
0.000189551
-0.000115484
0.000140186
-0.000124407
0.000133338
-0.000130394
0.000107187
-0.000133709
8.87748e-05
-0.00013535
7.26511e-05
-0.000135992
5.83524e-05
-0.000136084
4.572e-05
-0.00013589
3.44441e-05
-0.000135658
2.41808e-05
-0.000135508
1.45916e-05
-0.000135494
5.43821e-06
-0.000135655
-3.54717e-06
-0.000136043
-1.26681e-05
-0.000136559
-2.21854e-05
-0.000137048
-3.238e-05
-0.000137328
-4.36183e-05
-0.000137117
-5.62413e-05
-0.000135995
-7.05494e-05
-0.000133366
-8.67112e-05
-0.000127889
-0.000104953
-0.000119198
-0.000134579
-0.000107415
-0.000138211
-8.52108e-05
-0.000194161
-6.30914e-05
-0.000182053
-2.77131e-05
-0.00023046
-0.00017447
-3.53624e-05
0.000203727
-7.72968e-05
0.000265667
-0.000103285
0.000206263
-0.000125942
0.000212208
-0.000137863
0.000152107
-0.000144799
0.000140274
-0.000148705
0.000111093
-0.000149951
9.00207e-05
-0.000149692
7.23922e-05
-0.000148702
5.73625e-05
-0.000147448
4.4466e-05
-0.000146243
3.32389e-05
-0.000145293
2.3231e-05
-0.00014471
1.40079e-05
-0.000144537
5.26585e-06
-0.000144833
-3.25158e-06
-0.000145636
-1.18647e-05
-0.000146856
-2.09656e-05
-0.000148355
-3.08808e-05
-0.000149981
-4.19929e-05
-0.000151475
-5.47469e-05
-0.000152412
-6.9613e-05
-0.000152047
-8.70758e-05
-0.000148871
-0.000108129
-0.000142599
-0.000140851
-0.000131839
-0.000148971
-0.000108589
-0.000217411
-8.25687e-05
-0.000208074
-3.81409e-05
-0.000274887
-0.000212611
-5.02907e-05
0.000254018
-0.000103529
0.000318905
-0.00013366
0.000236395
-0.00015619
0.000234738
-0.000166019
0.000161935
-0.000169177
0.000143433
-0.000169592
0.000111509
-0.000167713
8.81414e-05
-0.00016482
6.94996e-05
-0.000161703
5.42448e-05
-0.000158793
4.15566e-05
-0.000156358
3.08034e-05
-0.000154552
2.14249e-05
-0.00015346
1.29161e-05
-0.000153112
4.91775e-06
-0.000153567
-2.79657e-06
-0.000154831
-1.0601e-05
-0.00015683
-1.89664e-05
-0.00015952
-2.81908e-05
-0.000162814
-3.86991e-05
-0.000166519
-5.10412e-05
-0.00017018
-6.5953e-05
-0.000173058
-8.41974e-05
-0.000173717
-0.00010747
-0.000172103
-0.000142466
-0.000164245
-0.000156829
-0.000141926
-0.000239729
-0.000112247
-0.000237753
-5.58459e-05
-0.000331289
-0.000268457
-7.73533e-05
0.000331371
-0.00014466
0.000386211
-0.000177377
0.000269113
-0.000196137
0.000253497
-0.000201062
0.000166861
-0.000197774
0.000140144
-0.000192724
0.000106459
-0.000186448
8.18655e-05
-0.000180148
6.31998e-05
-0.00017442
4.85172e-05
-0.000169555
3.66909e-05
-0.000165714
2.69632e-05
-0.000162963
1.86735e-05
-0.000161318
1.12714e-05
-0.000160793
4.39259e-06
-0.000161421
-2.16847e-06
-0.000163138
-8.88438e-06
-0.000165973
-1.61316e-05
-0.000170006
-2.41578e-05
-0.000175236
-3.34689e-05
-0.00018152
-4.47566e-05
-0.000188589
-5.88839e-05
-0.00019593
-7.68565e-05
-0.000202537
-0.000100863
-0.000208696
-0.000136307
-0.000206791
-0.000158734
-0.000189673
-0.000256847
-0.000159117
-0.000268308
-8.83446e-05
-0.000402061
-0.000356801
-0.000130464
0.000461835
-0.000211091
0.000466838
-0.00023968
0.000297702
-0.000246887
0.000260704
-0.000242046
0.00016202
-0.000228255
0.000126354
-0.000215478
9.36816e-05
-0.000203529
6.99163e-05
-0.000193068
5.27393e-05
-0.000184323
3.9772e-05
-0.000177331
2.96987e-05
-0.000172048
2.16801e-05
-0.000168337
1.49631e-05
-0.000166138
9.07205e-06
-0.000165435
3.6894e-06
-0.000166138
-1.46519e-06
-0.000168263
-6.75947e-06
-0.000172003
-1.23913e-05
-0.000177409
-1.87519e-05
-0.000184522
-2.63565e-05
-0.000193599
-3.56798e-05
-0.000204826
-4.7657e-05
-0.000217882
-6.38004e-05
-0.000232213
-8.65314e-05
-0.000250209
-0.000118311
-0.000259907
-0.000149036
-0.000257718
-0.000259036
-0.000234549
-0.000291477
-0.000150126
-0.000486485
-0.000506927
-0.000230741
0.000692576
-0.000305283
0.00054138
-0.000308452
0.00030087
-0.000288936
0.000241189
-0.000266116
0.0001392
-0.000235406
9.56428e-05
-0.000213259
7.15354e-05
-0.00019458
5.1237e-05
-0.000179433
3.75926e-05
-0.00016752
2.78586e-05
-0.000158423
2.06021e-05
-0.000151732
1.49891e-05
-0.000147136
1.03671e-05
-0.000144368
6.30334e-06
-0.000143371
2.69298e-06
-0.000144081
-7.55669e-07
-0.000146638
-4.20216e-06
-0.000150947
-8.08216e-06
-0.000157401
-1.22977e-05
-0.000166452
-1.73059e-05
-0.000178245
-2.38865e-05
-0.00019336
-3.25422e-05
-0.000212517
-4.46432e-05
-0.000235109
-6.394e-05
-0.000271132
-8.22878e-05
-0.000298639
-0.000121528
-0.000325783
-0.000231893
-0.000331165
-0.000286095
-0.000251828
-0.000565822
-0.000758756
-0.000280732
0.000973308
-0.000266135
0.000526783
-0.000157428
0.000192163
-0.000110659
0.00019442
-3.53752e-05
6.39161e-05
4.70243e-06
5.55651e-05
4.146e-05
3.47779e-05
6.79748e-05
2.47222e-05
8.748e-05
1.80874e-05
0.00010215
1.31884e-05
0.000113153
9.5994e-06
0.000121108
7.03411e-06
0.000126494
4.98139e-06
0.000129773
3.02415e-06
0.000131158
1.30802e-06
0.000130527
-1.25061e-07
0.000128074
-1.74943e-06
0.000123514
-3.52195e-06
0.000116497
-5.2804e-06
0.000106765
-7.57375e-06
9.35075e-05
-1.06293e-05
7.53661e-05
-1.44008e-05
5.05548e-05
-1.9832e-05
1.44623e-05
-2.78474e-05
-1.82213e-05
-4.96043e-05
-9.60572e-05
-4.36924e-05
-0.000138735
-0.000189214
-0.000250122
-0.000174708
-0.000238865
-0.000577079
-0.000997621
0.000973308
0.00150009
0.00169225
0.00188667
0.00195059
0.00200616
0.00204093
0.00206566
0.00208374
0.00209693
0.00210653
0.00211356
0.00211855
0.00212157
0.00212288
0.00212275
0.002121
0.00211748
0.0021122
0.00210463
0.002094
0.0020796
0.00205977
0.00203192
0.00198231
0.00193862
0.00174941
0.0015747
0.000997621
)
;

boundaryField
{
    movingWall
    {
        type            calculated;
        value           uniform 0;
    }
    fixedWalls
    {
        type            calculated;
        value           uniform 0;
    }
    frontAndBack
    {
        type            empty;
        value           nonuniform 0();
    }
}


// ************************************************************************* //
