/*--------------------------------*- C++ -*----------------------------------*\
  =========                 |
  \\      /  F ield         | OpenFOAM: The Open Source CFD Toolbox
   \\    /   O peration     | Website:  https://openfoam.org
    \\  /    A nd           | Version:  7
     \\/     M anipulation  |
\*---------------------------------------------------------------------------*/
FoamFile
{
    version     2.0;
    format      ascii;
    class       volVectorField;
    location    "0.1";
    object      U;
}
// * * * * * * * * * * * * * * * * * * * * * * * * * * * * * * * * * * * * * //

dimensions      [0 1 -1 0 0 0 0];

internalField   nonuniform List<vector> 
900
(
(0.0261238 0.00170726 0)
(-0.0270072 -0.00270398 0)
(0.0219895 0.00202543 0)
(-0.0188449 -0.00124918 0)
(0.01027 0.00089367 0)
(-0.00943568 -0.000205822 0)
(0.00165415 0.000237723 0)
(-0.00419202 0.00011336 0)
(-0.00286547 0.000123073 0)
(-0.00319655 0.000111804 0)
(-0.00341228 8.2114e-05 0)
(-0.00360127 7.62586e-05 0)
(-0.00373121 6.66999e-05 0)
(-0.00379141 2.56065e-05 0)
(-0.0038642 1.84296e-06 0)
(-0.00387556 -4.0921e-06 0)
(-0.0037961 -2.67667e-05 0)
(-0.00371656 -5.7517e-05 0)
(-0.00362275 -7.36275e-05 0)
(-0.00344698 -8.38607e-05 0)
(-0.00318886 -0.00010452 0)
(-0.00268702 -0.000121274 0)
(-0.00486512 -8.22217e-05 0)
(0.00272763 -0.000306007 0)
(-0.0110375 0.000333044 0)
(0.0128124 -0.00112819 0)
(-0.0224693 0.00147645 0)
(0.0267326 -0.00255047 0)
(-0.0320558 0.00308486 0)
(0.0314699 -0.00185175 0)
(0.0469999 0.00292115 0)
(-0.0420068 -0.00342093 0)
(0.0318847 0.00360583 0)
(-0.0254252 -0.00146643 0)
(0.0132225 0.0018031 0)
(-0.0119702 7.51598e-06 0)
(0.00178728 0.000678849 0)
(-0.00522237 0.000443386 0)
(-0.00373197 0.00041031 0)
(-0.0041699 0.000374206 0)
(-0.00443467 0.000313039 0)
(-0.00464801 0.000235439 0)
(-0.00484303 0.000180478 0)
(-0.00493766 0.000110538 0)
(-0.00499816 2.90724e-05 0)
(-0.00501236 -3.66564e-05 0)
(-0.00493763 -9.86646e-05 0)
(-0.00482571 -0.000167535 0)
(-0.0046788 -0.000233557 0)
(-0.00446203 -0.000300107 0)
(-0.00415547 -0.000370415 0)
(-0.00352826 -0.000422132 0)
(-0.00604129 -0.00038979 0)
(0.00316688 -0.000787616 0)
(-0.0139945 0.000186542 0)
(0.0166379 -0.00215155 0)
(-0.0305945 0.00189028 0)
(0.0387172 -0.00428533 0)
(-0.0506392 0.0041071 0)
(0.056368 -0.00303313 0)
(0.0491546 0.00202873 0)
(-0.0438876 -0.000731647 0)
(0.0331953 0.00281654 0)
(-0.0265438 3.46951e-05 0)
(0.0137946 0.00183088 0)
(-0.0125671 0.00073822 0)
(0.00184916 0.00105064 0)
(-0.00547244 0.000878525 0)
(-0.00389744 0.000774866 0)
(-0.00432306 0.000651379 0)
(-0.00463772 0.000564807 0)
(-0.0048751 0.000450679 0)
(-0.00502718 0.000317241 0)
(-0.0051343 0.000190117 0)
(-0.00523501 6.00737e-05 0)
(-0.0052304 -6.29441e-05 0)
(-0.00512513 -0.000178149 0)
(-0.00502367 -0.000302261 0)
(-0.0048974 -0.000436072 0)
(-0.00467214 -0.000560161 0)
(-0.00433254 -0.000666309 0)
(-0.00365899 -0.000761445 0)
(-0.00631637 -0.000829612 0)
(0.00328678 -0.0011239 0)
(-0.0146918 -0.000631623 0)
(0.017365 -0.00203048 0)
(-0.0319242 0.000200865 0)
(0.040358 -0.00317172 0)
(-0.0528366 0.000994453 0)
(0.0589843 -0.00217723 0)
(0.0485133 0.00190504 0)
(-0.0439954 0.000764948 0)
(0.0334304 0.00261286 0)
(-0.0269415 0.00103198 0)
(0.0140272 0.00199087 0)
(-0.0129092 0.00137026 0)
(0.00186826 0.0014186 0)
(-0.00559402 0.00128093 0)
(-0.00405879 0.0011288 0)
(-0.00448545 0.000974401 0)
(-0.00474631 0.000821504 0)
(-0.00501147 0.000657644 0)
(-0.0052213 0.000462367 0)
(-0.00531537 0.000266488 0)
(-0.00537573 9.59244e-05 0)
(-0.00537502 -7.37805e-05 0)
(-0.00529853 -0.000265861 0)
(-0.00520257 -0.000463534 0)
(-0.00505186 -0.000644535 0)
(-0.00480211 -0.000804775 0)
(-0.00446132 -0.00095889 0)
(-0.00379068 -0.00111304 0)
(-0.00649978 -0.00127597 0)
(0.00332536 -0.00145584 0)
(-0.0150643 -0.0012954 0)
(0.0176563 -0.00212181 0)
(-0.0323619 -0.000912347 0)
(0.0406732 -0.00279705 0)
(-0.0528147 -0.000635249 0)
(0.0582991 -0.00195177 0)
(0.0480529 0.00208301 0)
(-0.0439363 0.00181768 0)
(0.0334435 0.00274936 0)
(-0.0272166 0.00190188 0)
(0.0141336 0.0023391 0)
(-0.0131495 0.00196433 0)
(0.00175566 0.00180365 0)
(-0.00576836 0.00171022 0)
(-0.00421028 0.00149615 0)
(-0.00463717 0.00131534 0)
(-0.00496175 0.00109063 0)
(-0.00524187 0.000842111 0)
(-0.00542602 0.000603586 0)
(-0.00550875 0.000375993 0)
(-0.00558366 0.000140405 0)
(-0.00560048 -0.000111004 0)
(-0.00552298 -0.000368145 0)
(-0.00541023 -0.000611099 0)
(-0.00524613 -0.000837207 0)
(-0.00499353 -0.00106318 0)
(-0.00464752 -0.00128736 0)
(-0.00398249 -0.00149202 0)
(-0.00666438 -0.00173127 0)
(0.00326427 -0.00182094 0)
(-0.0153641 -0.00193743 0)
(0.0177636 -0.00241185 0)
(-0.0326192 -0.00183913 0)
(0.0407358 -0.0028762 0)
(-0.0526969 -0.00178173 0)
(0.0577405 -0.00207781 0)
(0.0477924 0.0024254 0)
(-0.0439315 0.00268126 0)
(0.033457 0.00312912 0)
(-0.027364 0.00266007 0)
(0.0140882 0.00278427 0)
(-0.013446 0.00254712 0)
(0.00161461 0.00222512 0)
(-0.00590189 0.00217954 0)
(-0.00445364 0.00190088 0)
(-0.00489103 0.00162998 0)
(-0.00521965 0.00135082 0)
(-0.00549865 0.00106831 0)
(-0.00568754 0.000775874 0)
(-0.0057787 0.000476641 0)
(-0.00586291 0.00016871 0)
(-0.00588375 -0.000146108 0)
(-0.0057988 -0.000460452 0)
(-0.0056718 -0.000759103 0)
(-0.00550407 -0.00104611 0)
(-0.00525235 -0.00133842 0)
(-0.00489024 -0.00162236 0)
(-0.00423478 -0.00187948 0)
(-0.00682823 -0.00219355 0)
(0.00311881 -0.00223081 0)
(-0.0156536 -0.0025604 0)
(0.0177579 -0.00282837 0)
(-0.0328178 -0.00264299 0)
(0.0407038 -0.00321237 0)
(-0.0526524 -0.00267455 0)
(0.0574577 -0.00238113 0)
(0.0476788 0.00288827 0)
(-0.0439455 0.00345342 0)
(0.0333558 0.00365 0)
(-0.0275698 0.00334148 0)
(0.0140203 0.003281 0)
(-0.0137101 0.00316352 0)
(0.0013887 0.0027063 0)
(-0.00609292 0.00263574 0)
(-0.00475971 0.0022933 0)
(-0.00518717 0.00197586 0)
(-0.00552338 0.00164778 0)
(-0.00581678 0.00130198 0)
(-0.00601763 0.000941433 0)
(-0.00611587 0.000573562 0)
(-0.00620638 0.000199834 0)
(-0.00622961 -0.000178684 0)
(-0.00613593 -0.000554348 0)
(-0.00599587 -0.000918981 0)
(-0.00582542 -0.00127545 0)
(-0.00556974 -0.00162885 0)
(-0.00518855 -0.00196659 0)
(-0.00455382 -0.00228445 0)
(-0.00701512 -0.00266614 0)
(0.00289669 -0.00267718 0)
(-0.0159601 -0.00318372 0)
(0.0176811 -0.00334018 0)
(-0.0330019 -0.0033861 0)
(0.0406309 -0.00371492 0)
(-0.0526652 -0.00345343 0)
(0.0573181 -0.0027914 0)
(0.0476203 0.00340834 0)
(-0.0439809 0.00415739 0)
(0.0332785 0.00423388 0)
(-0.0277405 0.00404295 0)
(0.0139111 0.00386798 0)
(-0.0140218 0.00378644 0)
(0.00108755 0.0032055 0)
(-0.00631539 0.00311872 0)
(-0.00511341 0.00272523 0)
(-0.00553653 0.00235372 0)
(-0.00589353 0.0019589 0)
(-0.006205 0.0015412 0)
(-0.00641593 0.00111319 0)
(-0.00652028 0.000677008 0)
(-0.00661516 0.000233383 0)
(-0.00663793 -0.000211163 0)
(-0.00653908 -0.000649907 0)
(-0.0063929 -0.00108753 0)
(-0.00621395 -0.00152101 0)
(-0.0059435 -0.00193705 0)
(-0.00554584 -0.00233192 0)
(-0.00493452 -0.0027143 0)
(-0.0072203 -0.0031623 0)
(0.00260026 -0.00316635 0)
(-0.0163149 -0.00381754 0)
(0.017554 -0.00391851 0)
(-0.0331971 -0.00410681 0)
(0.0405299 -0.00432985 0)
(-0.052718 -0.0042039 0)
(0.0572398 -0.00328108 0)
(0.0476005 0.00395624 0)
(-0.0440218 0.00492134 0)
(0.0331788 0.00493587 0)
(-0.027939 0.00475893 0)
(0.0137651 0.00447333 0)
(-0.0143739 0.00446641 0)
(0.000721963 0.00376247 0)
(-0.00657377 0.00364149 0)
(-0.00552461 0.00319001 0)
(-0.00595349 0.00275007 0)
(-0.00633591 0.00228215 0)
(-0.00666249 0.00179321 0)
(-0.0068818 0.00129804 0)
(-0.00699566 0.000791277 0)
(-0.00709456 0.000270925 0)
(-0.0071129 -0.000246463 0)
(-0.00701228 -0.000754952 0)
(-0.00686699 -0.0012673 0)
(-0.00667497 -0.00177625 0)
(-0.00638065 -0.00225591 0)
(-0.00596581 -0.00271798 0)
(-0.00538442 -0.00316762 0)
(-0.00746639 -0.00368742 0)
(0.0022403 -0.00371171 0)
(-0.0167103 -0.00448203 0)
(0.0173891 -0.00455675 0)
(-0.0334212 -0.00483973 0)
(0.0404001 -0.00502674 0)
(-0.0528006 -0.00496929 0)
(0.0571855 -0.00384284 0)
(0.0475795 0.00455477 0)
(-0.0440969 0.00573176 0)
(0.0330296 0.00571406 0)
(-0.028209 0.00552071 0)
(0.0136204 0.005123 0)
(-0.0147343 0.00521406 0)
(0.000263826 0.00436915 0)
(-0.00688851 0.00419871 0)
(-0.00600472 0.00368175 0)
(-0.00644438 0.00316581 0)
(-0.00685041 0.00262262 0)
(-0.00718912 0.00205994 0)
(-0.00741784 0.00149301 0)
(-0.00754738 0.00091205 0)
(-0.00765292 0.000313237 0)
(-0.0076638 -0.000281179 0)
(-0.0075599 -0.000865628 0)
(-0.00741421 -0.00145611 0)
(-0.00720259 -0.00204453 0)
(-0.00688524 -0.00259996 0)
(-0.00645756 -0.00313715 0)
(-0.00590418 -0.00365283 0)
(-0.00776347 -0.00423744 0)
(0.00180425 -0.00430338 0)
(-0.0171578 -0.00519579 0)
(0.0171927 -0.00524985 0)
(-0.033677 -0.00560868 0)
(0.0402461 -0.00579531 0)
(-0.0529034 -0.00577674 0)
(0.0571418 -0.00447799 0)
(0.0475473 0.00521219 0)
(-0.0442029 0.00660288 0)
(0.0328479 0.00657247 0)
(-0.0285405 0.00636704 0)
(0.0134605 0.00585215 0)
(-0.0151296 0.00600366 0)
(-0.000291938 0.00501174 0)
(-0.00726193 0.00478966 0)
(-0.0065574 0.00420457 0)
(-0.00701261 0.00361001 0)
(-0.00744179 0.00298915 0)
(-0.0077921 0.00234658 0)
(-0.00802966 0.0016983 0)
(-0.00817542 0.00103552 0)
(-0.0082878 0.000355333 0)
(-0.00829175 -0.00031949 0)
(-0.00818721 -0.00098801 0)
(-0.00804592 -0.00165768 0)
(-0.00781885 -0.00231758 0)
(-0.00747328 -0.00295877 0)
(-0.00701869 -0.00358609 0)
(-0.00648494 -0.00418036 0)
(-0.00811588 -0.00483083 0)
(0.0012802 -0.00495492 0)
(-0.0176544 -0.00599493 0)
(0.0169721 -0.00596399 0)
(-0.0339774 -0.00642463 0)
(0.0400647 -0.00663915 0)
(-0.0530208 -0.00664978 0)
(0.0571054 -0.00518897 0)
(0.0475079 0.00593975 0)
(-0.0443297 0.00756528 0)
(0.0326408 0.00752995 0)
(-0.0289437 0.00731285 0)
(0.0132592 0.00664841 0)
(-0.0155769 0.00683794 0)
(-0.000948417 0.00569891 0)
(-0.00769653 0.00541729 0)
(-0.00718427 0.0047585 0)
(-0.0076598 0.00407993 0)
(-0.00811385 0.0033776 0)
(-0.00847997 0.00265127 0)
(-0.00872887 0.00191496 0)
(-0.00889033 0.00116383 0)
(-0.00900793 0.00040084 0)
(-0.00900711 -0.000354101 0)
(-0.00889808 -0.00111422 0)
(-0.00874382 -0.00187679 0)
(-0.00850371 -0.00260971 0)
(-0.00815376 -0.00333166 0)
(-0.00767916 -0.00405194 0)
(-0.00714915 -0.00474166 0)
(-0.00853683 -0.00546731 0)
(0.000637999 -0.00565692 0)
(-0.0181642 -0.00687753 0)
(0.0167583 -0.00672228 0)
(-0.0343629 -0.00732212 0)
(0.0398448 -0.00757478 0)
(-0.0531546 -0.00761039 0)
(0.0570735 -0.00597697 0)
(0.0474638 0.00675382 0)
(-0.044479 0.00863598 0)
(0.0324062 0.00859574 0)
(-0.0294408 0.00838556 0)
(0.0129881 0.00749373 0)
(-0.0160819 0.00772638 0)
(-0.00171045 0.00644559 0)
(-0.00820329 0.00609131 0)
(-0.00789466 0.00534924 0)
(-0.0083935 0.00457625 0)
(-0.00887047 0.00378415 0)
(-0.00925474 0.00297134 0)
(-0.00951706 0.00214511 0)
(-0.00968952 0.00129969 0)
(-0.00980573 0.000448155 0)
(-0.00980679 -0.000387564 0)
(-0.00970989 -0.0012347 0)
(-0.00954144 -0.00209699 0)
(-0.00927374 -0.00292784 0)
(-0.00891552 -0.00374196 0)
(-0.0084287 -0.00454802 0)
(-0.00790054 -0.00533227 0)
(-0.00902979 -0.00613974 0)
(-0.000132599 -0.0063989 0)
(-0.0187167 -0.00780956 0)
(0.0165221 -0.00757191 0)
(-0.0348405 -0.00834053 0)
(0.0395898 -0.00862362 0)
(-0.053309 -0.00868123 0)
(0.0570416 -0.00684794 0)
(0.0474164 0.00766826 0)
(-0.0446525 0.00982336 0)
(0.0321619 0.00976835 0)
(-0.0300693 0.00961005 0)
(0.0126031 0.0083856 0)
(-0.0166284 0.00868873 0)
(-0.00258097 0.0072647 0)
(-0.00879394 0.00682002 0)
(-0.00869924 0.00598471 0)
(-0.00922488 0.0051065 0)
(-0.00971878 0.00421106 0)
(-0.010119 0.00330393 0)
(-0.0104005 0.0023869 0)
(-0.0105873 0.0014454 0)
(-0.0106952 0.000497211 0)
(-0.0106899 -0.000431878 0)
(-0.0106075 -0.00136835 0)
(-0.010437 -0.00231879 0)
(-0.0101487 -0.00324996 0)
(-0.00977395 -0.00417263 0)
(-0.00926948 -0.00507653 0)
(-0.00874108 -0.00596087 0)
(-0.00960193 -0.00685789 0)
(-0.00103493 -0.00719776 0)
(-0.0193335 -0.00879572 0)
(0.016221 -0.00850276 0)
(-0.0354256 -0.00950589 0)
(0.0393006 -0.00980435 0)
(-0.0534911 -0.0098842 0)
(0.0570053 -0.0078149 0)
(0.0473638 0.0086964 0)
(-0.0448596 0.0111425 0)
(0.0319259 0.0110323 0)
(-0.0308517 0.0109284 0)
(0.0120707 0.00941915 0)
(-0.0172068 0.00976288 0)
(-0.00357622 0.00816159 0)
(-0.00948443 0.00759907 0)
(-0.00960814 0.00665807 0)
(-0.0101671 0.00566826 0)
(-0.010673 0.00465846 0)
(-0.0110789 0.00364487 0)
(-0.0113756 0.0026318 0)
(-0.0115792 0.00159699 0)
(-0.011683 0.000556311 0)
(-0.0116723 -0.000472308 0)
(-0.0115968 -0.00151097 0)
(-0.0114231 -0.00255279 0)
(-0.0111276 -0.00358012 0)
(-0.0107421 -0.00461377 0)
(-0.0102169 -0.00562888 0)
(-0.00968209 -0.00662685 0)
(-0.010265 -0.00762672 0)
(-0.00207415 -0.00806659 0)
(-0.0200171 -0.00985039 0)
(0.0158043 -0.00946127 0)
(-0.0361541 -0.0108883 0)
(0.0389835 -0.0111324 0)
(-0.0537065 -0.0112383 0)
(0.0569621 -0.00889506 0)
(0.0473003 0.00985884 0)
(-0.045136 0.0126292 0)
(0.0316431 0.0124193 0)
(-0.031715 0.0124156 0)
(0.011442 0.0105747 0)
(-0.0178908 0.010942 0)
(-0.00474136 0.00913703 0)
(-0.0102987 0.00842448 0)
(-0.01063 0.00735848 0)
(-0.0112245 0.00625222 0)
(-0.0117421 0.00512585 0)
(-0.0121456 0.00399798 0)
(-0.0124484 0.00287961 0)
(-0.0126628 0.00174717 0)
(-0.0127645 0.000617402 0)
(-0.0127572 -0.00050711 0)
(-0.0126881 -0.00165042 0)
(-0.0125062 -0.00279203 0)
(-0.0122097 -0.0039204 0)
(-0.0118227 -0.00506484 0)
(-0.0112826 -0.00619893 0)
(-0.0107391 -0.00732453 0)
(-0.0110398 -0.00844631 0)
(-0.00326302 -0.00902048 0)
(-0.0207226 -0.0110276 0)
(0.0151735 -0.010561 0)
(-0.0371104 -0.012411 0)
(0.0386921 -0.0125799 0)
(-0.0539619 -0.0127604 0)
(0.0569094 -0.0101102 0)
(0.0472266 0.0111889 0)
(-0.0454966 0.0143289 0)
(0.0313666 0.0138901 0)
(-0.0327337 0.0141524 0)
(0.0106023 0.01186 0)
(-0.0186506 0.0122254 0)
(-0.00608982 0.0101986 0)
(-0.0112642 0.009301 0)
(-0.0117804 0.00808404 0)
(-0.0123997 0.00684848 0)
(-0.0129273 0.00560489 0)
(-0.0133251 0.00436198 0)
(-0.0136264 0.00313238 0)
(-0.0138414 0.00189544 0)
(-0.0139373 0.000674888 0)
(-0.0139402 -0.000541257 0)
(-0.0138818 -0.00178272 0)
(-0.0136931 -0.0030248 0)
(-0.0134004 -0.00426035 0)
(-0.0130206 -0.00552069 0)
(-0.0124767 -0.00678283 0)
(-0.0119296 -0.00804956 0)
(-0.0119589 -0.00931337 0)
(-0.00466059 -0.0100604 0)
(-0.0215508 -0.0123301 0)
(0.0144096 -0.0118216 0)
(-0.038188 -0.0141077 0)
(0.0383402 -0.0141581 0)
(-0.0543106 -0.0144894 0)
(0.0568414 -0.0114925 0)
(0.0471413 0.0127339 0)
(-0.0460606 0.0163665 0)
(0.0310758 0.0154641 0)
(-0.0337879 0.0160836 0)
(0.00952121 0.0132737 0)
(-0.0195603 0.0136099 0)
(-0.00766129 0.0113417 0)
(-0.0124145 0.0102274 0)
(-0.0130826 0.00883673 0)
(-0.0137036 0.00744766 0)
(-0.0142286 0.00607723 0)
(-0.0146181 0.00472051 0)
(-0.0149149 0.00338108 0)
(-0.0151203 0.00204066 0)
(-0.0152012 0.000726945 0)
(-0.0152149 -0.000577969 0)
(-0.0151717 -0.00190772 0)
(-0.0149838 -0.00324229 0)
(-0.0147056 -0.00458446 0)
(-0.0143452 -0.00596692 0)
(-0.0138115 -0.00736943 0)
(-0.0132697 -0.00879228 0)
(-0.0130485 -0.0102179 0)
(-0.00628577 -0.0111793 0)
(-0.0224754 -0.0137408 0)
(0.0133826 -0.0132184 0)
(-0.0394633 -0.0161097 0)
(0.0379761 -0.015827 0)
(-0.0547852 -0.0164948 0)
(0.0567617 -0.0130881 0)
(0.0471166 0.0145074 0)
(-0.0468747 0.0188273 0)
(0.0306449 0.0172767 0)
(-0.0349729 0.0182234 0)
(0.00813714 0.0147879 0)
(-0.0205924 0.0150805 0)
(-0.00946726 0.0125443 0)
(-0.0137705 0.011181 0)
(-0.0145602 0.00960411 0)
(-0.0151592 0.0080379 0)
(-0.0156544 0.00652369 0)
(-0.0160212 0.00505176 0)
(-0.0163063 0.00360773 0)
(-0.0164956 0.00217894 0)
(-0.0165559 0.000781653 0)
(-0.0165749 -0.0006067 0)
(-0.0165462 -0.00201783 0)
(-0.0163698 -0.00343843 0)
(-0.0161251 -0.00488301 0)
(-0.0158056 -0.00638914 0)
(-0.0153021 -0.00794111 0)
(-0.0147781 -0.009534 0)
(-0.0143437 -0.0111425 0)
(-0.00819035 -0.0123663 0)
(-0.0235789 -0.0152547 0)
(0.0120245 -0.0147522 0)
(-0.0408146 -0.0183721 0)
(0.0375735 -0.0175975 0)
(-0.0555392 -0.0189611 0)
(0.0566787 -0.0149539 0)
(0.0472104 0.0165048 0)
(-0.0479485 0.0217546 0)
(0.0299814 0.0194036 0)
(-0.0363319 0.020631 0)
(0.00639038 0.0164759 0)
(-0.0218158 0.0166494 0)
(-0.011555 0.0137875 0)
(-0.015356 0.0121261 0)
(-0.0162258 0.0103525 0)
(-0.016784 0.00860276 0)
(-0.0172147 0.00693549 0)
(-0.0175341 0.0053488 0)
(-0.0177878 0.00380301 0)
(-0.0179464 0.00229624 0)
(-0.0179868 0.000831959 0)
(-0.0180145 -0.000624489 0)
(-0.0180034 -0.00210586 0)
(-0.017849 -0.0036059 0)
(-0.0176563 -0.00514604 0)
(-0.0174033 -0.00676969 0)
(-0.0169564 -0.00847046 0)
(-0.0164711 -0.010242 0)
(-0.0158785 -0.0120571 0)
(-0.0104059 -0.0135961 0)
(-0.0248468 -0.0168517 0)
(0.0102453 -0.0163919 0)
(-0.0423272 -0.0209058 0)
(0.0369491 -0.0196806 0)
(-0.0566696 -0.0219685 0)
(0.0567055 -0.0170926 0)
(0.0475219 0.0188907 0)
(-0.0492701 0.0252322 0)
(0.0289738 0.0218782 0)
(-0.0379632 0.0233491 0)
(0.00417122 0.0183151 0)
(-0.0232956 0.0182907 0)
(-0.0139839 0.015053 0)
(-0.0172068 0.0130362 0)
(-0.0180837 0.0110388 0)
(-0.0185762 0.00910656 0)
(-0.0189083 0.00728357 0)
(-0.0191537 0.00558318 0)
(-0.0193589 0.00395245 0)
(-0.0194666 0.00238495 0)
(-0.0194766 0.000872519 0)
(-0.0195128 -0.000630173 0)
(-0.0195276 -0.00216226 0)
(-0.01941 -0.00372831 0)
(-0.0192889 -0.00535176 0)
(-0.01913 -0.00707879 0)
(-0.0187744 -0.00891764 0)
(-0.0183647 -0.0108714 0)
(-0.0176957 -0.0129206 0)
(-0.012994 -0.0148353 0)
(-0.0263563 -0.0185169 0)
(0.00794431 -0.0181873 0)
(-0.0441225 -0.0237469 0)
(0.0360077 -0.0221399 0)
(-0.058135 -0.0256122 0)
(0.0569099 -0.0195628 0)
(0.0480027 0.0219031 0)
(-0.0510016 0.0293697 0)
(0.0274893 0.0247547 0)
(-0.039967 0.0263902 0)
(0.00135283 0.0202755 0)
(-0.0250964 0.0199436 0)
(-0.016802 0.0162935 0)
(-0.0193712 0.0138728 0)
(-0.0201557 0.0116071 0)
(-0.0205392 0.0094902 0)
(-0.020738 0.00753335 0)
(-0.0208652 0.00573247 0)
(-0.0209861 0.00404198 0)
(-0.0210263 0.00244017 0)
(-0.0210019 0.000902465 0)
(-0.0210494 -0.000621985 0)
(-0.0211016 -0.00217865 0)
(-0.0210384 -0.00378686 0)
(-0.0210069 -0.00547069 0)
(-0.0209692 -0.00727729 0)
(-0.0207489 -0.00923647 0)
(-0.0204739 -0.0113725 0)
(-0.0198406 -0.013682 0)
(-0.0160126 -0.0160294 0)
(-0.0281759 -0.0201863 0)
(0.00498136 -0.0200955 0)
(-0.0462989 -0.0269325 0)
(0.0345017 -0.025011 0)
(-0.0600522 -0.0300069 0)
(0.0574251 -0.022634 0)
(0.0485905 0.0257578 0)
(-0.053336 0.0343901 0)
(0.0253225 0.0281481 0)
(-0.0425273 0.029776 0)
(-0.00224699 0.0223184 0)
(-0.0273003 0.0215076 0)
(-0.0200465 0.0174037 0)
(-0.021894 0.0145531 0)
(-0.0224667 0.0120006 0)
(-0.0226499 0.00969816 0)
(-0.0226659 0.00763583 0)
(-0.0226451 0.00577068 0)
(-0.0226513 0.00405571 0)
(-0.0226061 0.00244962 0)
(-0.0225388 0.000913036 0)
(-0.0225941 -0.00060312 0)
(-0.0226925 -0.00214973 0)
(-0.0227019 -0.00375993 0)
(-0.0227794 -0.00546365 0)
(-0.0228958 -0.00731591 0)
(-0.0228695 -0.00937354 0)
(-0.02281 -0.0116854 0)
(-0.022351 -0.0142661 0)
(-0.0195101 -0.0170804 0)
(-0.0303939 -0.0217438 0)
(0.00115384 -0.0220519 0)
(-0.0490542 -0.0304668 0)
(0.0322461 -0.0284229 0)
(-0.06268 -0.0353205 0)
(0.0581271 -0.0266431 0)
(0.0491865 0.0308344 0)
(-0.0565819 0.0406147 0)
(0.0221392 0.0321548 0)
(-0.0459002 0.0334662 0)
(-0.00687701 0.0243642 0)
(-0.0300391 0.0228398 0)
(-0.0237478 0.0182505 0)
(-0.0247748 0.0149593 0)
(-0.0250109 0.012132 0)
(-0.0249038 0.00967231 0)
(-0.0246653 0.00753573 0)
(-0.0244453 0.00565582 0)
(-0.0243071 0.00396744 0)
(-0.0241688 0.00239902 0)
(-0.0240546 0.000899678 0)
(-0.0241123 -0.000569905 0)
(-0.0242583 -0.00206165 0)
(-0.0243522 -0.0036198 0)
(-0.0245629 -0.00529157 0)
(-0.024879 -0.00714993 0)
(-0.0251182 -0.00927377 0)
(-0.0253662 -0.0117291 0)
(-0.0252342 -0.01455 0)
(-0.023503 -0.0178216 0)
(-0.0331118 -0.0229978 0)
(-0.0038 -0.0239452 0)
(-0.0526772 -0.0342896 0)
(0.0288138 -0.0324586 0)
(-0.0664496 -0.0419403 0)
(0.0589019 -0.0320473 0)
(0.0495482 0.0378512 0)
(-0.0613428 0.0484798 0)
(0.0173651 0.0368369 0)
(-0.0504498 0.0372846 0)
(-0.01282 0.0262287 0)
(-0.0334473 0.0237183 0)
(-0.0279168 0.018639 0)
(-0.0280115 0.0149309 0)
(-0.0277528 0.0118841 0)
(-0.0272449 0.00933765 0)
(-0.026681 0.00719254 0)
(-0.0262122 0.00536038 0)
(-0.0259068 0.00374951 0)
(-0.0256725 0.00226521 0)
(-0.0255064 0.000854139 0)
(-0.0255543 -0.000514028 0)
(-0.0257411 -0.00189285 0)
(-0.0259304 -0.00334107 0)
(-0.0263083 -0.00493163 0)
(-0.0268767 -0.00674955 0)
(-0.0274472 -0.00887199 0)
(-0.0280846 -0.0113754 0)
(-0.0284412 -0.0143518 0)
(-0.0279698 -0.0180389 0)
(-0.0364715 -0.0236884 0)
(-0.0102133 -0.0255726 0)
(-0.0575534 -0.038174 0)
(0.023557 -0.0370853 0)
(-0.0720998 -0.0502313 0)
(0.0594544 -0.0397206 0)
(0.0490425 0.048243 0)
(-0.0688495 0.0584669 0)
(0.0100513 0.0421377 0)
(-0.0566726 0.0408115 0)
(-0.0203506 0.0275591 0)
(-0.0376483 0.0237862 0)
(-0.0325047 0.0182924 0)
(-0.0315076 0.0142656 0)
(-0.0305818 0.0111275 0)
(-0.0295723 0.00861125 0)
(-0.0286192 0.00655952 0)
(-0.027865 0.00485159 0)
(-0.0273788 0.00337113 0)
(-0.0270405 0.00202763 0)
(-0.02681 0.000774161 0)
(-0.0268354 -0.000423388 0)
(-0.0270612 -0.00162942 0)
(-0.0273666 -0.00292423 0)
(-0.027947 -0.00438508 0)
(-0.0287947 -0.0060732 0)
(-0.029719 -0.00805832 0)
(-0.0308205 -0.0104668 0)
(-0.0318717 -0.0134942 0)
(-0.0328267 -0.0175003 0)
(-0.0405638 -0.023424 0)
(-0.0183584 -0.0264586 0)
(-0.0641119 -0.0415138 0)
(0.0154554 -0.0421939 0)
(-0.0810831 -0.0607343 0)
(0.0590427 -0.0513458 0)
(0.0460511 0.0648225 0)
(-0.0815362 0.0706873 0)
(-0.00106151 0.0476486 0)
(-0.0649925 0.0430706 0)
(-0.0294151 0.0277582 0)
(-0.0424167 0.022466 0)
(-0.0370791 0.0168595 0)
(-0.0348196 0.0127583 0)
(-0.0330464 0.00973567 0)
(-0.0314485 0.00742209 0)
(-0.0300738 0.00559223 0)
(-0.0290319 0.00409401 0)
(-0.0283604 0.00281613 0)
(-0.0278974 0.00169071 0)
(-0.027584 0.000672191 0)
(-0.0275831 -0.000298254 0)
(-0.0278655 -0.00129828 0)
(-0.0283079 -0.00240126 0)
(-0.0290774 -0.00362867 0)
(-0.0301676 -0.00502752 0)
(-0.0314554 -0.00674021 0)
(-0.0331312 -0.00895647 0)
(-0.0350805 -0.0118561 0)
(-0.0375098 -0.0158118 0)
(-0.0449569 -0.0214746 0)
(-0.0280097 -0.0260015 0)
(-0.0727099 -0.0431777 0)
(0.00299228 -0.047083 0)
(-0.095977 -0.073268 0)
(0.0561419 -0.0700757 0)
(0.037733 0.0930888 0)
(-0.102056 0.0844426 0)
(-0.014723 0.0515586 0)
(-0.0726366 0.0426736 0)
(-0.0362743 0.0257468 0)
(-0.0439112 0.0188558 0)
(-0.0374707 0.0139559 0)
(-0.0338496 0.0102067 0)
(-0.0311045 0.00760876 0)
(-0.0288794 0.00570652 0)
(-0.027095 0.00423468 0)
(-0.0257757 0.00306356 0)
(-0.0249043 0.00210597 0)
(-0.0242957 0.00129025 0)
(-0.0239012 0.000545643 0)
(-0.0238978 -0.000186485 0)
(-0.0242446 -0.000930098 0)
(-0.0247654 -0.00172426 0)
(-0.0256273 -0.00260347 0)
(-0.0269414 -0.00366173 0)
(-0.0286594 -0.00500544 0)
(-0.0309164 -0.00675878 0)
(-0.0336638 -0.00918321 0)
(-0.0373261 -0.0127343 0)
(-0.0454897 -0.0170711 0)
(-0.0348409 -0.0232836 0)
(-0.0792512 -0.0418214 0)
(-0.0114009 -0.0497468 0)
(-0.117271 -0.0883763 0)
(0.0492416 -0.104851 0)
(0.0337049 0.16112 0)
(-0.107887 0.0996304 0)
(0.00239643 0.0430526 0)
(-0.0426382 0.0395954 0)
(-0.00336416 0.0173137 0)
(-0.00397026 0.0128275 0)
(0.00467683 0.00898641 0)
(0.00938046 0.00640575 0)
(0.0130932 0.0046813 0)
(0.0158768 0.00342966 0)
(0.0180156 0.0025079 0)
(0.019603 0.00183089 0)
(0.0206713 0.00128225 0)
(0.0213838 0.000781742 0)
(0.0218097 0.000334268 0)
(0.0218542 -7.00831e-05 0)
(0.0215674 -0.000499876 0)
(0.0210458 -0.000960947 0)
(0.0200879 -0.0014471 0)
(0.0186428 -0.00207277 0)
(0.0167929 -0.00290187 0)
(0.0142133 -0.00392725 0)
(0.0107171 -0.00540736 0)
(0.00675976 -0.00777027 0)
(-0.00284849 -0.0112217 0)
(0.000826272 -0.0142701 0)
(-0.0426634 -0.0388792 0)
(0.00941165 -0.0416406 0)
(-0.112629 -0.111002 0)
(0.0559405 -0.170651 0)
(0.231491 0.108083 0)
(0.154569 0.0593709 0)
(0.296678 0.0195817 0)
(0.292418 0.0196462 0)
(0.32031 0.00646649 0)
(0.33043 0.00492454 0)
(0.337525 0.00311298 0)
(0.342392 0.00219006 0)
(0.345867 0.00158151 0)
(0.348407 0.00112778 0)
(0.350337 0.000814733 0)
(0.351758 0.000615104 0)
(0.352701 0.000449812 0)
(0.353328 0.000265912 0)
(0.353745 0.000111948 0)
(0.353848 1.67043e-05 0)
(0.35363 -0.000107267 0)
(0.353234 -0.000272925 0)
(0.352539 -0.000419367 0)
(0.35141 -0.000580469 0)
(0.349912 -0.000831005 0)
(0.347864 -0.00114506 0)
(0.345002 -0.00155879 0)
(0.341117 -0.00219227 0)
(0.334579 -0.00404589 0)
(0.329994 -0.00248221 0)
(0.293982 -0.0179785 0)
(0.31604 -0.01356 0)
(0.159943 -0.0569089 0)
(0.237253 -0.104401 0)
)
;

boundaryField
{
    movingWall
    {
        type            fixedValue;
        value           uniform (1 0 0);
    }
    fixedWalls
    {
        type            noSlip;
    }
    frontAndBack
    {
        type            empty;
    }
}


// ************************************************************************* //
