/*--------------------------------*- C++ -*----------------------------------*\
  =========                 |
  \\      /  F ield         | OpenFOAM: The Open Source CFD Toolbox
   \\    /   O peration     | Website:  https://openfoam.org
    \\  /    A nd           | Version:  7
     \\/     M anipulation  |
\*---------------------------------------------------------------------------*/
FoamFile
{
    version     2.0;
    format      ascii;
    class       volScalarField;
    location    "9.2";
    object      p;
}
// * * * * * * * * * * * * * * * * * * * * * * * * * * * * * * * * * * * * * //

dimensions      [0 2 -2 0 0 0 0];

internalField   nonuniform List<scalar> 
900
(
3.96414e-07
-0.000153307
-0.000354855
-0.000538547
-0.000670877
-0.000731551
-0.00071291
-0.000613036
-0.000431524
-0.000167953
0.000178035
0.000605677
0.00111147
0.00168737
0.00231917
0.00298545
0.00365745
0.00430012
0.00487493
0.00534391
0.00567473
0.00584609
0.00585226
0.00570566
0.00543712
0.00509225
0.0047268
0.00440731
0.00419501
0.00414762
0.000151922
-5.81749e-06
-0.000148773
-0.000270926
-0.00035139
-0.000375258
-0.000336036
-0.000230881
-5.81498e-05
0.000183305
0.00049398
0.000872964
0.00131677
0.00181803
0.00236417
0.00293639
0.00351138
0.00405942
0.0045487
0.00494824
0.00523209
0.00538385
0.00540028
0.00529313
0.00508889
0.00482606
0.0045505
0.00430229
0.0041378
0.00409734
0.000363424
0.000131469
-1.53349e-05
-0.000121935
-0.000184398
-0.000193537
-0.000146302
-4.14408e-05
0.000122359
0.000346539
0.000632236
0.000979459
0.00138594
0.00184578
0.00234825
0.00287759
0.00341142
0.00392233
0.00438025
0.00475532
0.00502223
0.00516473
0.00517936
0.0050773
0.00488375
0.00463474
0.00437217
0.00413664
0.00396646
0.00389636
0.000561103
0.00024148
7.06765e-05
-3.82617e-05
-9.63874e-05
-0.000100567
-5.20606e-05
4.79417e-05
0.000199939
0.000405631
0.00066716
0.000986103
0.00136218
0.00179179
0.00226651
0.00277215
0.00328818
0.00378753
0.00423955
0.00461277
0.00487951
0.00502102
0.00503173
0.00492162
0.00471557
0.00444974
0.00416598
0.00390604
0.00370495
0.00357916
0.000696069
0.000286393
8.54086e-05
-3.38415e-05
-9.54842e-05
-0.000101745
-5.805e-05
3.19717e-05
0.000168021
0.000352198
0.000587958
0.000878907
0.00122734
0.00163252
0.00208875
0.00258363
0.00309845
0.00360558
0.00407257
0.00446436
0.00474851
0.00490127
0.00491284
0.00479069
0.0045594
0.00425672
0.00392748
0.00361777
0.00336319
0.00316454
0.000723936
0.000228294
-5.02804e-06
-0.000139512
-0.000210744
-0.000225578
-0.000193127
-0.000119143
-4.50792e-06
0.000153497
0.000359939
0.000620874
0.000941738
0.00132539
0.00176937
0.00226341
0.00279214
0.00332617
0.00383055
0.00426505
0.00459004
0.00477373
0.00479912
0.00466882
0.00440613
0.00405126
0.00365479
0.00327139
0.00294139
0.00265219
0.000608926
3.44932e-05
-0.000230798
-0.000383319
-0.00046887
-0.000498359
-0.00048409
-0.000433567
-0.000348006
-0.000223867
-5.42227e-05
0.000169825
0.000457423
0.000815737
0.00124616
0.00174037
0.00229636
0.00287472
0.0034397
0.00394543
0.00434264
0.00458775
0.00465207
0.00452932
0.00423889
0.00382323
0.00334112
0.0028606
0.00243208
0.00203229
0.000320573
-0.000324256
-0.000619894
-0.000792227
-0.000896372
-0.000946939
-0.000959047
-0.000941689
-0.00089629
-0.000818423
-0.000699168
-0.000526457
-0.000286854
3.21662e-05
0.000440237
0.000941306
0.00151362
0.00214483
0.00279245
0.00340265
0.00391399
0.00426637
0.0044129
0.00433149
0.00403228
0.00355762
0.00297625
0.00237516
0.00182051
0.00127495
-0.000167954
-0.000874167
-0.00119819
-0.00139212
-0.00151967
-0.00159902
-0.00164793
-0.00167686
-0.00168758
-0.00167499
-0.00162833
-0.00153228
-0.0013684
-0.00111729
-0.00076102
-0.00028748
0.000298803
0.000985611
0.0017337
0.00248513
0.00316493
0.00369097
0.00398914
0.00401061
0.00374619
0.00323196
0.00254658
0.00180247
0.00108925
0.000352703
-0.000879967
-0.0016379
-0.00198844
-0.00220635
-0.00236335
-0.00248119
-0.00258038
-0.00267313
-0.00276209
-0.00284212
-0.00290125
-0.00292116
-0.00287796
-0.00274373
-0.0024889
-0.00208756
-0.0015272
-0.000804506
4.92176e-05
0.000976594
0.00188989
0.00267993
0.00323399
0.0034603
0.00331308
0.00280903
0.00203243
0.00112793
0.00021903
-0.000768935
-0.00183455
-0.00263371
-0.00300912
-0.00325428
-0.00344824
-0.00361657
-0.00378291
-0.00396192
-0.00415809
-0.0043675
-0.00457819
-0.00476976
-0.00491305
-0.00497036
-0.00489726
-0.00464761
-0.00418382
-0.00347579
-0.00253617
-0.0014115
-0.000196747
0.000969633
0.00192423
0.00251084
0.00262025
0.00222541
0.00140304
0.000334442
-0.000808886
-0.00212508
-0.00304543
-0.00387444
-0.00427323
-0.00454963
-0.00478933
-0.00502211
-0.0052754
-0.00556741
-0.00590605
-0.00629046
-0.00671071
-0.00714615
-0.00756326
-0.00791407
-0.00813625
-0.00815568
-0.00789469
-0.00730218
-0.00633791
-0.00502518
-0.00345471
-0.00179
-0.000253726
0.000909454
0.00148994
0.00137629
0.000608718
-0.000598719
-0.00201016
-0.00374792
-0.00451955
-0.00536634
-0.00578701
-0.00609884
-0.00639341
-0.00670529
-0.00706667
-0.00750077
-0.00802094
-0.00863191
-0.00932858
-0.0100927
-0.0108885
-0.011658
-0.0123188
-0.012765
-0.0128749
-0.0125329
-0.0116565
-0.0102156
-0.00827427
-0.00600613
-0.00369172
-0.00168354
-0.000334487
0.000100509
-0.000428344
-0.00169728
-0.00339337
-0.00566104
-0.00625594
-0.00710824
-0.00754893
-0.00789956
-0.00825684
-0.00866088
-0.00914984
-0.0097537
-0.0104936
-0.0113828
-0.0124243
-0.0136056
-0.0148916
-0.016216
-0.0174754
-0.0185276
-0.019197
-0.0192928
-0.0186817
-0.0172399
-0.0149803
-0.0120603
-0.00879945
-0.00566152
-0.00317972
-0.00182461
-0.00182089
-0.00299185
-0.00495298
-0.0078695
-0.00824481
-0.00909121
-0.00954917
-0.00993965
-0.0103638
-0.0108681
-0.0114981
-0.0122925
-0.0132826
-0.0144931
-0.0159385
-0.0176157
-0.0194935
-0.0214997
-0.0235109
-0.0253473
-0.0267798
-0.0275515
-0.0273921
-0.0261334
-0.0236925
-0.0201689
-0.0158819
-0.0113803
-0.0073894
-0.00466253
-0.00371235
-0.00451302
-0.00665737
-0.0103436
-0.0104677
-0.0112991
-0.0117701
-0.0121972
-0.0126853
-0.0132887
-0.014062
-0.0150543
-0.0163093
-0.0178654
-0.0197514
-0.0219766
-0.0245165
-0.0272962
-0.0301744
-0.0329359
-0.0352956
-0.0369168
-0.0374398
-0.0365956
-0.0341893
-0.0302276
-0.0249753
-0.0190089
-0.0132121
-0.00865256
-0.00624771
-0.00627665
-0.00842997
-0.0129941
-0.0128986
-0.0137102
-0.0141881
-0.0146416
-0.0151802
-0.0158675
-0.016769
-0.0179462
-0.0194567
-0.0213543
-0.0236835
-0.0264673
-0.0296899
-0.0332756
-0.0370688
-0.0408228
-0.0442023
-0.0467999
-0.0481669
-0.0479569
-0.0458386
-0.0417012
-0.0357027
-0.0283654
-0.0206469
-0.0138944
-0.00950626
-0.00825137
-0.0101214
-0.0156376
-0.0155068
-0.0163013
-0.0167765
-0.0172365
-0.0177969
-0.0185336
-0.0195258
-0.0208491
-0.0225761
-0.0247761
-0.0275092
-0.030812
-0.0346773
-0.0390295
-0.0437015
-0.0484206
-0.0528103
-0.0564149
-0.0587409
-0.0592743
-0.0576574
-0.0536397
-0.0472295
-0.0388126
-0.0292998
-0.0202063
-0.0133999
-0.0102999
-0.0114704
-0.0179519
-0.0182614
-0.0190521
-0.0195105
-0.0199434
-0.0204771
-0.0212048
-0.0222234
-0.023625
-0.0254974
-0.0279249
-0.0309813
-0.0347146
-0.0391242
-0.044134
-0.0495676
-0.0551326
-0.0604227
-0.0649403
-0.0681485
-0.0694883
-0.0685079
-0.0648543
-0.0583849
-0.0492961
-0.038333
-0.0270134
-0.0175562
-0.012094
-0.0120525
-0.0194173
-0.021138
-0.0219541
-0.022374
-0.0227266
-0.0231595
-0.0237916
-0.0247437
-0.0261272
-0.0280454
-0.0305955
-0.0338619
-0.0379003
-0.0427133
-0.0482224
-0.0542422
-0.060467
-0.0664744
-0.0717285
-0.0756695
-0.0777263
-0.0773791
-0.0742038
-0.0679268
-0.0585467
-0.0465659
-0.0333374
-0.02123
-0.0130198
-0.0112179
-0.0192417
-0.0241304
-0.0250211
-0.0253669
-0.0255581
-0.0257837
-0.0262021
-0.0269668
-0.0282119
-0.0300558
-0.0326058
-0.0359525
-0.0401543
-0.0452125
-0.0510427
-0.0574495
-0.0641156
-0.0706357
-0.0764017
-0.0808672
-0.0834565
-0.0836094
-0.0808596
-0.0748374
-0.0653715
-0.0527066
-0.0379179
-0.0233035
-0.0120995
-0.00801784
-0.0162601
-0.0272685
-0.0283066
-0.0285157
-0.0284218
-0.0282923
-0.0283456
-0.0287782
-0.0297497
-0.0313917
-0.0338173
-0.0371182
-0.0413491
-0.0465046
-0.05249
-0.0590945
-0.0659675
-0.0728699
-0.0788975
-0.0836554
-0.0865379
-0.0869729
-0.0844433
-0.0785212
-0.0689026
-0.0556151
-0.0394226
-0.0223891
-0.00797934
-0.00112836
-0.00880954
-0.0306547
-0.0319295
-0.0318848
-0.0313163
-0.0306319
-0.0301353
-0.0300751
-0.0306357
-0.0319569
-0.034151
-0.0373031
-0.0414583
-0.0466
-0.0526216
-0.0593044
-0.0663075
-0.0732019
-0.0793619
-0.0842218
-0.0871705
-0.0876153
-0.0849931
-0.0788341
-0.0687039
-0.0544842
-0.036658
-0.0169975
0.00100402
0.0112322
0.00542432
-0.0345415
-0.0361179
-0.0355918
-0.0342559
-0.0327518
-0.0314918
-0.0307751
-0.0308018
-0.0317089
-0.0335971
-0.0365363
-0.0405537
-0.0456134
-0.0515912
-0.0582525
-0.0652419
-0.0720893
-0.078212
-0.0829915
-0.085781
-0.0859436
-0.0828542
-0.0759464
-0.0647187
-0.0488966
-0.0287368
-0.00572498
0.0167541
0.0314236
0.0295659
-0.0395029
-0.04128
-0.0398229
-0.0372694
-0.0346053
-0.0323491
-0.0308266
-0.0302285
-0.0306689
-0.0322217
-0.03493
-0.0387937
-0.0437514
-0.0496548
-0.0562484
-0.0631581
-0.0698942
-0.075864
-0.080409
-0.082831
-0.0824197
-0.0784517
-0.0702397
-0.0571534
-0.0387735
-0.0152162
0.0124669
0.0413468
0.0624669
0.0675411
-0.0468396
-0.0481189
-0.0448298
-0.0403835
-0.0361394
-0.0326517
-0.0302072
-0.0289413
-0.0289136
-0.0301518
-0.0326565
-0.0363921
-0.0412642
-0.0470954
-0.0536052
-0.0603977
-0.0669615
-0.0726801
-0.0768531
-0.0787167
-0.0774634
-0.0722201
-0.0621451
-0.0464094
-0.0243784
0.00403581
0.0378958
0.0763749
0.107457
0.123867
-0.0597485
-0.0578457
-0.0508975
-0.0435698
-0.0372414
-0.032298
-0.0288659
-0.0269531
-0.0265206
-0.02752
-0.0298943
-0.0335611
-0.0383874
-0.044163
-0.0505805
-0.0572209
-0.0635499
-0.0689226
-0.0725949
-0.073736
-0.0714314
-0.0646167
-0.0522468
-0.0332143
-0.00654521
0.0283178
0.0711323
0.120976
0.167554
0.205329
-0.0863652
-0.0720007
-0.0583069
-0.0466576
-0.037605
-0.0310219
-0.0266364
-0.0242056
-0.0235251
-0.0244356
-0.0268046
-0.0304957
-0.0353352
-0.0410828
-0.0474075
-0.0538714
-0.0599208
-0.0648842
-0.0679711
-0.0682808
-0.0648056
-0.0564053
-0.0416813
-0.0191706
0.0126168
0.055095
0.109063
0.174918
0.243271
0.325572
-0.138464
-0.0873443
-0.0650155
-0.0474691
-0.0352799
-0.0273398
-0.0224931
-0.0200129
-0.0194677
-0.0205849
-0.0231674
-0.0270385
-0.0319998
-0.0377956
-0.0440868
-0.050431
-0.0562719
-0.0609321
-0.0636024
-0.0633278
-0.058954
-0.0493882
-0.0329954
-0.00790239
0.0280694
0.0778078
0.144448
0.233184
0.340817
0.51047
-0.311358
-0.09721
-0.0479878
-0.0289807
-0.0181396
-0.0123491
-0.00988031
-0.00947974
-0.010567
-0.0129273
-0.0164501
-0.0210267
-0.0265112
-0.0326917
-0.0392661
-0.0458243
-0.0518368
-0.0566492
-0.0594785
-0.0594222
-0.0554487
-0.0460499
-0.02977
-0.0046666
0.0318721
0.0841914
0.158958
0.273949
0.448867
0.792594
)
;

boundaryField
{
    movingWall
    {
        type            zeroGradient;
    }
    fixedWalls
    {
        type            zeroGradient;
    }
    frontAndBack
    {
        type            empty;
    }
}


// ************************************************************************* //
