/*--------------------------------*- C++ -*----------------------------------*\
  =========                 |
  \\      /  F ield         | OpenFOAM: The Open Source CFD Toolbox
   \\    /   O peration     | Website:  https://openfoam.org
    \\  /    A nd           | Version:  7
     \\/     M anipulation  |
\*---------------------------------------------------------------------------*/
FoamFile
{
    version     2.0;
    format      ascii;
    class       surfaceScalarField;
    location    "9.2";
    object      phi;
}
// * * * * * * * * * * * * * * * * * * * * * * * * * * * * * * * * * * * * * //

dimensions      [0 3 -1 0 0 0 0];

internalField   nonuniform List<scalar> 
1740
(
6.78743e-07
-6.79111e-07
-3.41147e-07
1.01989e-06
-3.23826e-06
2.89712e-06
-7.6476e-06
4.40933e-06
-1.30943e-05
5.44667e-06
-1.91651e-05
6.07079e-06
-2.55457e-05
6.38061e-06
-3.20011e-05
6.45539e-06
-3.83397e-05
6.33863e-06
-4.43804e-05
6.04072e-06
-4.99283e-05
5.54791e-06
-5.47619e-05
4.83361e-06
-5.86324e-05
3.87047e-06
-6.1275e-05
2.64262e-06
-6.24323e-05
1.15727e-06
-6.18861e-05
-5.46171e-07
-5.94949e-05
-2.39118e-06
-5.52374e-05
-4.25754e-06
-4.92441e-05
-5.99332e-06
-4.18156e-05
-7.42849e-06
-3.34186e-05
-8.39701e-06
-2.46546e-05
-8.76396e-06
-1.62022e-05
-8.45241e-06
-8.73801e-06
-7.46419e-06
-2.84802e-06
-5.88999e-06
1.06566e-06
-3.91368e-06
2.86672e-06
-1.80106e-06
2.71348e-06
1.53237e-07
1.28823e-06
1.42525e-06
1.28823e-06
-1.02045e-06
3.41344e-07
-5.85166e-06
5.85109e-06
-1.46182e-05
1.16636e-05
-2.6586e-05
1.63772e-05
-4.08817e-05
1.97423e-05
-5.66707e-05
2.18598e-05
-7.32342e-05
2.29441e-05
-8.99657e-05
2.31869e-05
-0.000106329
2.27015e-05
-0.000121807
2.15191e-05
-0.000135867
1.96076e-05
-0.000147936
1.69027e-05
-0.000157409
1.33437e-05
-0.000163677
8.91047e-06
-0.000166174
3.65459e-06
-0.000164466
-2.25406e-06
-0.000158287
-8.56998e-06
-0.000147664
-1.48811e-05
-0.000132951
-2.07058e-05
-0.000114868
-2.55115e-05
-9.44805e-05
-2.87849e-05
-7.3132e-05
-3.01125e-05
-5.2323e-05
-2.92614e-05
-3.35448e-05
-2.62424e-05
-1.80923e-05
-2.13425e-05
-6.88092e-06
-1.5125e-05
-2.78437e-07
-8.40355e-06
2.13011e-06
-2.25531e-06
1.48978e-06
2.06557e-06
2.778e-06
-3.14241e-06
3.48376e-06
-1.24525e-05
1.51612e-05
-2.71453e-05
2.63564e-05
-4.61395e-05
3.53714e-05
-6.82574e-05
4.18602e-05
-9.23896e-05
4.5992e-05
-0.000117551
4.81057e-05
-0.000142872
4.85079e-05
-0.000167554
4.73831e-05
-0.000190815
4.47808e-05
-0.000211854
4.06464e-05
-0.000229828
3.4876e-05
-0.000243865
2.73808e-05
-0.000253109
1.81546e-05
-0.000256793
7.33848e-06
-0.000254309
-4.73728e-06
-0.000245332
-1.75471e-05
-0.000229913
-3.03007e-05
-0.000208552
-4.20668e-05
-0.00018224
-5.18235e-05
-0.000152439
-5.85854e-05
-0.000120999
-6.15531e-05
-8.99953e-05
-6.02649e-05
-6.1516e-05
-5.47216e-05
-3.74023e-05
-4.54562e-05
-1.89901e-05
-3.35373e-05
-6.87388e-06
-2.05197e-05
-7.5579e-07
-8.3734e-06
7.44971e-07
5.6481e-07
3.52297e-06
-5.22317e-06
8.70693e-06
-1.89502e-05
2.88882e-05
-3.94419e-05
4.68481e-05
-6.50748e-05
6.10044e-05
-9.43547e-05
7.114e-05
-0.000125949
7.75867e-05
-0.000158687
8.08438e-05
-0.000191521
8.13413e-05
-0.000223468
7.93303e-05
-0.000253558
7.48705e-05
-0.000280787
6.78763e-05
-0.000304109
5.81975e-05
-0.000322444
4.57158e-05
-0.000334735
3.04456e-05
-0.000340026
1.26294e-05
-0.000337561
-7.2021e-06
-0.000326896
-2.82125e-05
-0.000308036
-4.9161e-05
-0.000281518
-6.85844e-05
-0.000248474
-8.48675e-05
-0.000210625
-9.64342e-05
-0.0001702
-0.000101978
-0.000129762
-0.000100703
-9.19473e-05
-9.25367e-05
-5.91475e-05
-7.82559e-05
-3.31789e-05
-5.9506e-05
-1.49862e-05
-3.87124e-05
-4.4369e-06
-1.89227e-05
-2.52664e-07
-3.61943e-06
3.27031e-06
-7.11707e-06
1.5824e-05
-2.50172e-05
4.67884e-05
-5.10079e-05
7.28387e-05
-8.28846e-05
9.28811e-05
-0.000118815
0.00010707
-0.000157264
0.000116036
-0.000196924
0.000120504
-0.000236631
0.000121049
-0.000275291
0.00011799
-0.000311808
0.000111388
-0.000345042
0.00010111
-0.000373789
8.69439e-05
-0.000396795
6.87225e-05
-0.000412813
4.64634e-05
-0.000420681
2.04968e-05
-0.00041944
-8.44219e-06
-0.000408434
-3.92186e-05
-0.000387503
-7.00918e-05
-0.000357085
-9.90031e-05
-0.000318312
-0.00012364
-0.000273054
-0.000141693
-0.000223851
-0.00015118
-0.000173749
-0.000150805
-0.000125999
-0.000140287
-8.3667e-05
-0.000120588
-4.92086e-05
-9.39645e-05
-2.40804e-05
-6.38406e-05
-8.47881e-06
-3.45243e-05
-1.25418e-06
-1.08441e-05
2.01613e-06
-8.81009e-06
2.46341e-05
-3.05549e-05
6.85332e-05
-6.16651e-05
0.000103949
-9.93727e-05
0.000130589
-0.000141514
0.000149212
-0.000186375
0.000160897
-0.000232547
0.000166676
-0.000278807
0.000167308
-0.000324005
0.000163188
-0.000366984
0.000154367
-0.000406518
0.000140644
-0.000441287
0.000121712
-0.00046988
9.7316e-05
-0.000490844
6.74278e-05
-0.000502764
3.24163e-05
-0.000504407
-6.79865e-06
-0.000494746
-4.88804e-05
-0.000473314
-9.15237e-05
-0.000440278
-0.000132039
-0.000396614
-0.000167304
-0.000344211
-0.000194096
-0.00028587
-0.000209521
-0.000225152
-0.000211523
-0.000166058
-0.000199381
-0.000112548
-0.000174098
-6.79727e-05
-0.000138539
-3.45452e-05
-9.72681e-05
-1.2961e-05
-5.61085e-05
-2.27082e-06
-2.15343e-05
-2.54687e-07
-1.03197e-05
3.49538e-05
-3.55547e-05
9.37682e-05
-7.13649e-05
0.000139759
-0.000114473
0.000173697
-0.000162418
0.000197157
-0.000213335
0.000211814
-0.000265758
0.000219099
-0.000318451
0.000220001
-0.000370269
0.000215006
-0.000420046
0.000204144
-0.000466523
0.000187121
-0.000508295
0.000163484
-0.000543806
0.000132828
-0.000571376
9.49975e-05
-0.000589244
5.02841e-05
-0.000595907
-1.35475e-07
-0.000589656
-5.51317e-05
-0.000569646
-0.000111534
-0.000535542
-0.000166142
-0.00048796
-0.000214886
-0.000428645
-0.00025341
-0.000360569
-0.000277598
-0.000287833
-0.000284258
-0.000215348
-0.000271867
-0.000148249
-0.000241197
-9.11484e-05
-0.00019564
-4.73635e-05
-0.000141053
-1.83421e-05
-8.51298e-05
-3.44088e-06
-3.64355e-05
-3.69557e-06
-1.16581e-05
4.6612e-05
-4.00171e-05
0.000122127
-8.00787e-05
0.000179821
-0.000128131
0.000221749
-0.000181464
0.00025049
-0.000238107
0.000268456
-0.000296576
0.000277569
-0.000355675
0.0002791
-0.000414314
0.000273645
-0.000471379
0.000261209
-0.000525622
0.000241364
-0.000575593
0.000213455
-0.000619603
0.000176838
-0.000655727
0.000131122
-0.000681881
7.64385e-05
-0.000695747
1.37298e-05
-0.000695506
-5.53726e-05
-0.000679293
-0.000127746
-0.000646122
-0.000199313
-0.000596011
-0.000264997
-0.000530338
-0.000319084
-0.000452072
-0.000355863
-0.00036581
-0.00037052
-0.000277493
-0.000360184
-0.000193749
-0.000324941
-0.000120909
-0.00026848
-6.38895e-05
-0.000198073
-2.52805e-05
-0.000123739
-4.93201e-06
-5.6784e-05
-8.62757e-06
-1.2822e-05
5.9434e-05
-4.39163e-05
0.000153221
-8.77421e-05
0.000223647
-0.000140235
0.000274242
-0.000198496
0.000308752
-0.000260492
0.000330452
-0.00032477
0.000341847
-0.000390217
0.000344547
-0.000455855
0.000339282
-0.000520669
0.000326023
-0.000583475
0.00030417
-0.000642817
0.000272797
-0.00069689
0.000230911
-0.000743522
0.000177754
-0.000780194
0.00011311
-0.000804111
3.76464e-05
-0.000812563
-4.69207e-05
-0.000802907
-0.000137402
-0.000773213
-0.000229007
-0.00072262
-0.00031559
-0.000651828
-0.000389876
-0.000563519
-0.000444172
-0.00046259
-0.000471449
-0.000356014
-0.000466759
-0.000252186
-0.00042877
-0.000159687
-0.000360979
-8.57027e-05
-0.000272057
-3.45636e-05
-0.000174878
-6.97649e-06
-8.43711e-05
-1.56041e-05
-1.37935e-05
7.32275e-05
-4.71939e-05
0.000186622
-9.42377e-05
0.00027069
-0.000150593
0.000330597
-0.000213231
0.000371389
-0.0002801
0.00039732
-0.000349817
0.000411564
-0.000421397
0.000416127
-0.000494015
0.000411901
-0.00056681
0.000398817
-0.000638709
0.000376069
-0.000708291
0.000342379
-0.000773678
0.000296298
-0.00083247
0.000236546
-0.000881748
0.000162388
-0.000918134
7.40329e-05
-0.000938112
-2.69431e-05
-0.000938046
-0.000137468
-0.000914923
-0.000252131
-0.000866727
-0.000363786
-0.000793112
-0.000463491
-0.000696041
-0.000541243
-0.000580306
-0.000587184
-0.000453685
-0.000593381
-0.000326442
-0.000556012
-0.000209944
-0.000477477
-0.000114496
-0.000367506
-4.70569e-05
-0.000242317
-9.81806e-06
-0.00012161
-2.54221e-05
-1.45445e-05
8.7772e-05
-4.97652e-05
0.000221843
-9.94021e-05
0.000320327
-0.000158938
0.000390133
-0.000225265
0.000437716
-0.000296349
0.000468404
-0.000370907
0.000486122
-0.000448111
0.000493332
-0.000527327
0.000491116
-0.000607879
0.00047937
-0.000688854
0.000457044
-0.000768916
0.000422441
-0.000846166
0.000373548
-0.000918043
0.000308424
-0.000981294
0.000225638
-0.00103201
0.000124748
-0.00106592
6.97229e-06
-0.00107843
-0.000124966
-0.00106534
-0.000265219
-0.00102328
-0.000405847
-0.000950462
-0.000536305
-0.00084758
-0.000644125
-0.000718658
-0.000716106
-0.000571697
-0.000740341
-0.000418604
-0.000709105
-0.000273893
-0.000622187
-0.000151971
-0.000489428
-6.36816e-05
-0.000330606
-1.37214e-05
-0.00017157
-3.91435e-05
-1.50425e-05
0.000102815
-5.15344e-05
0.000258334
-0.000103049
0.000371842
-0.000164958
0.000452042
-0.000234112
0.00050687
-0.000308518
0.000542809
-0.000387002
0.000564607
-0.000468907
0.000575236
-0.000553799
0.000576009
-0.000641218
0.000566789
-0.000730438
0.000546263
-0.000820259
0.000512262
-0.000908836
0.000462125
-0.000993548
0.000393136
-0.00107094
0.000303031
-0.00113678
0.000190583
-0.00118603
5.62269e-05
-0.00121357
-9.74261e-05
-0.00121397
-0.000264825
-0.00118242
-0.000437396
-0.0011154
-0.000603319
-0.00101171
-0.000747812
-0.00087372
-0.000854101
-0.000708631
-0.000905431
-0.000529222
-0.000888514
-0.000353099
-0.000798311
-0.000199698
-0.000642829
-8.53938e-05
-0.00044491
-1.89803e-05
-0.000237984
-5.81239e-05
-1.52593e-05
0.000118074
-5.2417e-05
0.000295492
-0.000105007
0.000424432
-0.000168351
0.000515385
-0.000239279
0.000577799
-0.000315837
0.000619367
-0.000396952
0.000645723
-0.000482124
0.000660407
-0.000571113
0.000664999
-0.000663672
0.000659347
-0.000759281
0.000641872
-0.000856922
0.000609903
-0.000954884
0.000560088
-0.00105062
0.000488874
-0.00114068
0.000393091
-0.00122071
0.000270609
-0.00128551
0.000121029
-0.00132929
-5.36446e-05
-0.00134598
-0.000248134
-0.00132945
-0.00045393
-0.00127429
-0.000658482
-0.00117686
-0.000845238
-0.00103686
-0.000994097
-0.000859302
-0.00108299
-0.000656354
-0.00109146
-0.000447878
-0.00100679
-0.000258861
-0.000831847
-0.000113132
-0.000590639
-2.59222e-05
-0.000325193
-8.40461e-05
-1.51803e-05
0.000133254
-5.2369e-05
0.000332681
-0.000105173
0.000477236
-0.0001689
0.000579113
-0.000240363
0.000649261
-0.000317619
0.000696623
-0.000399669
0.000727772
-0.000486127
0.000746866
-0.000576919
0.000755791
-0.000671985
0.000754413
-0.000771013
0.0007409
-0.000873202
0.000712092
-0.000977067
0.000663953
-0.0010803
0.000592104
-0.00117968
0.000492474
-0.0012711
0.000362026
-0.00134959
0.000199518
-0.00140912
5.88788e-06
-0.00144363
-0.000213619
-0.00144594
-0.000451626
-0.00140895
-0.000695473
-0.00132634
-0.000927845
-0.00119424
-0.0011262
-0.00101381
-0.00126342
-0.000794489
-0.00131078
-0.000556475
-0.0012448
-0.000329846
-0.00105848
-0.000147701
-0.000772783
-3.48999e-05
-0.000437995
-0.000118946
-1.48166e-05
0.000148071
-5.14203e-05
0.000369285
-0.000103569
0.000529385
-0.000166565
0.000642109
-0.000237173
0.00071987
-0.000313427
0.000772876
-0.00039434
0.000808685
-0.000479595
0.000832121
-0.000569226
0.000845421
-0.000663322
0.00084851
-0.000761766
0.000839344
-0.000864002
0.000814328
-0.000968858
0.000768809
-0.00107442
0.000697669
-0.00117798
0.000596035
-0.00127601
0.000460054
-0.00136413
0.000287638
-0.00143726
7.90201e-05
-0.00148897
-0.000161916
-0.0015123
-0.000428297
-0.00149889
-0.000708875
-0.00143992
-0.000986823
-0.00132743
-0.00123868
-0.00115732
-0.00143353
-0.000933743
-0.00153436
-0.000674148
-0.00150439
-0.000411656
-0.00132097
-0.000189571
-0.000994869
-4.62644e-05
-0.000581302
-0.00016521
-1.42168e-05
0.000162288
-4.97125e-05
0.00040478
-0.000100412
0.000580084
-0.000161574
0.000703271
-0.000229867
0.000788163
-0.000303239
0.000846249
-0.000380664
0.000886111
-0.000461829
0.000913286
-0.00054682
0.000930412
-0.000635834
0.000937523
-0.000728929
0.000932439
-0.000825821
0.00091122
-0.000925735
0.000868723
-0.00102732
0.000799249
-0.00112859
0.000697308
-0.00122694
0.000558409
-0.00131911
0.0003798
-0.00140106
0.000160971
-0.00146728
-9.56949e-05
-0.00151151
-0.000384063
-0.00152498
-0.000695402
-0.00149703
-0.00101477
-0.00141589
-0.00131983
-0.00127134
-0.00157808
-0.00105993
-0.00174577
-0.000792521
-0.0017718
-0.000501255
-0.00161223
-0.000238602
-0.00125752
-6.03216e-05
-0.000759582
-0.000225532
-1.34807e-05
0.000175768
-4.75381e-05
0.000438838
-9.61787e-05
0.000628725
-0.000154523
0.000761615
-0.000219065
0.000852705
-0.000287614
0.000914797
-0.000359051
0.000957548
-0.000433023
0.000987258
-0.000509626
0.00100702
-0.000589135
0.00101703
-0.00067178
0.00101508
-0.00075758
0.00099702
-0.000846235
0.000957378
-0.000937076
0.00089009
-0.00102905
0.00078928
-0.00112071
0.000650067
-0.00121015
0.000469245
-0.00129494
0.000245759
-0.00137082
-1.98176e-05
-0.00143324
-0.000321637
-0.00147379
-0.000654853
-0.00148119
-0.00100738
-0.00144081
-0.0013602
-0.00133659
-0.0016823
-0.00115607
-0.00192629
-0.000899732
-0.00202814
-0.000593109
-0.00191886
-0.000293754
-0.00155688
-7.72907e-05
-0.000976045
-0.000302823
-1.27748e-05
0.000188543
-4.53854e-05
0.000471448
-9.16805e-05
0.00067502
-0.000146464
0.000816399
-0.000205962
0.000912203
-0.000267802
0.000976637
-0.000330759
0.00102051
-0.000394429
0.00105093
-0.000458914
0.0010715
-0.000524571
0.00108269
-0.000591822
0.00108233
-0.000661034
0.00106623
-0.000732456
0.0010288
-0.000806199
0.000963833
-0.00088224
0.000865321
-0.000960415
0.000728243
-0.00104034
0.000549166
-0.0011211
0.000326527
-0.0012013
6.03804e-05
-0.00127661
-0.000246325
-0.0013411
-0.000590365
-0.00138404
-0.000964443
-0.00138955
-0.00135469
-0.0013371
-0.00173476
-0.00120534
-0.00205804
-0.000981806
-0.00225168
-0.000679233
-0.00222143
-0.000352869
-0.00188324
-9.72952e-05
-0.00123162
-0.000400118
-1.23561e-05
0.000200899
-4.39957e-05
0.000503088
-8.81359e-05
0.00071916
-0.000138981
0.000867245
-0.000192386
0.000965608
-0.000245797
0.00103005
-0.000297927
0.00107263
-0.000348373
0.00110137
-0.000397297
0.00112042
-0.000445183
0.00113058
-0.000492702
0.00112985
-0.000540632
0.00111416
-0.000589834
0.001078
-0.000641264
0.00101526
-0.000695969
0.000920027
-0.000755078
0.000787352
-0.000819696
0.000613784
-0.000890634
0.000397465
-0.000968159
0.000137906
-0.00105033
-0.000164153
-0.00113306
-0.000507635
-0.00120758
-0.000889929
-0.00125872
-0.00130355
-0.00126385
-0.00172963
-0.00119462
-0.00212727
-0.00102504
-0.00242126
-0.000749946
-0.00249653
-0.000412615
-0.00222057
-0.000120421
-0.00152381
-0.000520539
-1.26138e-05
0.000213513
-4.44504e-05
0.000534924
-8.727e-05
0.00076198
-0.000134266
0.00091424
-0.000180831
0.00101217
-0.000224311
0.00107353
-0.00026349
0.00111181
-0.000298106
0.00113599
-0.000328492
0.00115081
-0.000355365
0.00115745
-0.000379725
0.00115421
-0.000402829
0.00113727
-0.000426204
0.00110138
-0.000451662
0.00104072
-0.000481295
0.00094966
-0.000517426
0.000823483
-0.000562519
0.000658876
-0.000618841
0.000453787
-0.000688079
0.000207144
-0.000770564
-8.16682e-05
-0.000864255
-0.000413944
-0.00096311
-0.000791074
-0.00105446
-0.00121219
-0.00111644
-0.00166765
-0.00111697
-0.00212674
-0.00101853
-0.0025197
-0.000795328
-0.00271973
-0.000468687
-0.00254721
-0.000146844
-0.00184566
-0.000667383
-1.41537e-05
0.000227667
-4.83207e-05
0.000569092
-9.14545e-05
0.000805113
-0.000135186
0.000957971
-0.000174433
0.00105142
-0.00020665
0.00110574
-0.000230957
0.00113612
-0.000247463
0.0011525
-0.000256863
0.00116021
-0.000260241
0.00116083
-0.000259027
0.001153
-0.000255018
0.00113326
-0.00025042
0.00109678
-0.000247869
0.00103817
-0.000250396
0.000952187
-0.000261301
0.000834387
-0.000284256
0.000681832
-0.000322692
0.000492222
-0.000379271
0.000263724
-0.000456136
-4.80382e-06
-0.000553114
-0.000316965
-0.000667231
-0.000676958
-0.000789537
-0.00108989
-0.000901633
-0.00155555
-0.000971911
-0.00205646
-0.000955449
-0.00253616
-0.000806452
-0.00286873
-0.000516091
-0.00283757
-0.000176915
-0.00218483
-0.000844298
-1.79694e-05
0.000245636
-5.79294e-05
0.000609052
-0.000103908
0.000851092
-0.000145344
0.000999407
-0.000176856
0.00108293
-0.000196444
0.00112533
-0.000203987
0.00114366
-0.000200306
0.00114882
-0.000186693
0.0011466
-0.000164763
0.0011389
-0.000136461
0.0011247
-0.000104152
0.00110095
-7.07023e-05
0.00106333
-3.95112e-05
0.00100698
-1.44712e-05
0.000927147
1.51761e-07
0.000819765
5.93438e-07
0.00068139
-1.71671e-05
0.000509983
-5.75205e-05
0.000304077
-0.000123311
6.09868e-05
-0.000216395
-0.000223881
-0.000336191
-0.000557162
-0.000478175
-0.000947901
-0.000629402
-0.00140433
-0.000762961
-0.0019229
-0.000832292
-0.00246683
-0.000775551
-0.00292547
-0.000549104
-0.00306402
-0.000210998
-0.00252294
-0.0010553
-2.57859e-05
0.000271422
-7.67826e-05
0.000660048
-0.000128935
0.000903245
-0.000169002
0.00103947
-0.00019191
0.00110584
-0.000196987
0.00113041
-0.000185504
0.00113218
-0.000159417
0.00112273
-0.000120887
0.00110807
-7.21951e-05
0.00109021
-1.58529e-05
0.00106836
4.52461e-05
0.00103985
0.000107732
0.00100084
0.000167694
0.000947016
0.000220756
0.000874085
0.000262254
0.000778267
0.000287191
0.000656453
0.000290871
0.000506303
0.00026927
0.000325678
0.000218697
0.00011156
0.000135999
-0.000141183
1.93726e-05
-0.000440536
-0.000130453
-0.000798076
-0.000307679
-0.0012271
-0.000493528
-0.00173705
-0.000646174
-0.00231418
-0.000694614
-0.00287703
-0.000560343
-0.00319829
-0.00024864
-0.00283464
-0.00130394
-4.07144e-05
0.000312136
-0.00011018
0.000729513
-0.000171966
0.000965031
-0.000210433
0.00107794
-0.000222282
0.00111769
-0.000209455
0.00111758
-0.000175466
0.00109819
-0.000123898
0.00107116
-5.80212e-05
0.00104219
1.91302e-05
0.00101305
0.000104494
0.000982992
0.00019478
0.000949562
0.000286261
0.000909363
0.000374721
0.000858555
0.0004555
0.000793307
0.000523632
0.000710135
0.000574031
0.000606054
0.0006018
0.000478534
0.000602427
0.000325051
0.000571737
0.000142249
0.000505656
-7.51015e-05
0.000400552
-0.000335432
0.000253056
-0.00065058
6.27842e-05
-0.00103683
-0.000161958
-0.00151231
-0.000390986
-0.00208516
-0.000552706
-0.00271531
-0.000538553
-0.00321244
-0.000286636
-0.00308656
-0.00159057
-6.83985e-05
0.000380535
-0.000165692
0.000826807
-0.000238456
0.00103779
-0.000271227
0.00111071
-0.000265477
0.00111194
-0.000227732
0.00107984
-0.000164796
0.00103525
-8.23664e-05
0.000988732
1.50275e-05
0.000944796
0.000123582
0.0009045
0.000239868
0.000866706
0.000360386
0.000829044
0.00048135
0.000788399
0.000598562
0.000741342
0.000707424
0.000684445
0.000803038
0.000614521
0.000880376
0.000528716
0.000934478
0.000424432
0.000960555
0.000298974
0.000953893
0.000148911
0.000909466
-3.06751e-05
0.000821994
-0.00024796
0.00068509
-0.000513676
0.000492404
-0.000844143
0.000241779
-0.00126169
-5.15557e-05
-0.00179182
-0.000331876
-0.00243499
-0.000465021
-0.0030793
-0.000315998
-0.00323558
-0.00190657
-0.00011874
0.000499275
-0.00025192
0.000959986
-0.000328157
0.00111403
-0.000340734
0.00112329
-0.000301367
0.00107257
-0.000223877
0.00100235
-0.000119463
0.00093084
3.78294e-06
0.000865486
0.000140107
0.000808471
0.000285312
0.000759295
0.000435896
0.000716122
0.000588579
0.00067636
0.000739937
0.000637041
0.000886211
0.000595069
0.00102325
0.000547408
0.00114655
0.000491215
0.00125139
0.000423881
0.00133287
0.000342946
0.00138601
0.00024584
0.00140547
0.000129448
0.00138507
-1.02763e-05
0.00131823
-0.000181112
0.00119581
-0.000391263
0.00100695
-0.000655284
0.000740285
-0.000995019
0.000394061
-0.0014456
7.80362e-06
-0.00204873
-0.000308401
-0.00276309
-0.000323351
-0.00322063
-0.00222992
-0.000207683
0.000706958
-0.000367785
0.00112009
-0.000412164
0.00115841
-0.000365104
0.00107623
-0.000257041
0.000964509
-0.000111671
0.000856978
5.53687e-05
0.0007638
0.000234409
0.000686446
0.000419609
0.000623271
0.000607279
0.000571625
0.000794792
0.000528609
0.000979849
0.000491303
0.00116004
0.000456851
0.00133258
0.000422525
0.00149423
0.000385762
0.00164123
0.000344209
0.00176941
0.000295707
0.00187415
0.000238202
0.00195042
0.000169573
0.0019924
8.7467e-05
0.00199275
-1.06283e-05
0.00194379
-0.000132151
0.00183414
-0.000281614
0.00164971
-0.000470847
0.00137258
-0.00071789
0.000984499
-0.00105752
0.000487795
-0.00155203
-1.2386e-05
-0.00226291
-0.000266019
-0.002967
-0.00249594
-0.000345831
0.00105279
-0.000439472
0.00121373
-0.000348317
0.00106725
-0.000158098
0.000886013
7.6037e-05
0.000730374
0.000325325
0.000607691
0.000575277
0.000513847
0.000819228
0.000442496
0.00105456
0.000387939
0.00128052
0.000345664
0.001497
0.000312134
0.00170383
0.000284468
0.00190044
0.000260237
0.00208563
0.000237337
0.00225747
0.000213923
0.00241331
0.000188371
0.00254977
0.000159242
0.00266278
0.0001252
0.00274748
8.48654e-05
0.00279814
3.68133e-05
0.00280796
-2.04516e-05
0.00276687
-9.10591e-05
0.0026632
-0.000177945
0.00248091
-0.00028856
0.00219814
-0.00043512
0.00178573
-0.0006451
0.00121234
-0.000978644
0.00052074
-0.00157131
-2.05866e-05
-0.00242567
-0.00251653
-0.000306498
0.00135929
-5.8132e-05
0.000965364
0.000367141
0.000641981
0.00078719
0.000465964
0.00117156
0.000345999
0.00151615
0.000263102
0.00182333
0.00020667
0.00209797
0.000167859
0.00234543
0.000140474
0.00257049
0.000120604
0.00277691
0.000105715
0.00296735
9.4031e-05
0.00314336
8.42274e-05
0.00330542
7.52702e-05
0.00345302
6.63268e-05
0.00358468
5.67109e-05
0.00369807
4.58494e-05
0.00379003
3.32412e-05
0.00385638
1.85159e-05
0.00389159
1.6075e-06
0.00389168
-2.05484e-05
0.00384601
-4.53902e-05
0.00374425
-7.61778e-05
0.0035712
-0.000115508
0.00330414
-0.000168062
0.00290721
-0.000248175
0.00232059
-0.000392018
0.00148692
-0.000737647
0.000505385
-0.00144413
-0.00201114
0.00135929
0.00232465
0.00296663
0.0034326
0.0037786
0.0040417
0.00424837
0.00441623
0.0045567
0.00467731
0.00478302
0.00487705
0.00496128
0.00503655
0.00510288
0.00515959
0.00520544
0.00523868
0.00525719
0.0052588
0.00523825
0.00519286
0.00511668
0.00500118
0.00483311
0.00458494
0.00419292
0.00345527
0.00201114
)
;

boundaryField
{
    movingWall
    {
        type            calculated;
        value           uniform 0;
    }
    fixedWalls
    {
        type            calculated;
        value           uniform 0;
    }
    frontAndBack
    {
        type            empty;
        value           nonuniform 0();
    }
}


// ************************************************************************* //
