/*--------------------------------*- C++ -*----------------------------------*\
  =========                 |
  \\      /  F ield         | OpenFOAM: The Open Source CFD Toolbox
   \\    /   O peration     | Website:  https://openfoam.org
    \\  /    A nd           | Version:  7
     \\/     M anipulation  |
\*---------------------------------------------------------------------------*/
FoamFile
{
    version     2.0;
    format      ascii;
    class       volVectorField;
    location    "9.2";
    object      U;
}
// * * * * * * * * * * * * * * * * * * * * * * * * * * * * * * * * * * * * * //

dimensions      [0 1 -1 0 0 0 0];

internalField   nonuniform List<vector> 
900
(
(9.63664e-05 -9.49912e-05 0)
(0.000105898 -9.40383e-06 0)
(-0.000233761 0.000100794 0)
(-0.000862133 0.000186801 0)
(-0.00169844 0.000241741 0)
(-0.0026708 0.000271971 0)
(-0.00371867 0.000285809 0)
(-0.00479676 0.000289298 0)
(-0.00587047 0.000285482 0)
(-0.0069096 0.000274947 0)
(-0.00788337 0.000256595 0)
(-0.00875727 0.000228399 0)
(-0.00949189 0.000188139 0)
(-0.0100438 0.000134123 0)
(-0.0103685 6.59279e-05 0)
(-0.0104253 -1.49925e-05 0)
(-0.0101828 -0.000105454 0)
(-0.00962624 -0.000199094 0)
(-0.00876395 -0.000287609 0)
(-0.00763173 -0.000361414 0)
(-0.00629418 -0.000410913 0)
(-0.00484184 -0.00042815 0)
(-0.00338355 -0.00040843 0)
(-0.00203465 -0.000351571 0)
(-0.000902352 -0.000262499 0)
(-7.13226e-05 -0.000151752 0)
(0.000405346 -3.42756e-05 0)
(0.000524223 7.58318e-05 0)
(0.000355382 0.000140575 0)
(0.000106462 0.000106857 0)
(1.29693e-05 -0.000109675 0)
(-0.000392976 0.000387058 0)
(-0.00156179 0.00094467 0)
(-0.00332571 0.00139732 0)
(-0.00554718 0.00171407 0)
(-0.00808484 0.00190887 0)
(-0.0108075 0.00200747 0)
(-0.0136051 0.00203165 0)
(-0.0163843 0.00199382 0)
(-0.0190589 0.00189716 0)
(-0.0215427 0.001738 0)
(-0.0237436 0.00150903 0)
(-0.0255628 0.00120286 0)
(-0.0268975 0.000815727 0)
(-0.0276475 0.000350783 0)
(-0.0277266 -0.000179395 0)
(-0.0270735 -0.000750095 0)
(-0.0256655 -0.00132476 0)
(-0.0235329 -0.00185744 0)
(-0.020765 -0.00229706 0)
(-0.0175122 -0.00259402 0)
(-0.0139788 -0.00270823 0)
(-0.0104071 -0.00261706 0)
(-0.00705306 -0.00232143 0)
(-0.00415592 -0.00184888 0)
(-0.00190596 -0.00125405 0)
(-0.000413211 -0.000615941 0)
(0.000307525 -3.27708e-05 0)
(0.000382485 0.000356374 0)
(0.00014299 0.000351715 0)
(-0.000109299 0.000238654 0)
(-0.00102735 0.00157466 0)
(-0.00309375 0.00292567 0)
(-0.00595762 0.00402602 0)
(-0.00942903 0.00481813 0)
(-0.0133257 0.00532138 0)
(-0.0174717 0.00558053 0)
(-0.0217129 0.00563661 0)
(-0.0259122 0.0055144 0)
(-0.0299399 0.0052208 0)
(-0.0336652 0.00474889 0)
(-0.0369511 0.00408482 0)
(-0.0396536 0.00321604 0)
(-0.0416266 0.00213976 0)
(-0.0427313 0.000870654 0)
(-0.0428497 -0.000553144 0)
(-0.0418998 -0.00206564 0)
(-0.0398553 -0.00357406 0)
(-0.0367601 -0.00496448 0)
(-0.0327383 -0.00611226 0)
(-0.0279962 -0.00689759 0)
(-0.0228142 -0.00722407 0)
(-0.0175268 -0.00703724 0)
(-0.01249 -0.00633937 0)
(-0.00804146 -0.0051974 0)
(-0.00445583 -0.00374298 0)
(-0.00190238 -0.0021672 0)
(-0.000413022 -0.000715874 0)
(0.000147616 0.000319098 0)
(0.000112114 0.000557851 0)
(-0.000226235 0.000945436 0)
(-0.00165231 0.00350488 0)
(-0.00460843 0.00587691 0)
(-0.00853073 0.0077746 0)
(-0.0131632 0.00914119 0)
(-0.0182874 0.0100132 0)
(-0.0236948 0.0104581 0)
(-0.0292013 0.0105365 0)
(-0.0346402 0.0102847 0)
(-0.0398507 0.00971219 0)
(-0.0446696 0.00880772 0)
(-0.0489259 0.0075506 0)
(-0.052441 0.00592388 0)
(-0.055034 0.00392828 0)
(-0.0565337 0.00159503 0)
(-0.056793 -0.00100434 0)
(-0.0557072 -0.00375413 0)
(-0.0532353 -0.00649176 0)
(-0.0494199 -0.00901969 0)
(-0.0443989 -0.0111223 0)
(-0.0384117 -0.0125912 0)
(-0.0317924 -0.0132566 0)
(-0.0249484 -0.0130189 0)
(-0.018324 -0.0118755 0)
(-0.0123515 -0.0099364 0)
(-0.00739464 -0.00742555 0)
(-0.00369472 -0.00466945 0)
(-0.0013247 -0.0020803 0)
(-0.000164942 -0.000135692 0)
(6.97875e-05 0.000606438 0)
(-0.000328029 0.00198056 0)
(-0.00222786 0.00615139 0)
(-0.00603055 0.00976361 0)
(-0.0109545 0.0125827 0)
(-0.0166721 0.0145934 0)
(-0.0229288 0.0158699 0)
(-0.0294899 0.0165109 0)
(-0.0361511 0.016599 0)
(-0.0427274 0.0161814 0)
(-0.0490387 0.0152684 0)
(-0.0549 0.0138428 0)
(-0.0601157 0.0118752 0)
(-0.0644799 0.00934304 0)
(-0.0677809 0.00625008 0)
(-0.0698142 0.00264466 0)
(-0.0703988 -0.00136691 0)
(-0.0693942 -0.00561542 0)
(-0.0667265 -0.00985961 0)
(-0.0624153 -0.0138069 0)
(-0.0565889 -0.0171344 0)
(-0.0494975 -0.0195251 0)
(-0.041513 -0.0207128 0)
(-0.0331095 -0.0205316 0)
(-0.024825 -0.0189586 0)
(-0.0172023 -0.0161422 0)
(-0.0107193 -0.0124065 0)
(-0.00571673 -0.00823328 0)
(-0.00233516 -0.00422692 0)
(-0.000491388 -0.00107074 0)
(3.49879e-05 0.000483824 0)
(-0.000415742 0.00331428 0)
(-0.00274668 0.00946837 0)
(-0.00733518 0.014538 0)
(-0.013194 0.0183983 0)
(-0.0199252 0.0211162 0)
(-0.0272395 0.0228281 0)
(-0.0348812 0.0236766 0)
(-0.0426339 0.0237712 0)
(-0.0503037 0.0231708 0)
(-0.0577017 0.0218852 0)
(-0.0646308 0.0198877 0)
(-0.0708792 0.0171366 0)
(-0.0762183 0.0135989 0)
(-0.0804064 0.00927622 0)
(-0.0832007 0.00422898 0)
(-0.0843762 -0.00140546 0)
(-0.0837374 -0.00740728 0)
(-0.0811519 -0.0134516 0)
(-0.0765896 -0.0191414 0)
(-0.0701404 -0.0240289 0)
(-0.0620407 -0.0276614 0)
(-0.0526836 -0.0296437 0)
(-0.0426081 -0.0297086 0)
(-0.0324597 -0.0277842 0)
(-0.0229226 -0.0240413 0)
(-0.0146302 -0.0189075 0)
(-0.00806691 -0.0130418 0)
(-0.00347693 -0.00727645 0)
(-0.000834243 -0.00253838 0)
(9.65418e-06 0.000193808 0)
(-0.000492278 0.00491464 0)
(-0.00321118 0.0133973 0)
(-0.00851714 0.0201322 0)
(-0.015238 0.0251511 0)
(-0.0229117 0.0286405 0)
(-0.0312186 0.0308239 0)
(-0.0398876 0.0319027 0)
(-0.0486976 0.0320205 0)
(-0.0574554 0.03125 0)
(-0.0659725 0.0295986 0)
(-0.0740493 0.0270263 0)
(-0.0814648 0.023472 0)
(-0.0879718 0.0188838 0)
(-0.0932977 0.0132502 0)
(-0.0971542 0.00662952 0)
(-0.0992607 -0.000821502 0)
(-0.0993438 -0.00881967 0)
(-0.097182 -0.0169812 0)
(-0.0926659 -0.0247946 0)
(-0.0858116 -0.031665 0)
(-0.0768093 -0.0369705 0)
(-0.0660511 -0.0401409 0)
(-0.0541337 -0.0407561 0)
(-0.041825 -0.0386464 0)
(-0.0299888 -0.0339729 0)
(-0.0194706 -0.0272613 0)
(-0.0109615 -0.0193733 0)
(-0.00486239 -0.0114188 0)
(-0.00123488 -0.00462903 0)
(-1.36399e-05 -0.000270606 0)
(-0.00055944 0.00675225 0)
(-0.0036235 0.0178779 0)
(-0.00957423 0.0264732 0)
(-0.0170789 0.0327669 0)
(-0.0256207 0.0370978 0)
(-0.0348563 0.0398011 0)
(-0.0445059 0.0411524 0)
(-0.0543518 0.0413378 0)
(-0.0642098 0.0404466 0)
(-0.0739015 0.0384823 0)
(-0.0832336 0.0353864 0)
(-0.0919834 0.0310695 0)
(-0.0998899 0.025448 0)
(-0.106651 0.0184813 0)
(-0.111928 0.0102096 0)
(-0.115348 0.000791332 0)
(-0.11656 -0.00945878 0)
(-0.115243 -0.0200905 0)
(-0.111148 -0.0304755 0)
(-0.10418 -0.0398548 0)
(-0.0944454 -0.0473991 0)
(-0.0822991 -0.0523057 0)
(-0.0683753 -0.0539293 0)
(-0.053569 -0.0519286 0)
(-0.03896 -0.0463968 0)
(-0.0256735 -0.0379356 0)
(-0.0146925 -0.0276343 0)
(-0.00665138 -0.0169485 0)
(-0.00174904 -0.0075032 0)
(-4.12729e-05 -0.000946791 0)
(-0.000617486 0.00879872 0)
(-0.0039821 0.0228478 0)
(-0.0104994 0.0334838 0)
(-0.018702 0.0411666 0)
(-0.0280297 0.046417 0)
(-0.0381227 0.0497039 0)
(-0.0487002 0.0513925 0)
(-0.0595552 0.0517207 0)
(-0.0705211 0.050798 0)
(-0.0814384 0.0486229 0)
(-0.092129 0.0451118 0)
(-0.102376 0.040136 0)
(-0.11191 0.0335638 0)
(-0.1204 0.0253056 0)
(-0.12745 0.0153609 0)
(-0.132611 0.00386384 0)
(-0.135417 -0.00888016 0)
(-0.135408 -0.0223507 0)
(-0.132185 -0.0358099 0)
(-0.125497 -0.0483224 0)
(-0.115315 -0.0588139 0)
(-0.101906 -0.0661838 0)
(-0.0858977 -0.0694705 0)
(-0.0682923 -0.0680552 0)
(-0.0504061 -0.0618675 0)
(-0.0337138 -0.0515305 0)
(-0.0195968 -0.0383754 0)
(-0.00903492 -0.0242869 0)
(-0.00244818 -0.0114105 0)
(-8.44567e-05 -0.00191014 0)
(-0.000665463 0.0110238 0)
(-0.00428155 0.0282395 0)
(-0.0112787 0.0410787 0)
(-0.0200823 0.0502616 0)
(-0.0300996 0.0565156 0)
(-0.0409624 0.0604638 0)
(-0.0523951 0.0625762 0)
(-0.0642085 0.0631517 0)
(-0.0762609 0.0623243 0)
(-0.0884197 0.0600864 0)
(-0.10053 0.0563227 0)
(-0.11239 0.0508526 0)
(-0.123727 0.0434779 0)
(-0.134187 0.0340349 0)
(-0.143322 0.0224513 0)
(-0.150603 0.00880514 0)
(-0.155444 -0.00661961 0)
(-0.157236 -0.0232758 0)
(-0.155403 -0.0403302 0)
(-0.149506 -0.0566672 0)
(-0.139323 -0.0709385 0)
(-0.124965 -0.0816822 0)
(-0.106981 -0.0875166 0)
(-0.0864207 -0.0874074 0)
(-0.0648204 -0.0809732 0)
(-0.044056 -0.0687493 0)
(-0.0260303 -0.0522877 0)
(-0.0122232 -0.0339931 0)
(-0.00341 -0.0166993 0)
(-0.000153869 -0.0032712 0)
(-0.000701644 0.0133934 0)
(-0.00451357 0.0339773 0)
(-0.0118924 0.0491611 0)
(-0.0211848 0.0599477 0)
(-0.0317759 0.067292 0)
(-0.043295 0.0719888 0)
(-0.0554771 0.0746267 0)
(-0.0681552 0.0755755 0)
(-0.0812181 0.0749987 0)
(-0.0945662 0.0728819 0)
(-0.108075 0.0690721 0)
(-0.121564 0.0633242 0)
(-0.134769 0.0553543 0)
(-0.147319 0.0448998 0)
(-0.158729 0.0317864 0)
(-0.168396 0.0160014 0)
(-0.175628 -0.00222913 0)
(-0.17967 -0.022356 0)
(-0.17977 -0.0434882 0)
(-0.175272 -0.0643452 0)
(-0.165718 -0.0832977 0)
(-0.150983 -0.0984774 0)
(-0.131429 -0.107983 0)
(-0.108043 -0.110201 0)
(-0.082503 -0.104234 0)
(-0.0570887 -0.0903327 0)
(-0.0343407 -0.0701777 0)
(-0.0164386 -0.0467638 0)
(-0.00471944 -0.0238257 0)
(-0.000261077 -0.00518403 0)
(-0.000723997 0.0158681 0)
(-0.00466874 0.039975 0)
(-0.0123184 0.0576194 0)
(-0.0219697 0.0701016 0)
(-0.0329944 0.0786185 0)
(-0.0450228 0.0841516 0)
(-0.057803 0.0874209 0)
(-0.071192 0.088877 0)
(-0.0851109 0.0887182 0)
(-0.0994961 0.086924 0)
(-0.114258 0.0832986 0)
(-0.129245 0.0775216 0)
(-0.144209 0.069207 0)
(-0.158782 0.0579709 0)
(-0.172455 0.0435104 0)
(-0.184582 0.025692 0)
(-0.194381 0.00464787 0)
(-0.200992 -0.0191243 0)
(-0.203514 -0.0447007 0)
(-0.201074 -0.0706811 0)
(-0.192944 -0.0951852 0)
(-0.178692 -0.115933 0)
(-0.158366 -0.130432 0)
(-0.13272 -0.13633 0)
(-0.103409 -0.131946 0)
(-0.0730293 -0.116944 0)
(-0.0448263 -0.0929075 0)
(-0.0219075 -0.0634191 0)
(-0.00647043 -0.0333578 0)
(-0.000419947 -0.00784968 0)
(-0.000730711 0.0184029 0)
(-0.0047389 0.0461358 0)
(-0.0125369 0.0663269 0)
(-0.0223999 0.0805776 0)
(-0.0336917 0.0903359 0)
(-0.0460444 0.0967813 0)
(-0.0592174 0.100777 0)
(-0.0730903 0.102863 0)
(-0.0876142 0.103279 0)
(-0.102761 0.102 0)
(-0.118477 0.0987847 0)
(-0.134643 0.093231 0)
(-0.15104 0.0848388 0)
(-0.167315 0.0730872 0)
(-0.18297 0.0575257 0)
(-0.197347 0.0378777 0)
(-0.209641 0.0141502 0)
(-0.218924 -0.0132573 0)
(-0.224195 -0.0434313 0)
(-0.224418 -0.0749245 0)
(-0.218603 -0.105678 0)
(-0.205953 -0.133054 0)
(-0.186076 -0.153964 0)
(-0.159287 -0.165189 0)
(-0.12696 -0.163984 0)
(-0.0917887 -0.148994 0)
(-0.0576681 -0.121285 0)
(-0.0288414 -0.0848613 0)
(-0.00876619 -0.0459739 0)
(-0.00064815 -0.0115216 0)
(-0.000720825 0.0209493 0)
(-0.00472008 0.0523552 0)
(-0.0125373 0.0751435 0)
(-0.0224511 0.0912089 0)
(-0.0338197 0.102252 0)
(-0.0462732 0.109659 0)
(-0.0595779 0.114445 0)
(-0.0736294 0.117249 0)
(-0.0884032 0.118358 0)
(-0.103901 0.117747 0)
(-0.120103 0.11513 0)
(-0.136927 0.110021 0)
(-0.154189 0.101801 0)
(-0.171576 0.0898084 0)
(-0.188627 0.0734381 0)
(-0.204728 0.0522593 0)
(-0.219111 0.0261384 0)
(-0.230853 -0.00464425 0)
(-0.238942 -0.0392893 0)
(-0.242261 -0.0763511 0)
(-0.239603 -0.113719 0)
(-0.22981 -0.148523 0)
(-0.211963 -0.177169 0)
(-0.185726 -0.195541 0)
(-0.151866 -0.19958 0)
(-0.112799 -0.186404 0)
(-0.0728235 -0.15589 0)
(-0.0373996 -0.111995 0)
(-0.0117154 -0.062447 0)
(-0.000968486 -0.0165109 0)
(-0.000694901 0.0234579 0)
(-0.00461597 0.0585267 0)
(-0.0123259 0.0839225 0)
(-0.0221248 0.101813 0)
(-0.0333629 0.114147 0)
(-0.0456615 0.122521 0)
(-0.0587856 0.12811 0)
(-0.0726379 0.131661 0)
(-0.0872088 0.133515 0)
(-0.102522 0.133653 0)
(-0.118587 0.131749 0)
(-0.135357 0.127237 0)
(-0.152695 0.119389 0)
(-0.170347 0.107407 0)
(-0.187925 0.0905405 0)
(-0.204904 0.0682117 0)
(-0.220623 0.0401428 0)
(-0.234285 0.00647079 0)
(-0.244931 -0.0321541 0)
(-0.251453 -0.0744014 0)
(-0.252572 -0.11826 0)
(-0.246824 -0.160826 0)
(-0.232745 -0.198195 0)
(-0.209203 -0.225466 0)
(-0.176024 -0.237156 0)
(-0.134851 -0.228347 0)
(-0.0898858 -0.196826 0)
(-0.0476262 -0.145587 0)
(-0.0154214 -0.0836074 0)
(-0.00140975 -0.0231896 0)
(-0.000655744 0.0258838 0)
(-0.00444158 0.0645525 0)
(-0.0119343 0.0925219 0)
(-0.0214612 0.112201 0)
(-0.0323572 0.125779 0)
(-0.044225 0.135064 0)
(-0.0568185 0.141399 0)
(-0.0700374 0.145645 0)
(-0.0838771 0.148207 0)
(-0.0983746 0.149077 0)
(-0.113562 0.147901 0)
(-0.129431 0.144044 0)
(-0.145897 0.136684 0)
(-0.162784 0.124911 0)
(-0.179812 0.107852 0)
(-0.196593 0.0848046 0)
(-0.212637 0.0553605 0)
(-0.227331 0.0195133 0)
(-0.239888 -0.0222451 0)
(-0.249351 -0.0688313 0)
(-0.254482 -0.118482 0)
(-0.25365 -0.168498 0)
(-0.244937 -0.21497 0)
(-0.226382 -0.252504 0)
(-0.196626 -0.27429 0)
(-0.156023 -0.273037 0)
(-0.107948 -0.243434 0)
(-0.0593639 -0.186058 0)
(-0.0199652 -0.110269 0)
(-0.00200774 -0.0319866 0)
(-0.000609179 0.0281941 0)
(-0.00422735 0.0703572 0)
(-0.0114283 0.10082 0)
(-0.0205533 0.122196 0)
(-0.0309081 0.136904 0)
(-0.0420657 0.146967 0)
(-0.0537603 0.153903 0)
(-0.0658809 0.158696 0)
(-0.0784201 0.161821 0)
(-0.0914218 0.163295 0)
(-0.104938 0.162747 0)
(-0.118998 0.159494 0)
(-0.133582 0.152644 0)
(-0.148609 0.141208 0)
(-0.16393 0.124227 0)
(-0.179332 0.100911 0)
(-0.194537 0.0707577 0)
(-0.209179 0.0336413 0)
(-0.222721 -0.0101362 0)
(-0.23447 -0.0598338 0)
(-0.243361 -0.114014 0)
(-0.247785 -0.170442 0)
(-0.245558 -0.225577 0)
(-0.234014 -0.273987 0)
(-0.210547 -0.307918 0)
(-0.173812 -0.317693 0)
(-0.125545 -0.294038 0)
(-0.0721676 -0.233216 0)
(-0.0253859 -0.143116 0)
(-0.00280739 -0.0433765 0)
(-0.000565041 0.0303772 0)
(-0.00402387 0.0759076 0)
(-0.010918 0.108737 0)
(-0.01956 0.131648 0)
(-0.0292062 0.147288 0)
(-0.03939 0.157905 0)
(-0.0498217 0.1652 0)
(-0.0603777 0.170288 0)
(-0.0710469 0.173725 0)
(-0.0818793 0.175564 0)
(-0.0929491 0.175432 0)
(-0.104328 0.172628 0)
(-0.11607 0.166221 0)
(-0.128203 0.155177 0)
(-0.140729 0.138497 0)
(-0.153626 0.115345 0)
(-0.166846 0.0851614 0)
(-0.180296 0.0477254 0)
(-0.193792 0.00316238 0)
(-0.206905 -0.0480917 0)
(-0.218824 -0.105073 0)
(-0.228206 -0.166204 0)
(-0.232853 -0.228672 0)
(-0.229664 -0.287551 0)
(-0.214947 -0.334792 0)
(-0.185514 -0.358775 0)
(-0.14075 -0.345853 0)
(-0.0852552 -0.285984 0)
(-0.0316663 -0.182543 0)
(-0.00386863 -0.0578625 0)
(-0.000538877 0.0324564 0)
(-0.00390854 0.0812359 0)
(-0.0105693 0.116258 0)
(-0.0187198 0.140459 0)
(-0.0275399 0.156734 0)
(-0.0365182 0.167575 0)
(-0.0453467 0.174881 0)
(-0.0538975 0.179913 0)
(-0.0621644 0.183312 0)
(-0.0702123 0.185181 0)
(-0.0781448 0.185169 0)
(-0.0860872 0.182579 0)
(-0.0941767 0.176477 0)
(-0.102562 0.165828 0)
(-0.111405 0.149629 0)
(-0.120881 0.12704 0)
(-0.131173 0.0974813 0)
(-0.142454 0.0606614 0)
(-0.154837 0.0165634 0)
(-0.16822 -0.0346001 0)
(-0.182155 -0.0924332 0)
(-0.195641 -0.156102 0)
(-0.206738 -0.223796 0)
(-0.212287 -0.291631 0)
(-0.207907 -0.352089 0)
(-0.188744 -0.392505 0)
(-0.151456 -0.395172 0)
(-0.097533 -0.342215 0)
(-0.0387324 -0.228472 0)
(-0.00527993 -0.0759629 0)
(-0.000555562 0.0345065 0)
(-0.003997 0.086471 0)
(-0.0106205 0.123463 0)
(-0.0183658 0.148602 0)
(-0.0263039 0.16509 0)
(-0.0338854 0.175706 0)
(-0.0408036 0.182574 0)
(-0.0469504 0.187105 0)
(-0.0523461 0.190041 0)
(-0.0570876 0.191542 0)
(-0.0613241 0.1913 0)
(-0.0652461 0.188647 0)
(-0.0690851 0.182683 0)
(-0.073116 0.172403 0)
(-0.0776594 0.15684 0)
(-0.0830789 0.135181 0)
(-0.0897732 0.10686 0)
(-0.0981465 0.0715459 0)
(-0.108552 0.0291033 0)
(-0.121192 -0.0204802 0)
(-0.135977 -0.0772602 0)
(-0.152313 -0.141151 0)
(-0.168725 -0.21147 0)
(-0.182391 -0.285791 0)
(-0.188782 -0.357955 0)
(-0.181893 -0.41551 0)
(-0.155724 -0.437828 0)
(-0.107699 -0.398695 0)
(-0.046463 -0.280159 0)
(-0.00718236 -0.0982128 0)
(-0.000657467 0.0366827 0)
(-0.00446474 0.0918774 0)
(-0.0114089 0.130551 0)
(-0.0189445 0.156133 0)
(-0.0260045 0.172258 0)
(-0.0320292 0.182069 0)
(-0.0367569 0.187945 0)
(-0.0401421 0.191461 0)
(-0.0422664 0.19346 0)
(-0.0432863 0.19417 0)
(-0.0434153 0.193336 0)
(-0.042923 0.190344 0)
(-0.0421413 0.184353 0)
(-0.0414702 0.174422 0)
(-0.041378 0.15964 0)
(-0.0423893 0.139243 0)
(-0.0450888 0.112708 0)
(-0.0500801 0.0796668 0)
(-0.0578886 0.039873 0)
(-0.0689401 -0.00685483 0)
(-0.0834412 -0.0608971 0)
(-0.101205 -0.12283 0)
(-0.121334 -0.193042 0)
(-0.141662 -0.270741 0)
(-0.158108 -0.351805 0)
(-0.164274 -0.425375 0)
(-0.152043 -0.469773 0)
(-0.114374 -0.451371 0)
(-0.0546815 -0.336026 0)
(-0.00979734 -0.12519 0)
(-0.000922716 0.0392673 0)
(-0.00558848 0.0979087 0)
(-0.0134134 0.137869 0)
(-0.0210399 0.16319 0)
(-0.0272544 0.178176 0)
(-0.0315573 0.186449 0)
(-0.0338089 0.190685 0)
(-0.0340909 0.192626 0)
(-0.0325945 0.193204 0)
(-0.0295681 0.192712 0)
(-0.0253099 0.190954 0)
(-0.0201779 0.187386 0)
(-0.0146038 0.181244 0)
(-0.00910208 0.171671 0)
(-0.00426838 0.157832 0)
(-0.000737651 0.139017 0)
(0.000752543 0.114695 0)
(-0.000588204 0.0845055 0)
(-0.00537239 0.0481664 0)
(-0.0141304 0.00532069 0)
(-0.0273209 -0.0446533 0)
(-0.0451116 -0.102801 0)
(-0.0671745 -0.170367 0)
(-0.0921957 -0.248108 0)
(-0.117055 -0.334287 0)
(-0.135853 -0.420899 0)
(-0.139308 -0.48757 0)
(-0.116153 -0.495709 0)
(-0.0630742 -0.393547 0)
(-0.0134333 -0.157546 0)
(-0.00150484 0.0427593 0)
(-0.00782363 0.105277 0)
(-0.0173166 0.145917 0)
(-0.0253877 0.169957 0)
(-0.030734 0.182765 0)
(-0.0330597 0.188603 0)
(-0.0324702 0.190474 0)
(-0.0292627 0.190261 0)
(-0.0237942 0.188962 0)
(-0.016438 0.186912 0)
(-0.00759166 0.183965 0)
(0.00229858 0.179649 0)
(0.0127137 0.173284 0)
(0.0230486 0.164105 0)
(0.0326141 0.15136 0)
(0.0406583 0.134394 0)
(0.0463708 0.112661 0)
(0.0489296 0.0857973 0)
(0.0476029 0.0534967 0)
(0.0417427 0.0152649 0)
(0.0307666 -0.0296907 0)
(0.0142535 -0.0826676 0)
(-0.00799721 -0.145479 0)
(-0.0355698 -0.220048 0)
(-0.0666469 -0.306997 0)
(-0.0966815 -0.402041 0)
(-0.116494 -0.488625 0)
(-0.111454 -0.527029 0)
(-0.0709611 -0.449142 0)
(-0.0184085 -0.19597 0)
(-0.00271462 0.0480423 0)
(-0.0119379 0.115038 0)
(-0.02407 0.155304 0)
(-0.0328277 0.176556 0)
(-0.0370303 0.185814 0)
(-0.0368516 0.188151 0)
(-0.0328233 0.18688 0)
(-0.0255658 0.183966 0)
(-0.0156599 0.180408 0)
(-0.00362903 0.176537 0)
(0.010026 0.172236 0)
(0.0247818 0.167084 0)
(0.0400577 0.160483 0)
(0.0551956 0.151756 0)
(0.0694567 0.140228 0)
(0.0820377 0.125294 0)
(0.0920964 0.106443 0)
(0.0987923 0.0832693 0)
(0.101338 0.0553801 0)
(0.0990085 0.0222266 0)
(0.0911162 -0.0170602 0)
(0.0770253 -0.0638717 0)
(0.0561302 -0.120263 0)
(0.0280237 -0.188832 0)
(-0.00692755 -0.272082 0)
(-0.0461904 -0.369687 0)
(-0.0821437 -0.471156 0)
(-0.0981465 -0.540593 0)
(-0.0768621 -0.497918 0)
(-0.0247838 -0.240873 0)
(-0.00517665 0.0567137 0)
(-0.0192088 0.128642 0)
(-0.0348579 0.16656 0)
(-0.0439832 0.182778 0)
(-0.0460654 0.186709 0)
(-0.0421958 0.184334 0)
(-0.0335774 0.179165 0)
(-0.0212716 0.173105 0)
(-0.00612967 0.167044 0)
(0.0111673 0.161241 0)
(0.0300287 0.155555 0)
(0.0498852 0.149594 0)
(0.0701382 0.142822 0)
(0.0901276 0.134638 0)
(0.109122 0.124437 0)
(0.12633 0.111666 0)
(0.14092 0.0958335 0)
(0.152056 0.0765076 0)
(0.158924 0.0532437 0)
(0.160739 0.025462 0)
(0.156693 -0.00770859 0)
(0.145958 -0.0476255 0)
(0.127578 -0.0962804 0)
(0.100477 -0.156479 0)
(0.063744 -0.231826 0)
(0.0175369 -0.325462 0)
(-0.0336709 -0.434188 0)
(-0.0728995 -0.531402 0)
(-0.077921 -0.533173 0)
(-0.0318438 -0.291855 0)
(-0.0100922 0.0717511 0)
(-0.0316002 0.14782 0)
(-0.0505365 0.179582 0)
(-0.0579614 0.187437 0)
(-0.0552282 0.183851 0)
(-0.0450224 0.175533 0)
(-0.0295052 0.165878 0)
(-0.0102734 0.156478 0)
(0.0115481 0.147945 0)
(0.0351557 0.140355 0)
(0.0599246 0.133478 0)
(0.0853077 0.12691 0)
(0.110758 0.120152 0)
(0.135684 0.112661 0)
(0.159431 0.103902 0)
(0.181278 0.0933674 0)
(0.200455 0.0805982 0)
(0.216158 0.0651636 0)
(0.227568 0.0466126 0)
(0.233838 0.0243846 0)
(0.234007 -0.00231962 0)
(0.227065 -0.0347053 0)
(0.211734 -0.0745235 0)
(0.186402 -0.124372 0)
(0.149184 -0.188126 0)
(0.0982521 -0.271298 0)
(0.0336626 -0.37791 0)
(-0.0299939 -0.494379 0)
(-0.0693934 -0.546213 0)
(-0.0374885 -0.347421 0)
(-0.0195088 0.0983711 0)
(-0.0512809 0.173261 0)
(-0.0687676 0.191966 0)
(-0.067701 0.186861 0)
(-0.0537262 0.173441 0)
(-0.0318642 0.158381 0)
(-0.00535466 0.144273 0)
(0.0237824 0.13197 0)
(0.0543197 0.121567 0)
(0.0855098 0.112822 0)
(0.116858 0.105347 0)
(0.147977 0.0986863 0)
(0.178488 0.0923534 0)
(0.207968 0.0858612 0)
(0.235919 0.0787398 0)
(0.261763 0.0705507 0)
(0.284839 0.0608883 0)
(0.304414 0.0493655 0)
(0.319688 0.035575 0)
(0.329775 0.019031 0)
(0.333571 -0.000925823 0)
(0.329909 -0.0251664 0)
(0.317207 -0.055126 0)
(0.293457 -0.0929526 0)
(0.256032 -0.14208 0)
(0.201676 -0.208781 0)
(0.127156 -0.302783 0)
(0.040424 -0.426488 0)
(-0.0436828 -0.527716 0)
(-0.0371012 -0.403072 0)
(-0.0349919 0.142609 0)
(-0.0746786 0.1979 0)
(-0.0708906 0.192731 0)
(-0.0448289 0.170361 0)
(-0.0079671 0.146698 0)
(0.0331303 0.126231 0)
(0.0751336 0.109592 0)
(0.116475 0.0963473 0)
(0.156484 0.0858538 0)
(0.194939 0.0774886 0)
(0.231802 0.0706927 0)
(0.267071 0.0649644 0)
(0.300697 0.0598497 0)
(0.332541 0.0549356 0)
(0.362347 0.0498472 0)
(0.389734 0.0442458 0)
(0.414204 0.0378243 0)
(0.435134 0.0302947 0)
(0.451789 0.0213606 0)
(0.46329 0.010673 0)
(0.468578 -0.00225886 0)
(0.466374 -0.0179162 0)
(0.454839 -0.0372589 0)
(0.4318 -0.0618203 0)
(0.394134 -0.0941458 0)
(0.337992 -0.13965 0)
(0.256957 -0.209888 0)
(0.15279 -0.324341 0)
(0.0153149 -0.465595 0)
(-0.0171527 -0.441631 0)
(-0.037802 0.235406 0)
(-0.0488535 0.202468 0)
(0.0255796 0.151947 0)
(0.0972057 0.116543 0)
(0.164398 0.090532 0)
(0.225287 0.0716251 0)
(0.279562 0.0581167 0)
(0.327895 0.0484035 0)
(0.371226 0.0412844 0)
(0.41044 0.0359512 0)
(0.446262 0.031847 0)
(0.47923 0.0285588 0)
(0.509698 0.025762 0)
(0.537837 0.0231909 0)
(0.563643 0.0206229 0)
(0.58695 0.017868 0)
(0.607439 0.0147623 0)
(0.624648 0.0111576 0)
(0.637983 0.00691834 0)
(0.646619 0.00188623 0)
(0.649761 -0.00405508 0)
(0.646257 -0.0113179 0)
(0.634367 -0.0203032 0)
(0.612117 -0.0317267 0)
(0.576182 -0.0469083 0)
(0.522931 -0.0692897 0)
(0.442495 -0.107185 0)
(0.333317 -0.187745 0)
(0.143228 -0.335653 0)
(0.0605798 -0.412657 0)
(0.231211 0.158583 0)
(0.290901 0.116785 0)
(0.439661 0.075578 0)
(0.537861 0.0503028 0)
(0.604507 0.0341019 0)
(0.653997 0.0235114 0)
(0.692489 0.0166883 0)
(0.723287 0.0123078 0)
(0.748661 0.00945339 0)
(0.770175 0.00754775 0)
(0.788864 0.00623472 0)
(0.805391 0.00528601 0)
(0.820168 0.004548 0)
(0.833413 0.00391269 0)
(0.845193 0.00330131 0)
(0.85545 0.00265405 0)
(0.864021 0.00192489 0)
(0.870656 0.00107346 0)
(0.875029 7.53763e-05 0)
(0.87675 -0.00111449 0)
(0.875286 -0.00240274 0)
(0.869927 -0.00401724 0)
(0.859871 -0.00604147 0)
(0.844142 -0.00861489 0)
(0.820365 -0.012011 0)
(0.786807 -0.0172909 0)
(0.731739 -0.0266571 0)
(0.655251 -0.0486866 0)
(0.453888 -0.109854 0)
(0.313132 -0.1774 0)
)
;

boundaryField
{
    movingWall
    {
        type            fixedValue;
        value           uniform (1 0 0);
    }
    fixedWalls
    {
        type            noSlip;
    }
    frontAndBack
    {
        type            empty;
    }
}


// ************************************************************************* //
