/*--------------------------------*- C++ -*----------------------------------*\
  =========                 |
  \\      /  F ield         | OpenFOAM: The Open Source CFD Toolbox
   \\    /   O peration     | Website:  https://openfoam.org
    \\  /    A nd           | Version:  7
     \\/     M anipulation  |
\*---------------------------------------------------------------------------*/
FoamFile
{
    version     2.0;
    format      ascii;
    class       surfaceScalarField;
    location    "0.69";
    object      phi;
}
// * * * * * * * * * * * * * * * * * * * * * * * * * * * * * * * * * * * * * //

dimensions      [0 3 -1 0 0 0 0];

internalField   nonuniform List<scalar> 
3784
(
-0.00240572
0.00240572
-0.00239422
-1.15083e-05
-0.00102964
-0.00136458
-6.10115e-05
-0.000968625
0.000369671
-0.000430684
0.000868339
-0.000498667
0.00118955
-0.000321212
0.00098858
0.000200969
0.000148134
0.000840446
-0.000834918
0.000983054
-0.00116684
0.000331924
-0.000433575
-0.00073327
0.000772939
-0.00120651
0.00126283
-0.00048989
0.000428108
0.000834724
-0.00112643
0.00155454
-0.00168875
0.00056232
-0.000373371
-0.00131538
0.00125244
-0.00162582
0.00189884
-0.000646391
0.00151274
0.000386099
0.000280391
0.00123235
-0.000966136
0.00124652
-0.00111148
0.000145348
-8.19767e-05
-0.00102951
0.00112526
-0.00120724
0.00127157
-0.000146312
7.9134e-05
0.00119244
-0.0014101
0.00148924
-0.00174676
0.000336659
-0.000512758
-0.001234
0.00102091
-0.00153367
0.00158829
-0.000567381
0.000842231
0.000746064
-0.000637244
0.00147947
-0.00158296
0.000945719
-0.00100437
-0.000578593
0.000488155
-0.00149253
0.0015277
-0.00103954
0.00123364
0.000294065
-0.000174434
0.00140807
-0.00143514
0.0012607
-0.00132121
-0.000113926
-0.00132121
-0.00329201
0.00569774
-0.00348643
0.000182908
-0.00113223
-0.00371877
-0.000125084
-0.00197578
0.000186333
-0.000742102
0.000908622
-0.00122095
0.00127969
-0.000692281
0.000959664
0.000520992
0.000160083
0.00164003
-0.00070767
0.00185081
-0.00139025
0.0010145
-0.00068481
-0.0014387
0.00111569
-0.00300701
0.00143219
-0.000806398
0.000290283
0.00197663
-0.0010089
0.00285372
-0.00185606
0.00140949
-0.000555356
-0.00261609
0.0017532
-0.00393437
0.00213865
-0.00103184
0.00131446
0.00121029
0.000355524
0.00219128
-0.000926142
0.00252819
-0.0015162
0.000735404
-0.000146808
-0.0023989
0.00153951
-0.00289356
0.00126985
0.000123344
-4.03008e-06
0.00246632
-0.00123818
0.00272338
-0.00202101
0.00111949
-0.000733204
-0.00252181
0.00149187
-0.00375874
0.00175983
-0.000835348
0.000675631
0.00183027
-0.000488763
0.00264387
-0.00167474
0.0021317
-0.00140923
-0.000844103
0.000735231
-0.00363699
0.00187981
-0.00218413
0.00106291
0.00111096
-0.000108298
0.00257928
-0.00133764
0.00249005
-0.00178986
0.000338288
-0.00311107
-0.00315875
0.00885648
-0.00376026
0.000784416
-0.00155188
-0.00592716
-0.000164564
-0.00336308
0.000291742
-0.00119841
0.00098152
-0.00191074
0.00137586
-0.00108662
0.0009899
0.000906955
2.65285e-05
0.0026034
-0.00101906
0.00289639
-0.00171634
0.00171178
-0.000767451
-0.00238759
0.00136702
-0.00514148
0.00188279
-0.00132218
0.000682601
0.00317682
-0.000878564
0.00441489
-0.00207807
0.00260899
-0.00093875
-0.00375541
0.00166677
-0.0065399
0.00231057
-0.00167564
0.00119662
0.00232424
-0.000155162
0.00354307
-0.0014879
0.00386093
-0.00186299
0.0011105
-0.000128868
-0.00413302
0.00188013
-0.00490256
0.00172357
0.000279904
0.000287688
0.00390221
-0.00128172
0.00429279
-0.00230913
0.0021469
-0.000952161
-0.00387878
0.00163085
-0.00634175
0.0021348
-0.0013393
0.000873001
0.00309206
-0.00065616
0.00417303
-0.00203527
0.00351081
-0.00166498
-0.00121439
0.000816991
-0.00611896
0.00222875
-0.00359588
0.001345
0.00199471
-0.000166893
0.00409117
-0.0016889
0.00401205
-0.00210181
0.0007512
-0.00521288
-0.00249595
0.0113524
-0.00335394
0.00164241
-0.00194945
-0.00733165
-0.000636484
-0.00467605
3.11304e-05
-0.00186603
0.000608374
-0.00248798
0.000859677
-0.00133792
0.000504001
0.00126263
-0.000187278
0.00329468
-0.000851184
0.0035603
-0.00124413
0.00210473
-0.000509561
-0.00312216
0.00102381
-0.00667485
0.00144003
-0.0017384
0.000688456
0.0039284
-0.000269609
0.00537296
-0.00123783
0.00357721
-0.000776758
-0.00421648
0.0010175
-0.00833416
0.00153298
-0.00219111
0.000561721
0.0032955
-0.000523372
0.00462816
-0.00131739
0.00465496
-0.0013767
0.0011698
-5.54041e-05
-0.00545431
0.00138428
-0.00634225
0.0013323
0.000331886
0.000405772
0.00482874
-0.000676138
0.00537471
-0.00152333
0.00299409
-0.000725509
-0.0046766
0.00110035
-0.00816761
0.00153178
-0.00177073
0.000622512
0.00400134
-0.000465506
0.00526105
-0.00142298
0.00446829
-0.00117716
-0.00146021
0.000567249
-0.00786337
0.00156939
-0.00459802
0.000929843
0.00263426
-0.000128008
0.00514902
-0.00117272
0.00505676
-0.00145865
0.00103714
-0.00667153
-0.00179689
0.0131493
-0.00286864
0.00271415
-0.00224488
-0.00795541
-0.00116213
-0.0057588
-0.00037019
-0.00265797
5.48557e-05
-0.00291303
0.000179094
-0.00146216
-8.06891e-05
0.00152241
-0.000409817
0.00362381
-0.000677373
0.00382786
-0.00076043
0.00218779
-0.000251193
-0.00363141
0.000650139
-0.00757618
0.000956942
-0.0020452
0.000599185
0.00428616
0.000211109
0.00576103
-0.000373305
0.00416162
-0.000559848
-0.00402993
0.000288161
-0.00918216
0.000713399
-0.00261635
5.16244e-05
0.00395727
-0.000678507
0.0053583
-0.000995159
0.00497161
-0.000841119
0.00101576
1.83708e-05
-0.00631381
0.000842022
-0.0071659
0.000840659
0.000333249
0.000425282
0.00524411
-0.000121074
0.00592106
-0.000709595
0.00358261
-0.000462722
-0.00492347
0.000528317
-0.00915865
0.000855068
-0.00209748
0.00034152
0.00451489
-0.000266433
0.005869
-0.000740513
0.00494237
-0.000643756
-0.00155697
0.000297187
-0.00880432
0.000875924
-0.00517676
0.00046633
0.00304385
-9.2498e-05
0.00570785
-0.000593422
0.00555768
-0.000782718
0.00122643
-0.00745425
-0.000998846
0.0141482
-0.00222703
0.00394234
-0.00235473
-0.00782771
-0.00163983
-0.0064737
-0.000883213
-0.00341459
-0.000625326
-0.00317091
-0.000599892
-0.00148759
-0.000663363
0.00158588
-0.000584638
0.00354508
-0.000436707
0.00367993
-0.000249298
0.00200038
-2.44175e-06
-0.00387827
0.000246532
-0.00782516
0.000353875
-0.00215254
0.000377009
0.00426302
0.000504739
0.0056333
0.000393739
0.00427262
-0.000284909
-0.00335128
-0.000390315
-0.00907676
-6.61377e-05
-0.00294053
-0.000284861
0.004176
-0.000542928
0.00561636
-0.000456482
0.00488516
-0.000255281
0.000814556
8.43621e-05
-0.00665345
0.000281173
-0.00736271
0.00025394
0.000360482
0.00029452
0.00520353
0.000302684
0.0059129
9.61736e-05
0.00378912
-0.000177273
-0.00465003
-4.89681e-05
-0.00928695
0.000112932
-0.00225938
3.73596e-05
0.00459046
-2.94799e-05
0.00593584
-1.25084e-05
0.00492539
-9.87249e-05
-0.00147075
1.84972e-05
-0.00892154
0.000132039
-0.0052903
4.85608e-06
0.00317103
-5.37078e-05
0.00576641
-4.19128e-05
0.00554588
-0.000118677
0.0013032
-0.00757293
-0.000116388
0.0142646
-0.00130421
0.00513016
-0.00216037
-0.00697155
-0.00197898
-0.00665509
-0.00141923
-0.00397433
-0.0013117
-0.00327844
-0.00133451
-0.00146478
-0.00114348
0.00139485
-0.000694875
0.00309648
-0.000199544
0.0031846
0.000188753
0.00161208
0.000210666
-0.00390018
-0.000179443
-0.00743504
-0.000284116
-0.00204787
5.42863e-05
0.00392462
0.000623709
0.00506389
0.000941904
0.00395443
3.58584e-05
-0.00244524
-0.000891896
-0.008149
-0.000782934
-0.00304949
-0.00049903
0.0038921
-0.00021021
0.00532754
0.000196947
0.004478
0.000369758
0.000641746
0.000129755
-0.00641345
-0.000299952
-0.00693301
-0.000337484
0.000398013
6.27656e-05
0.00480328
0.000580483
0.00539518
0.000777319
0.00359228
0.000134668
-0.00400738
-0.000543803
-0.00860848
-0.000566748
-0.00223644
-0.000248583
0.00427229
0.000221207
0.00546605
0.000648497
0.0044981
0.000418873
-0.00124112
-0.000234906
-0.00826776
-0.00057054
-0.00495467
-0.00041707
0.00301756
-1.29569e-05
0.0053623
0.000432947
0.00509998
0.000518732
0.00121741
-0.00705419
0.000915374
0.0133492
9.29903e-07
0.0060446
-0.00156383
-0.00540679
-0.00202104
-0.00619789
-0.00180049
-0.00419488
-0.00185237
-0.00322657
-0.00185887
-0.00145827
-0.00143274
0.000968709
-0.000729758
0.0023935
-1.28464e-05
0.00246768
0.000561717
0.00103752
0.00033615
-0.00367461
-0.000593855
-0.00650504
-0.000842828
-0.0017989
-0.00026328
0.00334507
0.000623647
0.00417696
0.0012545
0.00332358
0.000380029
-0.00157077
-0.00113473
-0.00663424
-0.00134294
-0.00284128
-0.000654375
0.00320353
0.000104728
0.00456844
0.000724338
0.00385839
0.000932716
0.000433368
0.000136226
-0.00561696
-0.000831389
-0.00596539
-0.000781991
0.000348614
-0.000125854
0.00414714
0.000748467
0.00452086
0.00126109
0.00307965
0.000436614
-0.0031829
-0.000903165
-0.0072687
-0.00110712
-0.00203249
-0.000459566
0.00362474
0.000422663
0.00458382
0.00110118
0.00381959
0.000869922
-0.00100987
-0.000433007
-0.00696483
-0.00118351
-0.00420417
-0.000762773
0.00259683
3.02972e-05
0.00456923
0.000802494
0.00432778
0.00103054
0.000989363
-0.00602365
0.0019365
0.0114127
0.00158921
0.00639188
-0.000502353
-0.00331522
-0.00161525
-0.00508499
-0.00184477
-0.00396534
-0.00206645
-0.00300489
-0.00205572
-0.001469
-0.00150017
0.000413151
-0.000650723
0.00154405
0.000164277
0.00165268
0.000803675
0.00039812
0.00034303
-0.00321397
-0.000969336
-0.00519267
-0.00130205
-0.00146618
-0.00050819
0.00255121
0.000541362
0.00312741
0.00129356
0.00257138
0.000691747
-0.000968961
-0.00112478
-0.00481771
-0.00166012
-0.00230594
-0.000746557
0.00228997
0.0002836
0.00353828
0.00110868
0.00303331
0.00132363
0.000218422
9.93266e-05
-0.00439266
-0.00123414
-0.00463193
-0.00109044
0.000204919
-0.000228631
0.00328533
0.000831752
0.00346048
0.00155277
0.00235863
0.000686768
-0.0023169
-0.00106815
-0.00551378
-0.00144611
-0.00165453
-0.000582101
0.00276074
0.000498268
0.00350345
0.00136195
0.00295591
0.00116542
-0.000813344
-0.000539204
-0.0052602
-0.00158329
-0.00316009
-0.000929468
0.00194301
6.44933e-05
0.00357527
0.00100329
0.00338898
0.00138108
0.00061157
-0.00464257
0.00256094
0.00885175
0.00303424
0.00591858
0.00087611
-0.0011571
-0.000732111
-0.00347677
-0.00143574
-0.00326171
-0.0018592
-0.00258144
-0.00188581
-0.00144239
-0.00134634
-0.00012632
-0.000517654
0.000715357
0.000298016
0.000837013
0.000856262
-0.000160123
0.000231178
-0.00258889
-0.00122391
-0.00373758
-0.00154371
-0.00114638
-0.000632519
0.00164002
0.000372137
0.00212276
0.00120266
0.00174085
0.000817218
-0.000583514
-0.000946347
-0.00305414
-0.00166049
-0.0015918
-0.000767479
0.00139695
0.000339698
0.00243111
0.00127376
0.00209925
0.00143474
5.74377e-05
4.54242e-05
-0.00300334
-0.00142028
-0.00316622
-0.0012681
5.27386e-05
-0.000280135
0.00229736
0.000771022
0.00240932
0.00157795
0.00155171
0.000793864
-0.00153281
-0.0010463
-0.00367361
-0.00151208
-0.00118875
-0.000571759
0.00182041
0.000503375
0.00242832
0.00144584
0.00201345
0.00125239
-0.000619903
-0.000539244
-0.00346856
-0.00164435
-0.00205498
-0.000963306
0.00126196
0.000109775
0.00250219
0.00114454
0.00235422
0.00148781
0.000268295
-0.00315476
0.00253118
0.00632057
0.00362835
0.00482141
0.00207523
0.000396032
0.000396315
-0.00179785
-0.000636322
-0.00222906
-0.00125386
-0.00196391
-0.00139645
-0.0012998
-0.00101086
-0.000511905
-0.000338033
4.25228e-05
0.000362628
0.000136346
0.000739219
-0.000536714
6.12522e-05
-0.00191092
-0.00125822
-0.00241811
-0.00151939
-0.000885211
-0.000691563
0.00081219
0.000196828
0.00123437
0.000953776
0.000983907
0.000710713
-0.000340452
-0.00070194
-0.00164149
-0.00137071
-0.000923031
-0.00068429
0.000710535
0.000314951
0.00143187
0.00117361
0.0012406
0.00124814
-1.70993e-05
-1.56627e-06
-0.00175364
-0.00132242
-0.00184537
-0.00122696
-4.27098e-05
-0.000287484
0.00135788
0.00065287
0.00146896
0.00135043
0.000854149
0.000725278
-0.000907661
-0.000867499
-0.00208083
-0.00131605
-0.000740197
-0.000507247
0.00101161
0.000449441
0.00147164
0.00130419
0.00115871
0.00109712
-0.000412838
-0.000452519
-0.00191892
-0.00138927
-0.00111822
-0.000839604
0.000712287
0.00014344
0.00151914
0.00110681
0.00139086
0.00132218
5.29236e-05
-0.00183259
0.0020783
0.00424227
0.00336103
0.00353867
0.00255189
0.00120517
0.00130166
-0.000547618
0.000254549
-0.00118195
-0.000443219
-0.00126614
-0.000709035
-0.00103398
-0.000546758
-0.000674185
-9.537e-05
-0.000408865
0.000395179
-0.000354206
0.000561283
-0.000702821
-4.6525e-05
-0.00130312
-0.00103331
-0.00143132
-0.0012424
-0.000676118
-0.000651279
0.000221073
3.70258e-05
0.000546066
0.000595836
0.000425096
0.000447118
-0.000191738
-0.000458083
-0.000736293
-0.000931257
-0.000449854
-0.000498725
0.000278008
0.000245677
0.000687471
0.000877691
0.000608578
0.000889535
-2.89462e-05
-1.986e-05
-0.000844239
-0.000979905
-0.000885329
-0.000956835
-6.57777e-05
-0.000248705
0.000649752
0.000474192
0.000746065
0.000955954
0.000372388
0.000514182
-0.00046589
-0.000599073
-0.000967581
-0.000949137
-0.00039013
-0.000389483
0.000451953
0.000339728
0.000742427
0.000955795
0.000542643
0.000761047
-0.000218093
-0.000313775
-0.000844098
-0.000958484
-0.000473512
-0.000599269
0.000353074
0.000146898
0.000772976
0.000869223
0.000668529
0.00095619
-3.40429e-05
-0.000876394
0.00131736
0.00292492
0.002425
0.00243103
0.00236033
0.00126985
0.00162137
0.000191348
0.000842429
-0.000403012
0.000259955
-0.00068366
-3.21312e-05
-0.000741893
-2.04023e-05
-0.000685912
0.000185699
-0.000614971
0.000425815
-0.000594325
0.000421349
-0.000698354
-3.22515e-05
-0.00084952
-0.000651525
-0.000812053
-0.000833042
-0.000494597
-0.000510295
-0.00010167
-6.7785e-05
0.000103553
0.000267774
8.95324e-05
0.000195009
-0.000118973
-0.000255349
-0.00028593
-0.000509994
-0.000195205
-0.000289993
5.80058e-05
0.000157781
0.000239692
0.000536
0.000230356
0.000522187
-1.51325e-05
-1.22619e-05
-0.000309787
-0.000566292
-0.000331298
-0.000588502
-4.3567e-05
-0.000172753
0.000234001
0.000288126
0.000285185
0.000546449
0.000114066
0.000277414
-0.000196855
-0.000333055
-0.000357113
-0.000556961
-0.000166221
-0.000255353
0.000150348
0.000203338
0.000283736
0.000549135
0.000196847
0.000406056
-7.50145e-05
-0.000176102
-0.000261938
-0.000531818
-0.000117795
-0.000341805
0.000163061
0.000119912
0.000311257
0.000545857
0.000242581
0.000552415
-4.06044e-05
-0.000323977
0.000828458
0.00209646
0.00149843
0.00176106
0.00169168
0.0010766
0.00139114
0.000491898
0.000994533
-6.40399e-06
0.000629699
-0.000318829
0.000410127
-0.000522319
0.000345292
-0.000621071
0.000377491
-0.000647173
0.000413779
-0.000630623
0.000318631
-0.000603208
3.35583e-05
-0.000564442
-0.000293569
-0.000484924
-0.000428756
-0.000359411
-0.000319136
-0.000211291
-9.72041e-05
-0.000118379
7.26744e-05
-8.03451e-05
5.5777e-05
-0.000102072
-0.000109592
-0.000120559
-0.000211209
-9.35892e-05
-0.000123352
-2.98571e-05
8.60306e-05
3.03055e-05
0.000266499
4.98897e-05
0.000252297
-9.26404e-07
6.23549e-06
-6.37237e-05
-0.000249086
-7.59794e-05
-0.000272501
-2.01528e-05
-8.66455e-05
4.81462e-05
0.000142592
5.59466e-05
0.000247616
9.04206e-06
0.000115087
-6.43249e-05
-0.000145941
-9.60859e-05
-0.000261661
-5.05e-05
-0.000136101
2.47909e-05
8.63527e-05
6.12827e-05
0.000235875
4.73273e-05
0.000162173
-1.31146e-06
-8.25876e-05
-1.71765e-05
-0.00022546
2.50773e-05
-0.000142296
7.98933e-05
8.05271e-05
8.84317e-05
0.000271215
5.18929e-05
0.000250262
-1.96545e-05
-7.37163e-05
0.000576393
0.00152007
0.000965958
0.00137149
0.0011165
0.000926056
0.00107927
0.000529128
0.000884643
0.000188233
0.000705041
-0.000139222
0.000557219
-0.000374501
0.000458209
-0.000522064
0.000391109
-0.000580074
0.000322398
-0.000561916
0.000215264
-0.000496077
6.56467e-05
-0.00041482
-7.80504e-05
-0.000341223
-0.000154802
-0.00028266
-0.000132813
-0.00023328
-6.30849e-05
-0.000188102
1.75007e-06
-0.000145175
1.00461e-05
-0.000110367
-2.52309e-05
-8.52862e-05
-4.80005e-05
-7.08252e-05
-2.19949e-05
-5.58647e-05
4.72463e-05
-3.89346e-05
0.000107615
-1.04777e-05
9.9306e-05
7.3834e-06
2.28638e-05
1.27185e-05
-6.07833e-05
7.66574e-06
-7.86751e-05
-2.26103e-06
-1.72537e-05
-1.32726e-05
5.93159e-05
-2.06234e-05
8.81436e-05
-1.97884e-05
3.86329e-05
-1.48133e-05
-4.6847e-05
-1.06039e-05
-8.80258e-05
-9.31938e-06
-5.21723e-05
-1.106e-05
2.00181e-05
-1.09059e-05
6.65073e-05
8.40551e-07
4.24243e-05
2.27716e-05
-2.03302e-05
4.55767e-05
-5.03826e-05
5.51305e-05
-1.59097e-05
4.54202e-05
5.28258e-05
1.96927e-05
0.000104509
2.09911e-07
8.4498e-05
3.57e-07
1.0779e-05
0.000447752
0.00107231
0.000761744
0.0010575
0.000892737
0.000795065
0.000902511
0.000519351
0.000843635
0.000247111
0.00070455
-1.31873e-07
0.000565985
-0.000235936
0.000431052
-0.000387137
0.000308086
-0.00045711
0.000202134
-0.000455961
0.00011394
-0.000407882
4.44393e-05
-0.000345318
-4.55102e-06
-0.000292232
-3.11513e-05
-0.000256056
-3.57089e-05
-0.000228716
-2.39461e-05
-0.000199861
-5.91513e-06
-0.000163208
7.02251e-06
-0.000123309
1.32735e-05
-9.15411e-05
1.61774e-05
-7.37318e-05
2.26033e-05
-6.22911e-05
3.15287e-05
-4.78585e-05
4.43712e-05
-2.33205e-05
4.71201e-05
4.63271e-06
3.84056e-05
2.14333e-05
2.65866e-05
1.94858e-05
2.2134e-05
2.19125e-06
2.65476e-05
-1.76859e-05
3.15026e-05
-2.55792e-05
3.00357e-05
-1.83236e-05
1.92299e-05
-4.00579e-06
5.44e-06
3.19078e-06
-2.94715e-06
-9.29174e-07
-2.3239e-06
-1.1683e-05
2.20415e-06
-1.54346e-05
5.22859e-06
-2.18167e-06
5.8229e-06
2.21809e-05
8.2203e-06
4.31793e-05
1.53222e-05
4.80276e-05
2.77901e-05
3.29545e-05
3.52991e-05
1.21819e-05
3.14288e-05
4.0766e-06
1.62666e-05
1.55208e-05
2.70468e-05
0.000343455
0.000728847
0.000635081
0.000765876
0.00079626
0.00063389
0.000850991
0.000464622
0.000823848
0.000274251
0.000741765
8.19506e-05
0.000593823
-8.79917e-05
0.000436652
-0.000229966
0.000287731
-0.000308189
0.000165815
-0.000334044
8.1216e-05
-0.000323281
3.16211e-05
-0.000295722
6.52645e-06
-0.000267133
-6.08828e-06
-0.000243434
-1.28636e-05
-0.000221935
-1.52621e-05
-0.000197464
-1.11697e-05
-0.000167308
-5.42754e-08
-0.000134429
1.37469e-05
-0.000105342
2.3365e-05
-8.33499e-05
2.69751e-05
-6.59035e-05
2.67813e-05
-4.76657e-05
2.94666e-05
-2.6006e-05
3.8311e-05
-4.21305e-06
5.01097e-05
9.63496e-06
5.89303e-05
1.06665e-05
6.00987e-05
1.0209e-06
5.22272e-05
-9.81712e-06
4.10374e-05
-1.43891e-05
3.25935e-05
-9.87751e-06
2.99167e-05
-1.326e-06
3.005e-05
3.06028e-06
2.84754e-05
6.4667e-07
2.13583e-05
-4.56669e-06
1.11757e-05
-5.25301e-06
5.71779e-06
3.27789e-06
9.49187e-06
1.84129e-05
2.03886e-05
3.2288e-05
3.20757e-05
3.63381e-05
3.49848e-05
3.00418e-05
2.64572e-05
2.07099e-05
1.17053e-05
1.88266e-05
2.00447e-06
2.52211e-05
2.90537e-05
0.000245068
0.000483781
0.000484761
0.000526181
0.000655196
0.000463453
0.000748647
0.000371172
0.000767517
0.000255381
0.00072102
0.000128448
0.000626488
6.54205e-06
0.00049252
-9.59956e-05
0.000355154
-0.000170822
0.000234805
-0.000213695
0.000143105
-0.00023158
8.1089e-05
-0.000233703
4.16678e-05
-0.000227705
1.59054e-05
-0.000217666
-2.03702e-06
-0.000203994
-1.36857e-05
-0.000185821
-1.76972e-05
-0.000163299
-1.36136e-05
-0.000138512
-4.72596e-06
-0.000114229
4.05936e-06
-9.21377e-05
1.00837e-05
-7.19297e-05
1.47503e-05
-5.23314e-05
2.19786e-05
-3.3234e-05
3.44188e-05
-1.66556e-05
4.96228e-05
-5.57107e-06
6.17343e-05
-1.44579e-06
6.52948e-05
-2.5413e-06
6.09412e-05
-5.46428e-06
5.23243e-05
-5.7699e-06
4.49933e-05
-2.54298e-06
4.22873e-05
1.38183e-06
4.16709e-05
3.67577e-06
3.87847e-05
3.53097e-06
3.12708e-05
2.94703e-06
2.14072e-05
4.61335e-06
1.4613e-05
1.00756e-05
1.49204e-05
1.81066e-05
2.13192e-05
2.58931e-05
2.76758e-05
2.99833e-05
2.76761e-05
3.00362e-05
1.97867e-05
2.8598e-05
9.39466e-06
2.92216e-05
2.14983e-06
3.2467e-05
3.12033e-05
0.000165188
0.000318593
0.000339368
0.000351999
0.0004824
0.000320418
0.000582564
0.000271009
0.000632388
0.000205558
0.000630921
0.000129915
0.000585296
5.21681e-05
0.000506302
-1.70007e-05
0.000411187
-7.57078e-05
0.000316419
-0.000118927
0.000232379
-0.000147538
0.000163274
-0.000164594
0.00010856
-0.000172987
6.54852e-05
-0.000174591
3.17845e-05
-0.000170298
6.68905e-06
-0.000160728
-9.72419e-06
-0.000146884
-1.79723e-05
-0.000130263
-1.99012e-05
-0.000112304
-1.79402e-05
-9.41007e-05
-1.37228e-05
-7.61452e-05
-7.28092e-06
-5.87732e-05
2.17592e-06
-4.26946e-05
1.45907e-05
-2.90737e-05
2.79589e-05
-1.89408e-05
3.89087e-05
-1.23975e-05
4.48644e-05
-8.49804e-06
4.51925e-05
-5.79037e-06
4.23151e-05
-2.89e-06
3.93577e-05
4.14439e-07
3.73735e-05
3.36491e-06
3.55615e-05
5.48645e-06
3.19709e-05
7.12079e-06
2.61968e-05
8.7201e-06
1.95073e-05
1.13039e-05
1.42801e-05
1.53082e-05
1.26593e-05
1.97262e-05
1.43993e-05
2.41494e-05
1.61221e-05
2.82643e-05
1.52893e-05
3.08716e-05
1.11612e-05
3.27255e-05
5.80632e-06
3.4578e-05
1.73535e-06
3.65398e-05
3.29378e-05
0.000110074
0.000208517
0.000229867
0.000232203
0.000335326
0.000214959
0.000418578
0.000187758
0.000472888
0.000151247
0.000494797
0.000108004
0.000485044
6.19199e-05
0.000450992
1.70527e-05
0.00039679
-2.15052e-05
0.000335037
-5.71733e-05
0.000272112
-8.46103e-05
0.000212292
-0.000104771
0.000157759
-0.000118453
0.000109413
-0.000126247
6.77671e-05
-0.000128653
3.3308e-05
-0.000126267
6.35305e-06
-0.000119927
-1.32895e-05
-0.000110622
-2.62885e-05
-9.93084e-05
-3.3626e-05
-8.67614e-05
-3.61418e-05
-7.36257e-05
-3.44214e-05
-6.0497e-05
-2.90832e-05
-4.80398e-05
-2.12057e-05
-3.69527e-05
-1.24849e-05
-2.76605e-05
-4.66166e-06
-2.02227e-05
1.3842e-06
-1.45449e-05
4.7614e-06
-9.16496e-06
6.43477e-06
-4.56189e-06
7.25917e-06
-4.11132e-07
7.51243e-06
3.10912e-06
6.97497e-06
6.02135e-06
5.46149e-06
8.63609e-06
2.93429e-06
1.12485e-05
9.30289e-08
1.41408e-05
-1.91967e-06
1.73226e-05
-2.99904e-06
2.08091e-05
-2.74783e-06
2.38945e-05
-1.23363e-06
2.67492e-05
-2.76219e-07
2.99188e-05
-2.97923e-07
3.275e-05
-6.21568e-07
3.49012e-05
-5.98942e-07
3.6516e-05
3.2338e-05
7.41327e-05
0.000134382
0.000155814
0.000150518
0.000229906
0.000140867
0.000291865
0.000125796
0.000337507
0.000105601
0.000364128
8.13774e-05
0.000371282
5.47644e-05
0.000360715
2.762e-05
0.000337424
1.78659e-06
0.000300488
-2.02374e-05
0.000258464
-4.25866e-05
0.000213669
-5.99768e-05
0.000168496
-7.32816e-05
0.000124843
-8.2595e-05
8.42428e-05
-8.8052e-05
4.79113e-05
-8.9934e-05
1.66719e-05
-8.86877e-05
-9.05546e-06
-8.48978e-05
-2.92682e-05
-7.90971e-05
-4.41524e-05
-7.1876e-05
-5.40622e-05
-6.37169e-05
-5.94743e-05
-5.50906e-05
-6.10491e-05
-4.6469e-05
-5.97662e-05
-3.82348e-05
-5.67419e-05
-3.06852e-05
-5.30361e-05
-2.39311e-05
-4.95941e-05
-1.79861e-05
-4.59412e-05
-1.28164e-05
-4.27681e-05
-7.73696e-06
-3.97495e-05
-3.42944e-06
-3.71299e-05
4.90384e-07
-3.50919e-05
3.9786e-06
-3.35993e-05
7.14246e-06
-3.24564e-05
1.01102e-05
-3.13196e-05
1.30011e-05
-2.98798e-05
1.58793e-05
-2.76942e-05
1.86274e-05
-2.50818e-05
2.12844e-05
-2.20621e-05
2.37275e-05
-1.80789e-05
2.59347e-05
-1.35237e-05
2.81955e-05
-8.8228e-06
3.02005e-05
-4.13408e-06
3.18268e-05
2.82046e-05
5.05501e-05
8.38308e-05
0.000106646
9.44179e-05
0.000158437
8.9075e-05
0.000203362
8.08671e-05
0.000239011
6.99478e-05
0.000263611
5.6777e-05
0.000276364
4.20121e-05
0.000277531
2.64542e-05
0.000268389
1.09306e-05
0.000251812
-3.65924e-06
0.000226249
-1.70234e-05
0.000195874
-2.96012e-05
0.000162438
-3.9846e-05
0.000127652
-4.78072e-05
9.30709e-05
-5.34695e-05
6.00333e-05
-5.68965e-05
2.95953e-05
-5.82514e-05
2.45286e-06
-5.77559e-05
-2.08969e-05
-5.57462e-05
-4.02733e-05
-5.25001e-05
-5.56689e-05
-4.83253e-05
-6.72473e-05
-4.35153e-05
-7.53646e-05
-3.83497e-05
-8.05216e-05
-3.30757e-05
-8.33275e-05
-2.78821e-05
-8.43614e-05
-2.28988e-05
-8.415e-05
-1.81927e-05
-8.31522e-05
-1.3812e-05
-8.108e-05
-9.81323e-06
-7.85318e-05
-5.97682e-06
-7.55498e-05
-2.48632e-06
-7.2228e-05
6.54102e-07
-6.86189e-05
3.52929e-06
-6.4784e-05
6.27911e-06
-6.06475e-05
8.86696e-06
-5.60661e-05
1.12951e-05
-5.10192e-05
1.35808e-05
-4.54182e-05
1.56867e-05
-3.92421e-05
1.75527e-05
-3.24105e-05
1.91024e-05
-2.48677e-05
2.06519e-05
-1.66363e-05
2.19691e-05
-7.78035e-06
2.29714e-05
2.04254e-05
3.23598e-05
5.14681e-05
6.85855e-05
5.81877e-05
0.000102493
5.51647e-05
0.000132757
5.05963e-05
0.000158128
4.45736e-05
0.000177597
3.73091e-05
0.00019052
2.90902e-05
0.000196716
2.02578e-05
0.000196512
1.11337e-05
0.000190502
2.35077e-06
0.00017949
-6.01158e-06
0.000163522
-1.36348e-05
0.000144116
-2.04406e-05
0.00012233
-2.60223e-05
9.92185e-05
-3.03591e-05
7.57495e-05
-3.343e-05
5.27662e-05
-3.52709e-05
3.09856e-05
-3.59762e-05
1.08982e-05
-3.56585e-05
-7.13069e-06
-3.44735e-05
-2.28794e-05
-3.2581e-05
-3.62518e-05
-3.01439e-05
-4.72772e-05
-2.73205e-05
-5.60947e-05
-2.42564e-05
-6.2904e-05
-2.10759e-05
-6.79246e-05
-1.7879e-05
-7.1374e-05
-1.47379e-05
-7.34766e-05
-1.17066e-05
-7.45609e-05
-8.73216e-06
-7.44187e-05
-6.11875e-06
-7.33169e-05
-3.5828e-06
-7.14224e-05
-1.23989e-06
-6.88321e-05
9.35515e-07
-6.54816e-05
2.92957e-06
-6.14483e-05
4.83662e-06
-5.67435e-05
6.59009e-06
-5.13726e-05
8.20873e-06
-4.53726e-05
9.68738e-06
-3.87976e-05
1.09792e-05
-3.18508e-05
1.21564e-05
-2.43119e-05
1.31132e-05
-1.62121e-05
1.38694e-05
-7.67601e-06
1.44357e-05
1.2749e-05
2.06981e-05
3.07684e-05
4.41087e-05
3.47774e-05
6.62634e-05
3.30104e-05
8.64775e-05
3.03795e-05
0.000104112
2.69403e-05
0.000118621
2.28053e-05
0.000129609
1.8105e-05
0.000136849
1.30192e-05
0.000140255
7.72701e-06
0.000140106
2.50108e-06
0.000136574
-2.47871e-06
0.00013001
-7.07079e-06
0.000120818
-1.12486e-05
0.00010956
-1.47658e-05
9.67885e-05
-1.75893e-05
8.3046e-05
-1.96898e-05
6.8844e-05
-2.10705e-05
5.46333e-05
-2.17649e-05
4.08053e-05
-2.18294e-05
2.76704e-05
-2.13393e-05
1.54684e-05
-2.03808e-05
4.37174e-06
-1.90461e-05
-5.51731e-06
-1.74271e-05
-1.41607e-05
-1.56105e-05
-2.15627e-05
-1.36752e-05
-2.77535e-05
-1.16879e-05
-3.27846e-05
-9.70202e-06
-3.67335e-05
-7.75428e-06
-3.95952e-05
-5.87148e-06
-4.15575e-05
-4.15599e-06
-4.2623e-05
-2.5132e-06
-4.28923e-05
-9.68413e-07
-4.24959e-05
5.37667e-07
-4.13957e-05
1.82882e-06
-3.9515e-05
2.95711e-06
-3.69502e-05
4.02544e-06
-3.37645e-05
5.02174e-06
-3.00162e-05
5.93801e-06
-2.57819e-05
6.74465e-06
-2.10726e-05
7.44715e-06
-1.59912e-05
8.03178e-06
-1.06099e-05
8.48788e-06
-4.97472e-06
8.79978e-06
7.7723e-06
1.4654e-05
1.61134e-05
3.13272e-05
1.81047e-05
4.72315e-05
1.71054e-05
6.1957e-05
1.56514e-05
7.51279e-05
1.37709e-05
8.6406e-05
1.15306e-05
9.5593e-05
8.91891e-06
0.000102469
6.14219e-06
0.00010694
3.25552e-06
0.000109033
4.06749e-07
0.000108864
-2.31043e-06
0.000106608
-4.81568e-06
0.000102458
-7.09989e-06
9.66888e-05
-8.99831e-06
8.96e-05
-1.05031e-05
8.1503e-05
-1.15952e-05
7.27056e-05
-1.22743e-05
6.3499e-05
-1.25573e-05
5.41481e-05
-1.24769e-05
4.48824e-05
-1.20735e-05
3.58993e-05
-1.13985e-05
2.73607e-05
-1.05064e-05
1.93893e-05
-9.45234e-06
1.20709e-05
-8.29017e-06
5.4632e-06
-7.06828e-06
-3.96956e-07
-5.82762e-06
-5.4942e-06
-4.60152e-06
-9.84857e-06
-3.39699e-06
-1.34152e-05
-2.30482e-06
-1.62944e-05
-1.27668e-06
-1.84801e-05
-3.24887e-07
-1.99861e-05
5.39528e-07
-2.07689e-05
1.31989e-06
-2.09746e-05
2.03345e-06
-2.06788e-05
2.66102e-06
-1.98758e-05
3.22193e-06
-1.85775e-05
3.72197e-06
-1.6801e-05
4.15944e-06
-1.46141e-05
4.55565e-06
-1.20665e-05
4.8977e-06
-9.2193e-06
5.18252e-06
-6.13855e-06
5.40484e-06
-2.89619e-06
5.55485e-06
4.87415e-06
1.0547e-05
5.56841e-06
2.25366e-05
6.11819e-06
3.40343e-05
5.60862e-06
4.47716e-05
4.91377e-06
5.44549e-05
4.09057e-06
6.2997e-05
2.99111e-06
7.01967e-05
1.7198e-06
7.58914e-05
4.47916e-07
7.99789e-05
-8.31875e-07
8.24387e-05
-2.05378e-06
8.33028e-05
-3.17502e-06
8.27244e-05
-4.23706e-06
8.07557e-05
-5.13086e-06
7.75636e-05
-5.80631e-06
7.33214e-05
-6.26162e-06
6.82181e-05
-6.49281e-06
6.24492e-05
-6.50525e-06
5.62045e-05
-6.31094e-06
4.96916e-05
-5.96193e-06
4.30768e-05
-5.45806e-06
3.65064e-05
-4.82849e-06
3.01073e-05
-4.10663e-06
2.39785e-05
-3.32143e-06
1.82171e-05
-2.52747e-06
1.28844e-05
-1.73623e-06
8.03018e-06
-9.73562e-07
3.68357e-06
-2.52636e-07
-1.07384e-07
3.96515e-07
-3.37349e-06
9.61944e-07
-6.09812e-06
1.44819e-06
-8.2827e-06
1.86125e-06
-9.95195e-06
2.21038e-06
-1.11289e-05
2.49683e-06
-1.18157e-05
2.71928e-06
-1.20457e-05
2.89009e-06
-1.18497e-05
3.02503e-06
-1.12651e-05
3.1358e-06
-1.03345e-05
3.22672e-06
-9.08744e-06
3.30589e-06
-7.56589e-06
3.37318e-06
-5.81575e-06
3.4292e-06
-3.88716e-06
3.47294e-06
-1.83809e-06
3.50255e-06
3.03492e-06
7.03472e-06
-1.46466e-06
1.498e-05
-1.82528e-06
2.26036e-05
-2.01526e-06
2.97388e-05
-2.2216e-06
3.6281e-05
-2.44966e-06
4.20017e-05
-2.72936e-06
4.67302e-05
-3.00885e-06
5.04307e-05
-3.25169e-06
5.30585e-05
-3.45939e-06
5.46051e-05
-3.60108e-06
5.50914e-05
-3.66134e-06
5.4494e-05
-3.63873e-06
5.28869e-05
-3.52239e-06
5.03899e-05
-3.30825e-06
4.71246e-05
-2.99616e-06
4.32183e-05
-2.58707e-06
3.88076e-05
-2.09473e-06
3.39886e-05
-1.49114e-06
2.90498e-05
-1.02214e-06
2.40735e-05
-4.81945e-07
1.91485e-05
9.53534e-08
1.43617e-05
6.79842e-07
9.81017e-06
1.23091e-06
5.54519e-06
1.73808e-06
1.63232e-06
2.17604e-06
-1.8735e-06
2.53198e-06
-4.94756e-06
2.82291e-06
-7.57971e-06
3.03068e-06
-9.77342e-06
3.15643e-06
-1.15321e-05
3.20693e-06
-1.28594e-05
3.18912e-06
-1.37584e-05
3.11014e-06
-1.42379e-05
2.9762e-06
-1.43141e-05
2.79468e-06
-1.39954e-05
2.5703e-06
-1.33377e-05
2.36646e-06
-1.23625e-05
2.15966e-06
-1.10985e-05
1.96145e-06
-9.59291e-06
1.79863e-06
-7.87988e-06
1.65803e-06
-5.99413e-06
1.54102e-06
-3.97488e-06
1.45107e-06
-1.86212e-06
1.38725e-06
1.17212e-06
3.75266e-06
-5.21573e-06
7.97743e-06
-6.04816e-06
1.20174e-05
-6.05477e-06
1.57403e-05
-5.9432e-06
1.90292e-05
-5.73696e-06
2.17409e-05
-5.44182e-06
2.37923e-05
-5.05969e-06
2.51284e-05
-4.58583e-06
2.56748e-05
-4.00497e-06
2.54502e-05
-3.37619e-06
2.44719e-05
-2.68236e-06
2.27708e-05
-1.93631e-06
2.04088e-05
-1.15893e-06
1.74664e-05
-3.6482e-07
1.4046e-05
4.24218e-07
1.02378e-05
1.22001e-06
6.10102e-06
2.04083e-06
2.07782e-06
2.53151e-06
-2.08124e-06
3.13672e-06
-6.15348e-06
3.58949e-06
-1.00679e-05
4.00835e-06
-1.37287e-05
4.33989e-06
-1.70662e-05
4.56881e-06
-2.00246e-05
4.69701e-06
-2.25658e-05
4.71703e-06
-2.46669e-05
4.63283e-06
-2.6296e-05
4.45306e-06
-2.74499e-05
4.18619e-06
-2.81358e-05
3.84315e-06
-2.8366e-05
3.43716e-06
-2.81585e-05
2.98173e-06
-2.75394e-05
2.49151e-06
-2.65412e-05
1.97816e-06
-2.52037e-05
1.45699e-06
-2.35734e-05
9.3955e-07
-2.16461e-05
4.38999e-07
-1.9455e-05