/*--------------------------------*- C++ -*----------------------------------*\
  =========                 |
  \\      /  F ield         | OpenFOAM: The Open Source CFD Toolbox
   \\    /   O peration     | Website:  https://openfoam.org
    \\  /    A nd           | Version:  7
     \\/     M anipulation  |
\*---------------------------------------------------------------------------*/
FoamFile
{
    version     2.0;
    format      ascii;
    class       volVectorField;
    location    "1.15";
    object      U;
}
// * * * * * * * * * * * * * * * * * * * * * * * * * * * * * * * * * * * * * //

dimensions      [0 1 -1 0 0 0 0];

internalField   nonuniform List<vector> 
1936
(
(-11.7008 3.10049 0)
(-69.3758 198.101 0)
(-18.6091 426.517 0)
(5.27283 415.545 0)
(-7.93242 379.658 0)
(-0.0191786 397.052 0)
(10.1045 394.873 0)
(21.4449 352.116 0)
(19.2262 296.864 0)
(6.14115 274.635 0)
(-5.16175 281.568 0)
(-16.7945 338.551 0)
(-20.4115 457.226 0)
(21.5084 462.354 0)
(36.156 311.633 0)
(8.88021 229.512 0)
(-2.21415 229.558 0)
(-26.29 294.775 0)
(-24.8848 458.898 0)
(29.6401 474.869 0)
(37.9174 309.193 0)
(14.0497 224.799 0)
(2.22081 223.083 0)
(-19.0107 271.168 0)
(-30.7669 421.306 0)
(8.02984 484.804 0)
(32.7869 352.96 0)
(11.5997 237.789 0)
(-7.5138 226.396 0)
(-17.5393 248.2 0)
(-33.5809 350.618 0)
(-23.5952 488.563 0)
(31.1608 435.266 0)
(32.1604 274.308 0)
(8.46087 224.502 0)
(-6.08648 243.651 0)
(-30.0367 367.248 0)
(5.38233 492.426 0)
(42.4462 402.409 0)
(27.3181 257.081 0)
(13.5348 220.95 0)
(-0.943759 222.671 0)
(-26.4344 303.111 0)
(-23.6999 457.231 0)
(-13.0365 7.55172 0)
(-76.6013 -0.057974 0)
(-22.0465 -4.54138 0)
(3.56946 -2.07166 0)
(-9.94277 -0.482808 0)
(-1.11993 -1.54365 0)
(9.56601 -1.84391 0)
(19.9036 -0.740865 0)
(16.3177 1.21316 0)
(5.25635 2.44658 0)
(-2.1256 2.25718 0)
(-15.9697 0.390645 0)
(-22.0372 -2.98689 0)
(21.9704 -3.91288 0)
(33.4666 -0.0592177 0)
(4.72427 3.51782 0)
(1.41164 3.7033 0)
(-22.9871 0.513855 0)
(-26.2079 -4.17169 0)
(30.6825 -4.32443 0)
(35.2339 -0.0469441 0)
(8.70293 3.26024 0)
(4.88581 3.74308 0)
(-16.5735 1.80881 0)
(-32.6669 -2.15491 0)
(8.40503 -4.30994 0)
(31.9018 -1.14698 0)
(7.6198 2.94661 0)
(-5.71572 3.50459 0)
(-12.2493 2.14357 0)
(-34.3432 -0.443109 0)
(-25.3927 -4.48696 0)
(31.1003 -4.6923 0)
(26.7331 0.63624 0)
(6.30055 4.09703 0)
(-1.84684 2.88887 0)
(-29.34 -1.87673 0)
(5.13508 -4.809 0)
(43.6599 -2.08564 0)
(22.429 1.52484 0)
(9.18061 3.40381 0)
(2.7723 3.65099 0)
(-24.9519 0.721184 0)
(-25.3705 -3.45789 0)
(-3.75231 15.7771 0)
(-71.8773 0.529303 0)
(-25.1512 -9.90047 0)
(1.97408 -4.41722 0)
(-7.92799 -0.937006 0)
(-1.05334 -3.22841 0)
(9.00992 -3.81063 0)
(19.2242 -1.38419 0)
(14.8143 2.59465 0)
(2.77781 4.79765 0)
(-4.64098 4.58691 0)
(-18.3898 1.14676 0)
(-21.8656 -6.52836 0)
(24.9258 -8.39382 0)
(34.8719 0.470247 0)
(4.59184 7.07267 0)
(1.46776 7.31171 0)
(-24.0666 1.74279 0)
(-29.1428 -8.77304 0)
(30.1728 -9.31996 0)
(35.5405 0.632352 0)
(5.57406 6.72043 0)
(0.950422 7.3055 0)
(-20.4154 4.10808 0)
(-33.8001 -4.71868 0)
(11.3909 -9.51313 0)
(34.7893 -2.01306 0)
(10.5508 6.10637 0)
(-1.93593 6.79335 0)
(-11.8024 4.83675 0)
(-35.2219 -0.484032 0)
(-20.85 -9.86235 0)
(35.7459 -9.35484 0)
(23.444 2.06613 0)
(2.01928 7.96114 0)
(-4.48154 5.96455 0)
(-33.197 -3.43746 0)
(0.184935 -10.5409 0)
(43.1244 -4.22545 0)
(21.9377 3.86791 0)
(4.13704 6.71613 0)
(-2.45536 7.26117 0)
(-28.7592 1.88394 0)
(-27.039 -7.65918 0)
(5.21159 22.1879 0)
(-59.9269 2.08316 0)
(-23.086 -13.7515 0)
(-3.55633 -6.97458 0)
(-8.66077 -1.81541 0)
(-1.91748 -4.64173 0)
(5.31297 -5.38133 0)
(12.1559 -1.75695 0)
(7.57707 3.88931 0)
(-0.759892 6.70416 0)
(-2.80835 6.3702 0)
(-12.2235 1.49849 0)
(-16.4052 -9.75439 0)
(20.7122 -12.0139 0)
(24.6051 1.1406 0)
(-0.235791 9.9774 0)
(4.69797 10.2053 0)
(-14.1658 2.94403 0)
(-23.8096 -12.3917 0)
(22.7197 -13.4374 0)
(24.2293 1.41312 0)
(-2.0903 9.78667 0)
(1.04825 10.1718 0)
(-14.2148 5.72339 0)
(-25.8086 -7.23203 0)
(10.7923 -13.968 0)
(25.8372 -2.74908 0)
(6.25886 8.53114 0)
(1.73068 9.63725 0)
(-4.75995 7.38606 0)
(-25.4474 -0.752536 0)
(-12.9766 -14.5105 0)
(29.2257 -12.4234 0)
(9.61493 3.86441 0)
(-2.73747 10.8802 0)
(-0.0518927 8.27525 0)
(-25.0374 -4.5343 0)
(-3.03504 -15.3089 0)
(31.9732 -6.16269 0)
(12.437 6.14325 0)
(-2.43631 9.75536 0)
(-1.70984 10.0131 0)
(-20.6837 2.49728 0)
(-21.7072 -11.3895 0)
(12.8818 27.0955 0)
(-49.2382 4.33754 0)
(-20.4527 -15.8724 0)
(-7.59256 -9.43398 0)
(-9.5269 -3.34821 0)
(-3.47908 -5.90041 0)
(0.992656 -6.41403 0)
(5.00269 -1.82291 0)
(1.03547 4.87234 0)
(-3.45176 7.84524 0)
(-1.5035 7.26255 0)
(-7.57021 1.36709 0)
(-11.4468 -12.0911 0)
(16.37 -14.2143 0)
(15.8237 1.80463 0)
(-4.12366 11.7363 0)
(6.76678 11.8768 0)
(-6.8037 3.87432 0)
(-18.7136 -14.4541 0)
(15.6936 -16.0043 0)
(15.0733 2.12244 0)
(-7.41111 11.8334 0)
(2.42973 11.9188 0)
(-9.42186 6.57324 0)
(-18.4505 -9.18277 0)
(9.97561 -16.9072 0)
(17.8212 -3.27469 0)
(2.25855 9.90708 0)
(3.18218 11.6173 0)
(0.166033 9.28114 0)
(-16.9081 -1.18168 0)
(-5.49567 -17.5863 0)
(22.4599 -13.5907 0)
(-0.650944 5.44082 0)
(-5.06743 12.3151 0)
(2.92837 9.44922 0)
(-17.8625 -5.08074 0)
(-5.83484 -18.288 0)
(21.7715 -7.57002 0)
(5.53195 7.88243 0)
(-6.095 11.9778 0)
(0.558554 11.5695 0)
(-14.0269 2.61972 0)
(-16.7164 -13.9405 0)
(18.8909 30.3674 0)
(-38.3344 7.10441 0)
(-16.7905 -16.3083 0)
(-9.50754 -11.4724 0)
(-10.3312 -5.25105 0)
(-5.39091 -6.91439 0)
(-3.28783 -6.8732 0)
(-1.41989 -1.67339 0)
(-4.14201 5.3187 0)
(-4.81432 8.11526 0)
(-0.211877 7.24979 0)
(-4.01682 0.82618 0)
(-7.21741 -13.4435 0)
(11.9143 -14.9649 0)
(8.32033 2.41955 0)
(-6.91729 12.3364 0)
(7.67183 12.3372 0)
(-1.52382 4.46761 0)
(-13.7852 -14.9835 0)
(9.69383 -16.9817 0)
(7.79599 2.6252 0)
(-10.0394 12.6894 0)
(4.22699 12.5687 0)
(-4.96782 6.76183 0)
(-11.829 -10.4813 0)
(8.74913 -18.2003 0)
(10.7146 -3.40448 0)
(-2.43776 10.332 0)
(2.94117 12.555 0)
(3.69618 10.206 0)
(-9.51272 -1.82121 0)
(0.402171 -18.8533 0)
(15.8313 -12.9665 0)
(-6.78074 6.48726 0)
(-5.24004 12.406 0)
(5.53205 9.61133 0)
(-11.6569 -5.00564 0)
(-7.46143 -19.3632 0)
(12.8778 -8.47146 0)
(0.239356 8.79031 0)
(-7.17434 13.1058 0)
(4.16955 12.0644 0)
(-8.20335 2.525 0)
(-12.1185 -15.2433 0)
(22.277 31.7079 0)
(-26.2285 10.056 0)
(-11.7569 -15.1078 0)
(-9.14324 -12.7266 0)
(-10.4048 -7.08188 0)
(-6.9975 -7.62051 0)
(-6.61098 -6.8084 0)
(-6.13885 -1.47037 0)
(-7.30518 5.07387 0)
(-4.98033 7.47921 0)
(0.794671 6.47559 0)
(-1.39773 -0.0062873 0)
(-3.8247 -13.7271 0)
(7.4104 -14.3431 0)
(2.18766 2.84942 0)
(-7.84118 11.8659 0)
(7.14139 11.7166 0)
(1.98558 4.61396 0)
(-8.97093 -14.134 0)
(5.04747 -16.403 0)
(2.29864 2.75461 0)
(-9.91971 12.3504 0)
(5.10694 12.1986 0)
(-0.767495 6.34913 0)
(-6.1442 -10.9504 0)
(6.95864 -17.8267 0)
(4.8153 -2.98527 0)
(-6.34671 9.92611 0)
(1.82507 12.2984 0)
(5.90981 10.0089 0)
(-3.52603 -2.58454 0)
(3.82035 -18.2991 0)
(9.86822 -10.9891 0)
(-9.19672 6.77353 0)
(-4.06348 11.39 0)
(7.27212 8.97238 0)
(-6.57264 -4.30749 0)
(-7.46601 -18.627 0)
(5.66735 -8.77099 0)
(-3.71276 8.6966 0)
(-6.43125 12.9698 0)
(6.64083 11.6513 0)
(-3.25645 2.37033 0)
(-7.91305 -15.2369 0)
(22.7725 30.7756 0)
(-12.5982 12.657 0)
(-5.52361 -12.3527 0)
(-6.68814 -12.795 0)
(-9.12081 -8.38544 0)
(-7.58345 -7.93033 0)
(-8.25666 -6.38346 0)
(-8.51822 -1.39672 0)
(-8.26257 4.16881 0)
(-4.29543 6.12983 0)
(1.43232 5.17074 0)
(0.431379 -1.02403 0)
(-1.36538 -12.9353 0)
(3.14656 -12.5513 0)
(-2.48883 2.94004 0)
(-7.16607 10.4751 0)
(5.70253 10.2299 0)
(4.05993 4.26537 0)
(-4.47011 -12.2086 0)
(1.76817 -14.4496 0)
(-1.57294 2.49261 0)
(-8.1992 10.9842 0)
(4.88974 10.9161 0)
(2.78373 5.43156 0)
(-1.73377 -10.4378 0)
(4.65077 -15.9242 0)
(0.35278 -2.22382 0)
(-7.8902 8.87918 0)
(0.821561 10.9351 0)
(6.93356 8.79149 0)
(0.714382 -3.19069 0)
(4.65137 -16.1788 0)
(4.89376 -8.3767 0)
(-9.22818 6.32969 0)
(-2.56551 9.60404 0)
(7.52194 7.82734 0)
(-2.68447 -3.24961 0)
(-5.90371 -16.3651 0)
(0.503997 -8.32596 0)
(-6.33786 7.6559 0)
(-5.07217 11.6651 0)
(6.98348 10.4753 0)
(0.693153 2.09809 0)
(-4.20952 -13.9611 0)
(19.6678 27.4456 0)
(0.327779 14.1913 0)
(1.21385 -8.30061 0)
(-2.6248 -11.4307 0)
(-6.28391 -8.75671 0)
(-6.73008 -7.73819 0)
(-8.07631 -5.78018 0)
(-8.61851 -1.52134 0)
(-7.46313 2.81195 0)
(-3.21462 4.37492 0)
(1.71478 3.52005 0)
(1.56318 -1.98005 0)
(-0.0222673 -11.1975 0)
(-0.322128 -9.95569 0)
(-5.4479 2.59068 0)
(-5.80927 8.42526 0)
(4.11575 8.1952 0)
(4.92709 3.42184 0)
(-0.894438 -9.60302 0)
(-0.283037 -11.4781 0)
(-3.94825 1.94049 0)
(-6.15528 8.93388 0)
(4.07564 8.95001 0)
(5.07256 4.12069 0)
(1.10749 -8.94085 0)
(2.23867 -12.8646 0)
(-2.65054 -1.48214 0)
(-7.2968 7.35994 0)
(0.468042 8.81264 0)
(6.89522 6.86384 0)
(3.12791 -3.32629 0)
(3.72068 -12.9535 0)
(1.21472 -5.78572 0)
(-7.95592 5.34629 0)
(-1.44426 7.46053 0)
(6.57242 6.37066 0)
(0.163742 -2.2408 0)
(-3.5115 -13.029 0)
(-2.47486 -7.08722 0)
(-7.49754 5.95971 0)
(-3.82438 9.5376 0)
(6.03773 8.71339 0)
(3.47551 1.60838 0)
(-1.26906 -11.6342 0)
(13.5722 22.3162 0)
(8.79714 14.018 0)
(6.85408 -3.76442 0)
(1.94185 -8.74802 0)
(-2.44001 -7.97787 0)
(-4.57421 -6.98122 0)
(-6.43313 -5.06251 0)
(-7.09209 -1.77802 0)
(-5.73456 1.32267 0)
(-2.15223 2.50125 0)
(1.62911 1.78253 0)
(1.95521 -2.59091 0)
(0.18105 -8.81143 0)
(-2.52128 -7.1088 0)
(-6.4126 1.85788 0)
(-4.49088 6.05906 0)
(2.70147 5.94081 0)
(4.6165 2.27 0)
(1.07151 -6.76257 0)
(-1.28604 -8.04499 0)
(-4.79641 1.2848 0)
(-4.35376 6.57369 0)
(3.14078 6.61062 0)
(5.58425 2.66915 0)
(2.34332 -6.74423 0)
(0.404019 -9.24447 0)
(-4.06908 -0.914244 0)
(-5.75797 5.4998 0)
(0.419697 6.40539 0)
(5.85069 4.68182 0)
(3.88472 -2.91867 0)
(2.22721 -9.24934 0)
(-1.01514 -3.6078 0)
(-6.06898 4.04665 0)
(-0.8158 5.33396 0)
(5.07148 4.71935 0)
(1.95184 -1.49027 0)
(-1.38704 -9.23872 0)
(-3.46008 -5.25199 0)
(-7.02431 4.07038 0)
(-2.78252 7.03209 0)
(4.7578 6.53574 0)
(4.748 0.992781 0)
(0.575509 -8.64515 0)
(7.37457 16.6426 0)
(10.8302 12.175 0)
(9.42984 -0.0333651 0)
(5.39819 -5.41418 0)
(1.15314 -6.18639 0)
(-1.83335 -5.66652 0)
(-3.97834 -4.22063 0)
(-4.76675 -2.00202 0)
(-3.76699 0.0106879 0)
(-1.26514 0.811989 0)
(1.30063 0.260534 0)
(1.69262 -2.72126 0)
(-0.254034 -6.2507 0)
(-3.33866 -4.59476 0)
(-5.661 0.972785 0)
(-3.35872 3.74959 0)
(1.45491 3.74098 0)
(3.39939 1.1904 0)
(1.44906 -4.16784 0)
(-1.53261 -4.83345 0)
(-4.22768 0.744215 0)
(-2.85011 4.2462 0)
(2.17142 4.26174 0)
(4.54802 1.43725 0)
(2.34554 -4.37888 0)
(-0.571732 -5.74856 0)
(-3.97291 -0.518329 0)
(-4.02081 3.59024 0)
(0.314393 4.11717 0)
(4.161 2.70735 0)
(3.39425 -2.15239 0)
(1.02231 -5.73932 0)
(-1.85893 -2.01199 0)
(-4.05922 2.67461 0)
(-0.47867 3.47685 0)
(3.44287 3.07027 0)
(2.47708 -0.940931 0)
(-0.217285 -5.67464 0)
(-3.1582 -3.27847 0)
(-5.32515 2.42808 0)
(-1.83712 4.55339 0)
(3.42691 4.264 0)
(4.46371 0.465637 0)
(1.32434 -5.5702 0)
(3.66283 11.5473 0)
(8.51429 9.4584 0)
(8.77833 2.16433 0)
(6.51779 -2.42403 0)
(3.26493 -3.92339 0)
(0.468558 -4.00788 0)
(-1.52671 -3.26207 0)
(-2.37892 -2.04131 0)
(-1.91614 -0.91212 0)
(-0.469222 -0.425579 0)
(0.998595 -0.805005 0)
(1.14655 -2.43807 0)
(-0.571745 -4.01364 0)
(-2.95961 -2.76615 0)
(-4.06524 0.219521 0)
(-2.38856 1.86217 0)
(0.447811 1.91288 0)
(1.86111 0.421377 0)
(0.895668 -2.20031 0)
(-1.34119 -2.42157 0)
(-2.90508 0.373974 0)
(-1.68335 2.33273 0)
(1.24553 2.32953 0)
(2.85623 0.625701 0)
(1.63759 -2.3782 0)
(-0.792395 -2.9807 0)
(-2.8891 -0.241217 0)
(-2.4629 1.99066 0)
(0.143335 2.24956 0)
(2.44127 1.26188 0)
(2.24408 -1.33473 0)
(0.317131 -3.00067 0)
(-1.68063 -0.972656 0)
(-2.36686 1.51428 0)
(-0.293309 2.03149 0)
(1.97456 1.71116 0)
(1.93262 -0.515942 0)
(0.0927792 -2.89432 0)
(-2.24882 -1.64862 0)
(-3.29383 1.26306 0)
(-1.05129 2.50487 0)
(2.14548 2.33183 0)
(3.16625 0.142079 0)
(1.24144 -3.00337 0)
(2.04864 7.73583 0)
(5.14961 6.77251 0)
(6.19599 2.87443 0)
(5.38585 -0.341971 0)
(3.51483 -1.8889 0)
(1.61878 -2.40902 0)
(0.187712 -2.31129 0)
(-0.511431 -1.88076 0)
(-0.422415 -1.41272 0)
(0.193815 -1.17311 0)
(0.789942 -1.34265 0)
(0.657565 -1.95927 0)
(-0.528515 -2.39317 0)
(-1.96933 -1.63698 0)
(-2.47178 -0.244833 0)
(-1.58847 0.598125 0)
(-0.15819 0.668509 0)
(0.651272 -0.00285341 0)
(0.242957 -0.995937 0)
(-0.950851 -0.999305 0)
(-1.63973 0.148423 0)
(-0.917573 1.04584 0)
(0.531989 1.04278 0)
(1.37278 0.219273 0)
(0.796688 -1.03251 0)
(-0.617016 -1.21692 0)
(-1.64952 -0.0623149 0)
(-1.29671 0.908382 0)
(0.0243249 0.98002 0)
(1.15567 0.411637 0)
(1.10731 -0.699416 0)
(-0.00291708 -1.2721 0)
(-1.08924 -0.372535 0)
(-1.23249 0.740088 0)
(-0.204902 1.04217 0)
(0.919035 0.820512 0)
(1.05294 -0.196045 0)
(0.0709576 -1.13449 0)
(-1.24197 -0.611453 0)
(-1.67438 0.567275 0)
(-0.52576 1.11952 0)
(1.11364 1.01468 0)
(1.72905 0.00708979 0)
(0.78265 -1.28813 0)
(1.21419 5.29679 0)
(2.66378 4.73409 0)
(3.5801 2.66973 0)
(3.46111 0.749112 0)
(2.64819 -0.517041 0)
(1.70186 -1.22085 0)
(0.915333 -1.5399 0)
(0.470886 -1.61376 0)
(0.390309 -1.5585 0)
(0.518715 -1.48156 0)
(0.591272 -1.44932 0)
(0.333435 -1.49322 0)
(-0.325225 -1.42353 0)
(-1.02579 -1.02084 0)
(-1.27833 -0.454346 0)
(-0.935186 -0.0779503 0)
(-0.330834 -0.00538854 0)
(0.0317101 -0.188981 0)
(-0.111988 -0.428514 0)
(-0.579265 -0.360257 0)
(-0.808602 0.0300209 0)
(-0.48419 0.344584 0)
(0.110269 0.350875 0)
(0.454831 0.0595116 0)
(0.223009 -0.325497 0)
(-0.374713 -0.345502 0)
(-0.770965 0.0250446 0)
(-0.588962 0.320214 0)
(-0.0411428 0.290907 0)
(0.396749 0.0338383 0)
(0.35404 -0.311416 0)
(-0.130021 -0.409852 0)
(-0.584165 -0.0761625 0)
(-0.59722 0.332269 0)
(-0.159223 0.471674 0)
(0.321492 0.362724 0)
(0.420296 0.00779525 0)
(0.0345096 -0.267406 0)
(-0.510236 -0.113574 0)
(-0.680038 0.219655 0)
(-0.215235 0.368217 0)
(0.468827 0.310981 0)
(0.724783 -0.0213257 0)
(0.359425 -0.400102 0)
(0.727331 3.74499 0)
(1.48888 3.45124 0)
(2.02885 2.2852 0)
(2.11217 1.12371 0)
(1.8263 0.185062 0)
(1.39006 -0.51241 0)
(0.991252 -1.00564 0)
(0.7113 -1.30736 0)
(0.556427 -1.43728 0)
(0.454998 -1.42197 0)
(0.322467 -1.30711 0)
(0.103149 -1.14332 0)
(-0.189032 -0.948811 0)
(-0.454611 -0.728314 0)
(-0.561792 -0.516695 0)
(-0.470112 -0.366712 0)
(-0.287536 -0.293643 0)
(-0.174957 -0.26647 0)
(-0.207703 -0.235671 0)
(-0.324244 -0.154642 0)
(-0.371491 -0.0357589 0)
(-0.258255 0.0434423 0)
(-0.0671245 0.058569 0)
(0.0371196 0.0160857 0)
(-0.0310843 -0.0375466 0)
(-0.198045 -0.0232635 0)
(-0.299392 0.0435093 0)
(-0.232948 0.063654 0)
(-0.0741268 0.00753266 0)
(0.0337293 -0.0725847 0)
(-0.000348437 -0.119493 0)
(-0.160575 -0.0833364 0)
(-0.296128 0.0339206 0)
(-0.278941 0.149705 0)
(-0.12106 0.196926 0)
(0.0555634 0.171515 0)
(0.115153 0.100075 0)
(0.0261321 0.0489092 0)
(-0.121136 0.0653452 0)
(-0.175929 0.0832781 0)
(-0.0446454 0.0606917 0)
(0.159486 0.0350937 0)
(0.222478 -0.00865452 0)
(0.120137 -0.0487029 0)
(0.459954 2.67243 0)
(1.01889 2.59572 0)
(1.40599 1.92259 0)
(1.50414 1.20187 0)
(1.41526 0.496563 0)
(1.19701 -0.119676 0)
(0.925361 -0.620678 0)
(0.678322 -0.97414 0)
(0.468946 -1.1641 0)
(0.281992 -1.18852 0)
(0.107726 -1.08556 0)
(-0.0388508 -0.91615 0)
(-0.150757 -0.747797 0)
(-0.228567 -0.616107 0)
(-0.260676 -0.523791 0)
(-0.246904 -0.455092 0)
(-0.213672 -0.38188 0)
(-0.192416 -0.294202 0)
(-0.189802 -0.200813 0)
(-0.194184 -0.126471 0)
(-0.18743 -0.0806685 0)
(-0.152885 -0.0548826 0)
(-0.106292 -0.0300049 0)
(-0.0824143 0.00526825 0)
(-0.0886208 0.0389818 0)
(-0.106054 0.0503635 0)
(-0.110455 0.0295867 0)
(-0.0923145 -0.0177226 0)
(-0.0723404 -0.0616855 0)
(-0.0740191 -0.0685792 0)
(-0.0995036 -0.0390183 0)
(-0.133984 0.00455553 0)
(-0.150877 0.0471629 0)
(-0.128624 0.0668399 0)
(-0.0764082 0.0778571 0)
(-0.0212977 0.0896007 0)
(0.0154716 0.104695 0)
(0.0286976 0.114818 0)
(0.0216192 0.0979877 0)
(0.0118608 0.0460302 0)
(0.0259636 -0.00940412 0)
(0.0514675 -0.0192226 0)
(0.0493642 0.0146962 0)
(0.0303325 0.050002 0)
(0.289763 1.87109 0)
(0.71385 1.92337 0)
(1.05059 1.55506 0)
(1.19437 1.11095 0)
(1.19173 0.628017 0)
(1.08603 0.136591 0)
(0.901953 -0.293386 0)
(0.676445 -0.624769 0)
(0.451371 -0.824543 0)
(0.245805 -0.891167 0)
(0.0792642 -0.850672 0)
(-0.0385992 -0.753698 0)
(-0.110706 -0.650077 0)
(-0.146904 -0.568132 0)
(-0.163728 -0.508152 0)
(-0.171156 -0.452836 0)
(-0.174362 -0.384357 0)
(-0.172889 -0.300912 0)
(-0.162674 -0.217465 0)
(-0.14499 -0.154212 0)
(-0.127094 -0.114363 0)
(-0.112598 -0.0845499 0)
(-0.0990028 -0.0511624 0)
(-0.0880708 -0.0104132 0)
(-0.076475 0.0237583 0)
(-0.0596194 0.0318028 0)
(-0.0448945 0.0104728 0)
(-0.0407419 -0.0242114 0)
(-0.0501758 -0.0458424 0)
(-0.0673692 -0.0391099 0)
(-0.0813864 -0.0119572 0)
(-0.0838346 0.0148316 0)
(-0.07496 0.0275056 0)
(-0.0591474 0.0295476 0)
(-0.0398294 0.0322001 0)
(-0.0185989 0.0483069 0)
(0.00431528 0.0721494 0)
(0.0293275 0.0869852 0)
(0.0480141 0.0763719 0)
(0.0505131 0.0411938 0)
(0.0406783 0.00735524 0)
(0.0265797 0.00528675 0)
(0.0121274 0.033551 0)
(0.00684199 0.0554122 0)
(0.172716 1.27816 0)
(0.456987 1.37163 0)
(0.71878 1.18392 0)
(0.879307 0.92731 0)
(0.94384 0.618823 0)
(0.921147 0.28479 0)
(0.826548 -0.040776 0)
(0.68003 -0.309836 0)
(0.509045 -0.49649 0)
(0.338783 -0.593634 0)
(0.190621 -0.616141 0)
(0.0769045 -0.594824 0)
(-0.00139701 -0.552924 0)
(-0.0524834 -0.509648 0)
(-0.0869971 -0.46748 0)
(-0.111602 -0.420473 0)
(-0.128371 -0.363334 0)
(-0.135451 -0.298445 0)
(-0.13139 -0.234794 0)
(-0.119152 -0.181286 0)
(-0.105007 -0.139226 0)
(-0.0932966 -0.102855 0)
(-0.0834338 -0.0665418 0)
(-0.0716733 -0.0332009 0)
(-0.0555907 -0.00794935 0)
(-0.0377266 0.000492758 0)
(-0.0241152 -0.00665128 0)
(-0.0201276 -0.0193333 0)
(-0.0256386 -0.0251175 0)
(-0.0343969 -0.0191586 0)
(-0.0392559 -0.0062786 0)
(-0.0365622 0.0047136 0)
(-0.0289466 0.0092081 0)
(-0.0209013 0.0107575 0)
(-0.0131811 0.015679 0)
(-0.0044469 0.0278422 0)
(0.0073519 0.0430967 0)
(0.022616 0.0542809 0)
(0.0354228 0.0536192 0)
(0.038489 0.0426248 0)
(0.0310642 0.0323087 0)
(0.0183033 0.0347071 0)
(0.00648357 0.0480522 0)
(0.00292325 0.0536875 0)
(0.0990649 0.858532 0)
(0.272734 0.945466 0)
(0.44903 0.851376 0)
(0.580401 0.710011 0)
(0.663374 0.527261 0)
(0.691013 0.317708 0)
(0.668037 0.102952 0)
(0.603106 -0.0894726 0)
(0.508643 -0.241604 0)
(0.401257 -0.344664 0)
(0.295935 -0.40235 0)
(0.202602 -0.42625 0)
(0.125449 -0.428224 0)
(0.0641459 -0.416911 0)
(0.015604 -0.395482 0)
(-0.0227753 -0.364359 0)
(-0.0513893 -0.324598 0)
(-0.0699263 -0.27947 0)
(-0.0786866 -0.233752 0)
(-0.079773 -0.191213 0)
(-0.0763498 -0.152889 0)
(-0.0707157 -0.117755 0)
(-0.06337 -0.0852662 0)
(-0.0539573 -0.0570512 0)
(-0.042175 -0.0365147 0)
(-0.0296782 -0.0252589 0)
(-0.0198409 -0.021539 0)
(-0.0146687 -0.0207712 0)
(-0.013833 -0.0183344 0)
(-0.0148359 -0.0131374 0)
(-0.0147193 -0.00715403 0)
(-0.0124812 -0.00271538 0)
(-0.00900454 -0.000336908 0)
(-0.00606554 0.00226509 0)
(-0.00434942 0.00759547 0)
(-0.00211704 0.0163944 0)
(0.0022913 0.026768 0)
(0.00849427 0.0357224 0)
(0.0139563 0.0409075 0)
(0.0156836 0.0429903 0)
(0.0129729 0.0450209 0)
(0.00784583 0.0500057 0)
(0.00230535 0.0572217 0)
(0.00182514 0.0549327 0)
(0.056954 0.569741 0)
(0.160512 0.635726 0)
(0.270435 0.586197 0)
(0.360531 0.508692 0)
(0.429412 0.405075 0)
(0.469838 0.282425 0)
(0.48019 0.151975 0)
(0.461458 0.025418 0)
(0.421186 -0.0841377 0)
(0.368302 -0.170848 0)
(0.308567 -0.233368 0)
(0.2481 -0.27427 0)
(0.190936 -0.297441 0)
(0.139132 -0.30628 0)
(0.0935253 -0.303105 0)
(0.0544158 -0.28952 0)
(0.0223136 -0.267725 0)
(-0.00245208 -0.240439 0)
(-0.020132 -0.210593 0)
(-0.0316326 -0.180292 0)
(-0.0382758 -0.150697 0)
(-0.0410727 -0.122424 0)
(-0.040692 -0.0962994 0)
(-0.037641 -0.0736344 0)
(-0.032671 -0.0555191 0)
(-0.0270453 -0.0424289 0)
(-0.0221387 -0.0333242 0)
(-0.0186144 -0.0263994 0)
(-0.0164529 -0.0203001 0)
(-0.0151664 -0.0146463 0)
(-0.014015 -0.00990514 0)
(-0.012801 -0.00636357 0)
(-0.0118857 -0.00338763 0)
(-0.0114951 8.63509e-05 0)
(-0.0114412 0.00515997 0)
(-0.0112368 0.012047 0)
(-0.0102248 0.0198746 0)
(-0.00825545 0.0276127 0)
(-0.00603822 0.0345811 0)
(-0.00440253 0.0407951 0)
(-0.00361506 0.0467009 0)
(-0.00300384 0.0524946 0)
(-0.00292441 0.057549 0)
(0.000269879 0.0528426 0)
(0.0331813 0.371813 0)
(0.0955194 0.417441 0)
(0.162185 0.389707 0)
(0.219217 0.346329 0)
(0.266589 0.288156 0)
(0.299828 0.218416 0)
(0.31741 0.142055 0)
(0.319901 0.0649743 0)
(0.3084 -0.0067921 0)
(0.285788 -0.0693383 0)
(0.256234 -0.120419 0)
(0.222441 -0.159475 0)
(0.186962 -0.186998 0)
(0.151719 -0.203862 0)
(0.118102 -0.211066 0)
(0.0872199 -0.209863 0)
(0.0599835 -0.201639 0)
(0.036707 -0.188208 0)
(0.0175895 -0.171323 0)
(0.00266554 -0.152437 0)
(-0.00856373 -0.13265 0)
(-0.0165661 -0.112789 0)
(-0.0217445 -0.0938309 0)
(-0.0245365 -0.076571 0)
(-0.0255378 -0.0616426 0)
(-0.0254372 -0.0492355 0)
(-0.0248734 -0.0390268 0)
(-0.0242621 -0.0304761 0)
(-0.023731 -0.0232018 0)
(-0.0232858 -0.0169955 0)
(-0.022921 -0.0118044 0)
(-0.0226865 -0.00746617 0)
(-0.0226679 -0.00352005 0)
(-0.0228582 0.000639627 0)
(-0.0230815 0.00541703 0)
(-0.0230239 0.010916 0)
(-0.0224215 0.0169809 0)
(-0.0211321 0.0232567 0)
(-0.0191758 0.0294671 0)
(-0.0166777 0.035444 0)
(-0.0137049 0.0410281 0)
(-0.0100042 0.0459412 0)
(-0.00644171 0.0497061 0)
(-0.00115805 0.0450067 0)
(0.0195423 0.235121 0)
(0.0577342 0.264759 0)
(0.0980744 0.24885 0)
(0.133517 0.224402 0)
(0.164353 0.191961 0)
(0.188125 0.153055 0)
(0.203993 0.10988 0)
(0.21162 0.0650835 0)
(0.211152 0.0210054 0)
(0.203827 -0.0195671 0)
(0.191117 -0.0551119 0)
(0.174102 -0.0846593 0)
(0.154231 -0.107739 0)
(0.132827 -0.124283 0)
(0.110993 -0.134521 0)
(0.0896514 -0.138954 0)
(0.0695523 -0.138325 0)
(0.0512358 -0.133593 0)
(0.0350377 -0.125653 0)
(0.0211565 -0.115461 0)
(0.00970953 -0.103827 0)
(0.000265074 -0.0914575 0)
(-0.00734903 -0.079002 0)
(-0.0130493 -0.0670186 0)
(-0.0172605 -0.0559188 0)
(-0.0203393 -0.0459497 0)
(-0.0225776 -0.0371322 0)
(-0.0242172 -0.0293749 0)
(-0.0254244 -0.0225669 0)
(-0.0263074 -0.0166364 0)
(-0.0269435 -0.0114781 0)
(-0.0274024 -0.0069422 0)
(-0.0277464 -0.00279561 0)
(-0.027939 0.00123059 0)
(-0.0278649 0.00534859 0)
(-0.0274236 0.00965346 0)
(-0.0264993 0.0141188 0)
(-0.0249332 0.0186428 0)
(-0.0226443 0.0231029 0)
(-0.0196657 0.027365 0)
(-0.0160226 0.0312616 0)
(-0.0116104 0.0345804 0)
(-0.00703777 0.0370371 0)
(-0.00177452 0.0332555 0)
(0.0123793 0.142602 0)
(0.0377974 0.160683 0)
(0.0640221 0.151568 0)
(0.087588 0.137813 0)
(0.108718 0.119779 0)
(0.125977 0.0982246 0)
(0.13888 0.0741478 0)
(0.147114 0.0487317 0)
(0.150861 0.0231976 0)
(0.150041 -0.00121751 0)
(0.145184 -0.0235242 0)
(0.137283 -0.042986 0)
(0.126824 -0.0591005 0)
(0.114531 -0.0715996 0)
(0.101121 -0.0804249 0)
(0.0872312 -0.0857062 0)
(0.0734072 -0.0877372 0)
(0.0600957 -0.0869353 0)
(0.0476318 -0.0837875 0)
(0.0362473 -0.0788043 0)
(0.0260758 -0.0724851 0)
(0.0171427 -0.0653501 0)
(0.00945898 -0.0577119 0)
(0.00300136 -0.0499905 0)
(-0.00242367 -0.0424891 0)
(-0.00695138 -0.0354086 0)
(-0.0106433 -0.0288672 0)
(-0.0136421 -0.0229151 0)
(-0.0160711 -0.017558 0)
(-0.0180212 -0.0127788 0)
(-0.0195566 -0.00852551 0)
(-0.0207203 -0.00472859 0)
(-0.0215368 -0.00128548 0)
(-0.0220192 0.00191696 0)
(-0.0221683 0.00497818 0)
(-0.0218743 0.00796176 0)
(-0.0210413 0.0108865 0)
(-0.0196738 0.0137333 0)
(-0.0177773 0.0164577 0)
(-0.0153726 0.0189946 0)
(-0.0124609 0.0212577 0)
(-0.00900305 0.0231421 0)
(-0.00532899 0.0245088 0)
(-0.00151335 0.0218489 0)
(0.00891679 0.0831162 0)
(0.0282797 0.0935081 0)
(0.04774 0.0882312 0)
(0.065624 0.0803846 0)
(0.0819938 0.070197 0)
(0.0959183 0.0580705 0)
(0.107096 0.0445093 0)
(0.115288 0.0301109 0)
(0.120406 0.015513 0)
(0.122459 0.00122288 0)
(0.121667 -0.0121143 0)
(0.118414 -0.0240129 0)
(0.113073 -0.0341322 0)
(0.106054 -0.042248 0)
(0.0977828 -0.0482583 0)
(0.0886758 -0.0521724 0)
(0.0791177 -0.0540992 0)
(0.0694457 -0.0542281 0)
(0.0599397 -0.0528067 0)
(0.050819 -0.0501153 0)
(0.0422441 -0.0464457 0)
(0.0343254 -0.0420844 0)
(0.0271362 -0.0372939 0)
(0.0206827 -0.032316 0)
(0.0149387 -0.0273643 0)
(0.00988768 -0.0225712 0)
(0.00549727 -0.018056 0)
(0.00170838 -0.013892 0)
(-0.00155289 -0.0101106 0)
(-0.00431572 -0.00672031 0)
(-0.00659673 -0.00370971 0)
(-0.0084371 -0.00104584 0)
(-0.00986533 0.00131991 0)
(-0.0109026 0.00344239 0)
(-0.0115458 0.0053748 0)
(-0.0118124 0.00716105 0)
(-0.0117038 0.00882953 0)
(-0.0111863 0.0103917 0)
(-0.0102677 0.0118427 0)
(-0.00897142 0.0131622 0)
(-0.00731866 0.0143177 0)
(-0.00532306 0.0152671 0)
(-0.00313878 0.0159483 0)
(-0.000957527 0.0141215 0)
(0.00704043 0.0437736 0)
(0.0231253 0.0490203 0)
(0.0388521 0.0459888 0)
(0.0535822 0.0415661 0)
(0.0672846 0.035884 0)
(0.0792528 0.029148 0)
(0.0892593 0.0216192 0)
(0.0971166 0.0136115 0)
(0.102722 0.00546543 0)
(0.106057 -0.0024919 0)
(0.107136 -0.00994368 0)
(0.106235 -0.0166156 0)
(0.10368 -0.0222916 0)
(0.0996347 -0.0268223 0)
(0.0943539 -0.0301267 0)
(0.0881276 -0.032191 0)
(0.0812377 -0.0330623 0)
(0.0739433 -0.0328383 0)
(0.0664736 -0.0316559 0)
(0.0590229 -0.0296781 0)
(0.0517508 -0.027082 0)
(0.0447849 -0.0240462 0)
(0.038216 -0.0207418 0)
(0.0320992 -0.017328 0)
(0.0264683 -0.0139365 0)
(0.0213442 -0.0106778 0)
(0.0167369 -0.00761264 0)
(0.0126443 -0.0048168 0)
(0.00903073 -0.00232658 0)
(0.00585561 -0.000140885 0)
(0.00313664 0.00173974 0)
(0.000841722 0.00334044 0)
(-0.001078 0.0046937 0)
(-0.00258056 0.00583849 0)
(-0.00365905 0.00681295 0)
(-0.00440341 0.00765318 0)
(-0.00486127 0.00839092 0)
(-0.00500642 0.00904914 0)
(-0.00484022 0.00964079 0)
(-0.00438722 0.0101696 0)
(-0.00367525 0.0106317 0)
(-0.00273776 0.0110154 0)
(-0.00163086 0.0112956 0)
(-0.000534096 0.00992276 0)
(0.00566336 0.0160369 0)
(0.0191007 0.0176863 0)
(0.0317921 0.016096 0)
(0.0438195 0.0138597 0)
(0.0551987 0.0110332 0)
(0.0652655 0.00770549 0)
(0.0738237 0.00402035 0)
(0.0807425 0.000147378 0)
(0.0859241 -0.00374456 0)
(0.0893664 -0.0074816 0)
(0.0911225 -0.0109036 0)
(0.0912593 -0.013863 0)
(0.0899175 -0.0162457 0)
(0.0872558 -0.0179729 0)
(0.083468 -0.0190028 0)
(0.0787666 -0.0193318 0)
(0.0733662 -0.0189907 0)
(0.0674718 -0.0180404 0)
(0.0612721 -0.0165671 0)
(0.054943 -0.0146731 0)
(0.0486386 -0.0124739 0)
(0.0424831 -0.0100787 0)
(0.0365751 -0.00759695 0)
(0.0309802 -0.00512696 0)
(0.0257559 -0.00275131 0)
(0.0209924 -0.00053718 0)
(0.0166868 0.00143802 0)
(0.012789 0.00316234 0)
(0.00932097 0.00461663 0)
(0.00628552 0.00579918 0)
(0.00366738 0.00672382 0)
(0.00144376 0.00741121 0)
(-0.000372846 0.0078919 0)
(-0.00179248 0.008202 0)
(-0.00286033 0.00837958 0)
(-0.00359294 0.00846195 0)
(-0.00401073 0.00848396 0)
(-0.00413324 0.00847457 0)
(-0.00398516 0.00845627 0)
(-0.00359773 0.00844507 0)
(-0.00300195 0.00844973 0)
(-0.00223895 0.00847142 0)
(-0.00133441 0.00850306 0)
(-0.000444059 0.00741019 0)
(0.00418088 -0.00307656 0)
(0.0146396 -0.00382048 0)
(0.0239213 -0.00445337 0)
(0.0328431 -0.00523504 0)
(0.0413868 -0.00616623 0)
(0.0489418 -0.00721762 0)
(0.0553726 -0.00832271 0)
(0.0605248 -0.00940258 0)
(0.0643321 -0.0103861 0)
(0.0667245 -0.0112046 0)
(0.0676778 -0.0117924 0)
(0.0672906 -0.0120946 0)
(0.0656667 -0.0120699 0)
(0.0629299 -0.0116958 0)
(0.0592417 -0.0109691 0)
(0.0547901 -0.00990594 0)
(0.0497548 -0.00854137 0)
(0.0443067 -0.00692018 0)
(0.0386064 -0.0051042 0)
(0.0328188 -0.00316416 0)
(0.0271109 -0.00120302 0)
(0.0216034 0.00075292 0)
(0.0163809 0.00263185 0)
(0.0115146 0.00436995 0)
(0.00705795 0.0059219 0)
(0.00301199 0.00725085 0)
(-0.000590213 0.00830929 0)
(-0.0037225 0.00910946 0)
(-0.00632913 0.00965948 0)
(-0.00840198 0.00996148 0)
(-0.0100125 0.0100359 0)
(-0.0111984 0.00991257 0)
(-0.011976 0.00962791 0)
(-0.0123414 0.00921911 0)
(-0.0123276 0.00872521 0)
(-0.0119676 0.00818455 0)
(-0.0112967 0.00763338 0)
(-0.0103439 0.00710385 0)
(-0.00914057 0.00662373 0)
(-0.00772678 0.00621534 0)
(-0.00613766 0.00589409 0)
(-0.00440732 0.00566673 0)
(-0.00256135 0.00553274 0)
(-0.0008069 0.00477812 0)
(0.00241141 -0.0145559 0)
(0.00931886 -0.016627 0)
(0.014535 -0.0166483 0)
(0.0196545 -0.0164702 0)
(0.024559 -0.0161284 0)
(0.0286499 -0.0156267 0)
(0.0318053 -0.0149628 0)
(0.0339233 -0.0141279 0)
(0.0349454 -0.0131091 0)
(0.0348255 -0.0119044 0)
(0.0335564 -0.0105194 0)
(0.031224 -0.00896992 0)
(0.0279434 -0.00727115 0)
(0.0238084 -0.00544535 0)
(0.0189701 -0.0035217 0)
(0.0136356 -0.00153754 0)
(0.00796194 0.000466312 0)
(0.00211318 0.0024445 0)
(-0.00374311 0.00434238 0)
(-0.00952324 0.00610045 0)
(-0.0150361 0.00775732 0)
(-0.0201231 0.00920203 0)
(-0.0247508 0.0104072 0)
(-0.0288444 0.0113518 0)
(-0.0323428 0.0120194 0)
(-0.0352145 0.0124001 0)
(-0.0374374 0.0125205 0)
(-0.0390009 0.0123763 0)
(-0.0399042 0.0119896 0)
(-0.0401651 0.0113872 0)
(-0.0398197 0.010605 0)
(-0.0389001 0.00968004 0)
(-0.0374544 0.00865393 0)
(-0.0355431 0.00756822 0)
(-0.0332042 0.00646229 0)
(-0.0304976 0.00537408 0)
(-0.0274966 0.00433788 0)
(-0.0242375 0.00338449 0)
(-0.0207531 0.00253997 0)
(-0.0171 0.0018264 0)
(-0.0133256 0.00125989 0)
(-0.0094434 0.000849318 0)
(-0.00547691 0.000599641 0)
(-0.00171179 0.00044152 0)
(0.000267256 -0.0190649 0)
(0.00266213 -0.0215312 0)
(0.00286166 -0.0211981 0)
(0.00329487 -0.020398 0)
(0.00362953 -0.0191966 0)
(0.00327321 -0.0176341 0)
(0.00210433 -0.0157481 0)
(5.90624e-05 -0.0135855 0)
(-0.0028441 -0.0111999 0)
(-0.00659636 -0.00864531 0)
(-0.0112199 -0.00597592 0)
(-0.0165708 -0.00325071 0)
(-0.0224298 -0.000531948 0)
(-0.0286831 0.00212174 0)
(-0.0352368 0.00465843 0)
(-0.0420008 0.00703198 0)
(-0.0488223 0.00920051 0)
(-0.0555183 0.011114 0)
(-0.0619427 0.0127476 0)
(-0.0678875 0.0141008 0)
(-0.0732899 0.0151546 0)
(-0.0781147 0.0158484 0)
(-0.0821963 0.0161803 0)
(-0.0854568 0.0161563 0)
(-0.0878518 0.0157884 0)
(-0.0893502 0.0150962 0)
(-0.0899332 0.0141092 0)
(-0.089599 0.0128598 0)
(-0.0883616 0.0113889 0)
(-0.0862407 0.00974311 0)
(-0.0832729 0.00797406 0)
(-0.0794856 0.00613071 0)
(-0.0749495 0.00425986 0)
(-0.0698254 0.00241342 0)
(-0.0642427 0.000643026 0)
(-0.058241 -0.00100755 0)
(-0.0518716 -0.00250559 0)
(-0.0452336 -0.00382602 0)
(-0.0384144 -0.00495334 0)
(-0.0314563 -0.00587973 0)
(-0.0243816 -0.00660182 0)
(-0.0172081 -0.00712119 0)
(-0.00997929 -0.00743704 0)