/*--------------------------------*- C++ -*----------------------------------*\
  =========                 |
  \\      /  F ield         | OpenFOAM: The Open Source CFD Toolbox
   \\    /   O peration     | Website:  https://openfoam.org
    \\  /    A nd           | Version:  7
     \\/     M anipulation  |
\*---------------------------------------------------------------------------*/
FoamFile
{
    version     2.0;
    format      ascii;
    class       volScalarField;
    location    "1";
    object      p;
}
// * * * * * * * * * * * * * * * * * * * * * * * * * * * * * * * * * * * * * //

dimensions      [0 2 -2 0 0 0 0];

internalField   nonuniform List<scalar> 
1936
(
0.000143272
-2741.62
-6842.91
-6858.03
-5522.07
-5130.88
-4694.95
-4330.71
-4216.27
-4473.4
-5416.38
-6835.72
-6704.62
-4800.02
-3561.06
-3474.52
-3883.55
-5762.89
-7596
-6298.44
-3927.93
-3169.66
-3233.75
-4202.71
-6607.49
-7403.83
-5049.38
-3233.99
-3089.28
-3630.89
-5985.6
-7683.34
-5675.34
-3434.5
-3081.47
-3411.13
-5356.67
-7313.34
-6134.21
-3927.63
-3300.47
-3343.53
-4535.28
-7325.68
-93.7623
-2758.39
-6787.03
-6795.49
-5499.13
-5126.55
-4700.56
-4350.04
-4244.07
-4493.23
-5412.21
-6799.68
-6661.45
-4798.75
-3610.06
-3530.53
-3900.06
-5716.49
-7521.63
-6254.49
-3938.78
-3224.51
-3290.39
-4216.01
-6567.72
-7340.26
-5025.51
-3279.3
-3154.66
-3658.31
-5951.81
-7614.96
-5634.95
-3465.48
-3147.64
-3452.83
-5343.87
-7261.12
-6097.77
-3950.47
-3360.99
-3387.53
-4517.54
-7253.02
-383.13
-2820.38
-6579.52
-6620.53
-5452.48
-5107.8
-4714.24
-4398.87
-4312.51
-4553.34
-5415.9
-6687.92
-6527.54
-4810.98
-3743
-3660.53
-3959.56
-5606.91
-7289.28
-6136.43
-3994.39
-3357.28
-3433.15
-4280.99
-6451.27
-7136.7
-4982.65
-3406.45
-3307.47
-3755.46
-5868.55
-7391.54
-5540.18
-3564.35
-3301.93
-3579.33
-5324.97
-7086.73
-5997.42
-4034.28
-3502.93
-3499.29
-4505.79
-7034.75
-790.488
-2916.37
-6268.97
-6365.67
-5393.78
-5085.36
-4737.19
-4469.93
-4409.1
-4639.55
-5415.79
-6509.8
-6326.46
-4831.38
-3923.89
-3837.14
-4063.74
-5470.79
-6945.55
-5963.74
-4090.69
-3548.25
-3629.58
-4373.63
-6266.93
-6828.78
-4935.33
-3593.93
-3518.45
-3900.39
-5742.77
-7051.2
-5416.46
-3719.63
-3515.2
-3759.02
-5289.4
-6812.3
-5845.92
-4151.12
-3691.59
-3666.66
-4517.01
-6717.39
-1265.94
-3037.52
-5906.74
-6065.76
-5321.19
-5059.24
-4767.84
-4554.28
-4518.06
-4733.35
-5404.12
-6289.55
-6091.03
-4852.54
-4117.63
-4031.52
-4198.17
-5335.43
-6550.4
-5763.12
-4213.38
-3769.37
-3845.35
-4472.01
-6041.99
-6469.94
-4892.34
-3809.91
-3751.99
-4066.28
-5592.28
-6653.65
-5287.03
-3906.16
-3751.61
-3959.05
-5237.49
-6482.93
-5666.32
-4272.55
-3892.42
-3864.58
-4551.59
-6358.45
-1770.83
-3179.91
-5534.18
-5750.63
-5235.22
-5030.03
-4803.59
-4643.39
-4627.7
-4820.6
-5374.9
-6047.36
-5847.29
-4869.74
-4304.09
-4225.8
-4346.96
-5216.25
-6152.57
-5555.48
-4348.1
-3997.35
-4057.72
-4564.59
-5799.1
-6102.62
-4859.44
-4028.32
-3984.81
-4234.72
-5431.58
-6245.93
-5167.95
-4101.74
-3987.73
-4156.51
-5171.52
-6134.71
-5476.29
-4385.88
-4086.79
-4070.34
-4604.43
-6000.85
-2275.94
-3340.48
-5183.93
-5445.88
-5138.81
-4997.88
-4839.26
-4728.92
-4727.68
-4891.79
-5327.09
-5802.35
-5615.71
-4884.81
-4471.19
-4406.92
-4493.77
-5120.32
-5787.35
-5359.01
-4479.92
-4213.04
-4253.58
-4646.04
-5558.3
-5758.52
-4839.4
-4230.9
-4200.44
-4391.47
-5275.31
-5864.25
-5068.5
-4288.19
-4206.55
-4336.02
-5097.72
-5797.53
-5293.49
-4486.91
-4266
-4265.1
-4665.1
-5673.62
-2759.72
-3515.01
-4881.55
-5171.43
-5036.57
-4962.11
-4868.53
-4802.73
-4810.45
-4942.58
-5262.13
-5571.42
-5411.6
-4900.75
-4613.05
-4565.16
-4625.48
-5046.13
-5477.97
-5188.12
-4596.82
-4402.62
-4424.82
-4713.77
-5338.05
-5460.01
-4830.98
-4406.77
-4387.64
-4527.61
-5135.53
-5533.57
-4991.37
-4452.59
-4395.89
-4488.89
-5024.72
-5495.05
-5132.85
-4576.51
-4424.21
-4434.83
-4721.9
-5395.2
-3201.68
-3699.94
-4646.99
-4940.93
-4934
-4921.6
-4885.61
-4857.73
-4871.52
-4970.75
-5185.9
-5367.94
-5245.06
-4916.46
-4727.72
-4693.33
-4732.93
-4988.77
-5237.14
-5053.23
-4690.69
-4557.37
-4567.31
-4765.07
-5152.92
-5220.97
-4828.72
-4551.05
-4539.88
-4638.06
-5021.36
-5268.71
-4932.92
-4587.95
-4548.76
-4612.82
-4958.66
-5245.24
-5004.57
-4652.77
-4556.91
-4571.44
-4766.91
-5174.89
-3580.38
-3888.02
-4494.49
-4763.73
-4837.84
-4876.33
-4887.01
-4889.81
-4908.5
-4976.95
-5106.8
-5201.18
-5119.01
-4928.16
-4813.28
-4787.8
-4811.03
-4945.49
-5066.63
-4958.45
-4758.85
-4674.64
-4677.9
-4798.82
-5012.31
-5045.68
-4827.57
-4662.72
-4655.09
-4720.16
-4937.13
-5074.94
-4889.98
-4690.77
-4663.84
-4705.32
-4904.4
-5057.22
-4912.94
-4713.13
-4659.48
-4674.3
-4795.56
-5015.02
-3881.59
-4065.23
-4424.63
-4645.71
-4756.74
-4829.28
-4873.2
-4899.08
-4922
-4965.26
-5033.33
-5075.09
-5029.07
-4931.97
-4868.93
-4850.23
-4858.83
-4914.44
-4959
-4900.71
-4803.33
-4755.54
-4754.98
-4817.62
-4917.92
-4930.9
-4826.03
-4740.91
-4735.76
-4774.48
-4882
-4947.85
-4860.66
-4760.67
-4743
-4766.85
-4864.5
-4931.06
-4855.11
-4756.11
-4730.95
-4744.69
-4810.22
-4911.32
-4105.83
-4216.04
-4420.06
-4584.99
-4699.46
-4786.76
-4849.79
-4889.62
-4915.48
-4941.35
-4971.51
-4986.97
-4967.33
-4926.81
-4897.3
-4884.29
-4881.82
-4893.81
-4900.04
-4871.05
-4829.14
-4804.77
-4801.61
-4826.24
-4863.42
-4866.33
-4824.71
-4788.7
-4786.1
-4805.74
-4850.39
-4875.99
-4842.77
-4801.31
-4791.16
-4801.57
-4838.78
-4858.68
-4823.87
-4783.19
-4775.44
-4786.51
-4815.82
-4853.17
-4264.78
-4335.65
-4452.65
-4569.21
-4668.78
-4754.59
-4822.33
-4868.36
-4895.17
-4911.35
-4923.38
-4929.42
-4925.67
-4914.96
-4904.7
-4896.38
-4888.04
-4881.05
-4872.87
-4858.32
-4841.92
-4830.27
-4825.38
-4829.5
-4837.58
-4836.71
-4824.32
-4813.41
-4813.06
-4820.78
-4834.98
-4842.51
-4833.4
-4820.53
-4815.6
-4817.16
-4824.82
-4825.16
-4810.95
-4798.63
-4799.71
-4807.08
-4816.97
-4826.17
-4379.89
-4426.02
-4498.52
-4579.27
-4659.28
-4734.02
-4796.46
-4840.99
-4867.3
-4880.64
-4887.8
-4893.02
-4897.39
-4899.9
-4899.52
-4894.53
-4884.8
-4873.05
-4862.27
-4853.67
-4846.83
-4840.75
-4835.1
-4830.91
-4828.67
-4826.8
-4824.72
-4823.89
-4824.74
-4826.55
-4829.02
-4830.34
-4829.29
-4827.12
-4824.93
-4822.18
-4818.96
-4814.08
-4808.35
-4807.09
-4810.91
-4815.02
-4816.75
-4816.66
-4468.32
-4496.89
-4543.66
-4600.28
-4661.79
-4721.92
-4774.33
-4813.75
-4838.9
-4853.05
-4861.6
-4869.07
-4877.04
-4883.97
-4887.17
-4884.73
-4877.05
-4867
-4858.02
-4851.84
-4847.71
-4843.4
-4837.92
-4832
-4827.34
-4825.37
-4825.9
-4827.41
-4828.39
-4828.22
-4827.49
-4827.26
-4827.74
-4828.05
-4826.69
-4822.97
-4817.78
-4813
-4810.77
-4811.99
-4815.27
-4817.27
-4816.6
-4814.9
-4538.92
-4555.63
-4585.49
-4624.53
-4669.2
-4715.28
-4756.84
-4790.12
-4813.85
-4829.76
-4841.17
-4851.06
-4860.46
-4868.29
-4872.59
-4872.17
-4867.63
-4861.1
-4854.96
-4850.37
-4846.84
-4843.04
-4838.23
-4833.1
-4829.07
-4827.22
-4827.41
-4828.39
-4828.89
-4828.29
-4827.27
-4826.73
-4826.98
-4827.09
-4825.87
-4822.82
-4818.88
-4815.59
-4814.28
-4815.1
-4816.81
-4817.45
-4816.67
-4815.45
-4595.36
-4604.95
-4623.52
-4649.39
-4680.36
-4713.33
-4744.97
-4772.16
-4793.81
-4810.5
-4823.81
-4835.18
-4845.07
-4852.94
-4857.8
-4859.18
-4857.62
-4854.42
-4850.9
-4847.73
-4844.75
-4841.46
-4837.69
-4833.91
-4830.92
-4829.23
-4828.74
-4828.76
-4828.61
-4828.01
-4827.25
-4826.73
-4826.47
-4826.04
-4824.86
-4822.78
-4820.32
-4818.27
-4817.23
-4817.22
-4817.6
-4817.57
-4816.99
-4816.39
-4639.84
-4645.45
-4656.86
-4673.44
-4694
-4716.74
-4739.61
-4760.84
-4779.41
-4795.22
-4808.7
-4820.33
-4830.2
-4838.04
-4843.47
-4846.41
-4847.23
-4846.63
-4845.29
-4843.59
-4841.59
-4839.24
-4836.63
-4834.08
-4831.97
-4830.51
-4829.64
-4829.05
-4828.49
-4827.86
-4827.22
-4826.66
-4826.13
-4825.45
-4824.43
-4823.06
-4821.57
-4820.25
-4819.35
-4818.85
-4818.54
-4818.17
-4817.75
-4817.42
-4674.36
-4677.77
-4684.82
-4695.3
-4708.64
-4723.88
-4739.91
-4755.76
-4770.63
-4784.23
-4796.44
-4807.24
-4816.55
-4824.2
-4830.05
-4834.11
-4836.61
-4837.89
-4838.29
-4838.05
-4837.29
-4836.12
-4834.69
-4833.21
-4831.87
-4830.77
-4829.89
-4829.15
-4828.47
-4827.81
-4827.19
-4826.6
-4826
-4825.32
-4824.51
-4823.57
-4822.59
-4821.68
-4820.9
-4820.27
-4819.73
-4819.27
-4818.9
-4818.66
-4700.82
-4702.96
-4707.4
-4714.06
-4722.69
-4732.8
-4743.83
-4755.22
-4766.57
-4777.42
-4787.6
-4796.9
-4805.19
-4812.32
-4818.2
-4822.85
-4826.35
-4828.87
-4830.55
-4831.56
-4832
-4832
-4831.67
-4831.15
-4830.55
-4829.95
-4829.37
-4828.8
-4828.23
-4827.68
-4827.14
-4826.6
-4826.07
-4825.49
-4824.86
-4824.19
-4823.51
-4822.84
-4822.21
-4821.64
-4821.14
-4820.71
-4820.39
-4820.19
-4720.78
-4722.17
-4725.04
-4729.36
-4735.02
-4741.76
-4749.32
-4757.39
-4765.69
-4773.99
-4782.03
-4789.64
-4796.67
-4802.99
-4808.53
-4813.26
-4817.19
-4820.38
-4822.9
-4824.83
-4826.23
-4827.19
-4827.79
-4828.12
-4828.24
-4828.23
-4828.1
-4827.89
-4827.63
-4827.31
-4826.97
-4826.6
-4826.21
-4825.79
-4825.35
-4824.88
-4824.4
-4823.92
-4823.46
-4823.02
-4822.63
-4822.31
-4822.07
-4821.93
-4735.5
-4736.44
-4738.36
-4741.25
-4745.05
-4749.65
-4754.89
-4760.61
-4766.65
-4772.85
-4779.04
-4785.08
-4790.86
-4796.27
-4801.24
-4805.72
-4809.68
-4813.14
-4816.09
-4818.58
-4820.63
-4822.29
-4823.61
-4824.63
-4825.39
-4825.95
-4826.33
-4826.56
-4826.67
-4826.69
-4826.63
-4826.5
-4826.33
-4826.11
-4825.85
-4825.57
-4825.27
-4824.97
-4824.66
-4824.38
-4824.12
-4823.9
-4823.75
-4823.66
-4745.2
-4745.88
-4747.25
-4749.33
-4752.07
-4755.41
-4759.25
-4763.52
-4768.09
-4772.88
-4777.77
-4782.66
-4787.47
-4792.11
-4796.52
-4800.64
-4804.44
-4807.9
-4811.01
-4813.76
-4816.17
-4818.26
-4820.03
-4821.52
-4822.76
-4823.76
-4824.56
-4825.19
-4825.65
-4825.99
-4826.21
-4826.33
-4826.38
-4826.36
-4826.29
-4826.17
-4826.03
-4825.87
-4825.7
-4825.53
-4825.38
-4825.25
-4825.16
-4825.11
-4750.68
-4751.23
-4752.31
-4753.96
-4756.15
-4758.82
-4761.93
-4765.4
-4769.17
-4773.16
-4777.29
-4781.49
-4785.7
-4789.84
-4793.85
-4797.7
-4801.33
-4804.73
-4807.86
-4810.72
-4813.3
-4815.6
-4817.63
-4819.41
-4820.93
-4822.23
-4823.31
-4824.2
-4824.92
-4825.49
-4825.92
-4826.23
-4826.45
-4826.58
-4826.64
-4826.65
-4826.62
-4826.56
-4826.48
-4826.4
-4826.31
-4826.24
-4826.18
-4826.15
-4753.49
-4753.97
-4754.9
-4756.34
-4758.24
-4760.58
-4763.31
-4766.37
-4769.71
-4773.28
-4777.01
-4780.84
-4784.71
-4788.56
-4792.36
-4796.04
-4799.57
-4802.91
-4806.05
-4808.96
-4811.64
-4814.06
-4816.24
-4818.18
-4819.87
-4821.35
-4822.6
-4823.67
-4824.55
-4825.26
-4825.83
-4826.27
-4826.59
-4826.83
-4826.98
-4827.07
-4827.1
-4827.1
-4827.08
-4827.04
-4826.99
-4826.95
-4826.91
-4826.89
-4754.76
-4755.2
-4756.06
-4757.38
-4759.15
-4761.32
-4763.85
-4766.71
-4769.84
-4773.2
-4776.72
-4780.36
-4784.07
-4787.78
-4791.46
-4795.07
-4798.55
-4801.89
-4805.04
-4807.99
-4810.73
-4813.24
-4815.51
-4817.55
-4819.36
-4820.94
-4822.31
-4823.48
-4824.46
-4825.26
-4825.92
-4826.43
-4826.83
-4827.12
-4827.32
-4827.45
-4827.53
-4827.56
-4827.57
-4827.55
-4827.52
-4827.49
-4827.47
-4827.45
-4755.14
-4755.56
-4756.38
-4757.66
-4759.36
-4761.45
-4763.9
-4766.66
-4769.7
-4772.96
-4776.4
-4779.97
-4783.6
-4787.27
-4790.92
-4794.5
-4797.98
-4801.33
-4804.52
-4807.51
-4810.3
-4812.87
-4815.21
-4817.32
-4819.2
-4820.86
-4822.29
-4823.53
-4824.57
-4825.43
-4826.13
-4826.68
-4827.11
-4827.43
-4827.66
-4827.81
-4827.91
-4827.95
-4827.96
-4827.96
-4827.94
-4827.91
-4827.89
-4827.88
-4755.03
-4755.44
-4756.26
-4757.51
-4759.19
-4761.26
-4763.68
-4766.42
-4769.44
-4772.68
-4776.1
-4779.65
-4783.28
-4786.95
-4790.61
-4794.21
-4797.71
-4801.09
-4804.31
-4807.34
-4810.18
-4812.79
-4815.18
-4817.33
-4819.26
-4820.96
-4822.43
-4823.7
-4824.77
-4825.65
-4826.37
-4826.95
-4827.39
-4827.71
-4827.95
-4828.1
-4828.19
-4828.24
-4828.25
-4828.24
-4828.22
-4828.19
-4828.17
-4828.16
-4754.75
-4755.16
-4755.97
-4757.22
-4758.9
-4760.98
-4763.41
-4766.16
-4769.18
-4772.44
-4775.88
-4779.46
-4783.11
-4786.81
-4790.49
-4794.12
-4797.66
-4801.07
-4804.32
-4807.39
-4810.25
-4812.9
-4815.31
-4817.49
-4819.43
-4821.14
-4822.63
-4823.9
-4824.97
-4825.86
-4826.58
-4827.14
-4827.57
-4827.89
-4828.11
-4828.26
-4828.34
-4828.37
-4828.38
-4828.36
-4828.33
-4828.3
-4828.27
-4828.25
-4754.47
-4754.88
-4755.69
-4756.95
-4758.65
-4760.75
-4763.2
-4765.98
-4769.04
-4772.33
-4775.81
-4779.42
-4783.12
-4786.85
-4790.56
-4794.23
-4797.79
-4801.23
-4804.5
-4807.59
-4810.46
-4813.12
-4815.53
-4817.71
-4819.65
-4821.35
-4822.82
-4824.08
-4825.13
-4825.99
-4826.68
-4827.22
-4827.62
-4827.91
-4828.11
-4828.23
-4828.29
-4828.31
-4828.29
-4828.26
-4828.22
-4828.18
-4828.15
-4828.14
-4754.3
-4754.71
-4755.53
-4756.81
-4758.53
-4760.66
-4763.15
-4765.97
-4769.06
-4772.4
-4775.91
-4779.56
-4783.29
-4787.05
-4790.79
-4794.48
-4798.07
-4801.52
-4804.8
-4807.89
-4810.76
-4813.4
-4815.81
-4817.97
-4819.88
-4821.55
-4822.98
-4824.2
-4825.2
-4826.02
-4826.66
-4827.15
-4827.51
-4827.75
-4827.91
-4827.99
-4828.02
-4828.01
-4827.98
-4827.93
-4827.88
-4827.83
-4827.8
-4827.78
-4754.33
-4754.74
-4755.56
-4756.86
-4758.61
-4760.77
-4763.29
-4766.14
-4769.27
-4772.63
-4776.17
-4779.85
-4783.6
-4787.38
-4791.14
-4794.84
-4798.44
-4801.89
-4805.17
-4808.25
-4811.11
-4813.73
-4816.1
-4818.23
-4820.1
-4821.72
-4823.1
-4824.26
-4825.21
-4825.96
-4826.53
-4826.96
-4827.25
-4827.43
-4827.52
-4827.55
-4827.53
-4827.48
-4827.41
-4827.35
-4827.29
-4827.23
-4827.19
-4827.18
-4754.6
-4755.01
-4755.84
-4757.15
-4758.92
-4761.09
-4763.63
-4766.49
-4769.64
-4773.01
-4776.56
-4780.25
-4784.01
-4787.8
-4791.57
-4795.27
-4798.86
-4802.3
-4805.57
-4808.63
-4811.47
-4814.06
-4816.4
-4818.48
-4820.3
-4821.87
-4823.2
-4824.29
-4825.16
-4825.83
-4826.33
-4826.67
-4826.88
-4826.98
-4826.99
-4826.94
-4826.85
-4826.74
-4826.62
-4826.52
-4826.44
-4826.38
-4826.34
-4826.32
-4755.15
-4755.55
-4756.38
-4757.69
-4759.45
-4761.62
-4764.14
-4766.99
-4770.12
-4773.48
-4777.02
-4780.7
-4784.46
-4788.25
-4792.01
-4795.7
-4799.29
-4802.72
-4805.98
-4809.02
-4811.83
-4814.39
-4816.69
-4818.73
-4820.5
-4822.01
-4823.27
-4824.29
-4825.09
-4825.69
-4826.1
-4826.35
-4826.46
-4826.47
-4826.38
-4826.23
-4826.04
-4825.83
-4825.64
-4825.47
-4825.34
-4825.25
-4825.21
-4825.22
-4756.02
-4756.41
-4757.22
-4758.48
-4760.19
-4762.3
-4764.77
-4767.57
-4770.65
-4773.98
-4777.5
-4781.16
-4784.91
-4788.68
-4792.44
-4796.13
-4799.7
-4803.13
-4806.36
-4809.39
-4812.17
-4814.7
-4816.97
-4818.96
-4820.69
-4822.14
-4823.34
-4824.3
-4825.02
-4825.54
-4825.87
-4826.03
-4826.04
-4825.94
-4825.74
-4825.48
-4825.17
-4824.84
-4824.52
-4824.23
-4824.01
-4823.85
-4823.8
-4823.82
-4757.27
-4757.61
-4758.35
-4759.47
-4761.07
-4763.07
-4765.44
-4768.16
-4771.18
-4774.46
-4777.95
-4781.59
-4785.32
-4789.08
-4792.83
-4796.51
-4800.08
-4803.49
-4806.72
-4809.72
-4812.49
-4814.99
-4817.23
-4819.18
-4820.86
-4822.27
-4823.42
-4824.31
-4824.97
-4825.41
-4825.66
-4825.73
-4825.65
-4825.45
-4825.14
-4824.75
-4824.3
-4823.82
-4823.34
-4822.89
-4822.51
-4822.19
-4822.09
-4822.08
-4759.03
-4759.17
-4759.74
-4760.61
-4762.02
-4763.85
-4766.1
-4768.72
-4771.67
-4774.9
-4778.35
-4781.96
-4785.67
-4789.43
-4793.17
-4796.84
-4800.4
-4803.81
-4807.02
-4810.02
-4812.77
-4815.25
-4817.46
-4819.39
-4821.03
-4822.4
-4823.49
-4824.34
-4824.94
-4825.31
-4825.49
-4825.48
-4825.32
-4825.02
-4824.6
-4824.08
-4823.5
-4822.86
-4822.19
-4821.52
-4820.91
-4820.32
-4820.07
-4819.88
-4761.42
-4761.04
-4761.32
-4761.79
-4762.96
-4764.59
-4766.7
-4769.21
-4772.08
-4775.25
-4778.67
-4782.26
-4785.96
-4789.71
-4793.44
-4797.11
-4800.67
-4804.08
-4807.29
-4810.27
-4813.01
-4815.48
-4817.66
-4819.57
-4821.18
-4822.51
-4823.57
-4824.37
-4824.92
-4825.25
-4825.36
-4825.29
-4825.05
-4824.66
-4824.15
-4823.52
-4822.8
-4822
-4821.14
-4820.22
-4819.32
-4818.31
-4817.79
-4817.1
-4764.58
-4763.12
-4762.96
-4762.91
-4763.8
-4765.22
-4767.19
-4769.6
-4772.4
-4775.53
-4778.91
-4782.49
-4786.18
-4789.92
-4793.66
-4797.33
-4800.89
-4804.29
-4807.5
-4810.48
-4813.21
-4815.66
-4817.84
-4819.72
-4821.31
-4822.62
-4823.65
-4824.41
-4824.92
-4825.2
-4825.27
-4825.15
-4824.85
-4824.39
-4823.8
-4823.08
-4822.24
-4821.29
-4820.25
-4819.07
-4817.87
-4816.31
-4815.37
-4813.6
-4768.6
-4765.25
-4764.5
-4763.88
-4764.48
-4765.71
-4767.56
-4769.89
-4772.63
-4775.72
-4779.09
-4782.65
-4786.34
-4790.08
-4793.81
-4797.49
-4801.05
-4804.45
-4807.66
-4810.64
-4813.36
-4815.81
-4817.97
-4819.84
-4821.42
-4822.71
-4823.71
-4824.45
-4824.94
-4825.18
-4825.22
-4825.05
-4824.71
-4824.2
-4823.54
-4822.75
-4821.82
-4820.76
-4819.56
-4818.15
-4816.64
-4814.48
-4812.99
-4809.3
-4773.4
-4767.21
-4765.79
-4764.62
-4764.99
-4766.05
-4767.81
-4770.08
-4772.78
-4775.85
-4779.2
-4782.75
-4786.44
-4790.18
-4793.92
-4797.59
-4801.16
-4804.56
-4807.77
-4810.75
-4813.47
-4815.91
-4818.07
-4819.93
-4821.5
-4822.77
-4823.76
-4824.48
-4824.95
-4825.18
-4825.18
-4824.99
-4824.62
-4824.07
-4823.37
-4822.53
-4821.53
-4820.38
-4819.07
-4817.48
-4815.71
-4812.99
-4810.86
-4804.29
-4778.62
-4768.76
-4766.7
-4765.1
-4765.3
-4766.26
-4767.96
-4770.19
-4772.87
-4775.92
-4779.26
-4782.81
-4786.5
-4790.24
-4793.98
-4797.66
-4801.22
-4804.63
-4807.84
-4810.81
-4813.53
-4815.98
-4818.13
-4819.99
-4821.55
-4822.81
-4823.8
-4824.51
-4824.96
-4825.18
-4825.17
-4824.96
-4824.57
-4824
-4823.28
-4822.4
-4821.36
-4820.16
-4818.77
-4817.06
-4815.11
-4811.96
-4809.2
-4798.93
-4783.56
-4769.74
-4767.19
-4765.35
-4765.46
-4766.37
-4768.03
-4770.24
-4772.91
-4775.95
-4779.29
-4782.84
-4786.52
-4790.27
-4794.01
-4797.68
-4801.25
-4804.66
-4807.87
-4810.84
-4813.56
-4816
-4818.16
-4820.01
-4821.57
-4822.83
-4823.81
-4824.52
-4824.97
-4825.18
-4825.16
-4824.95
-4824.54
-4823.97
-4823.23
-4822.34
-4821.28
-4820.05
-4818.63
-4816.86
-4814.81
-4811.42
-4808.17
-4793.92
-4787.51
-4770.17
-4767.36
-4765.44
-4765.51
-4766.4
-4768.05
-4770.26
-4772.92
-4775.96
-4779.3
-4782.85
-4786.53
-4790.27
-4794.01
-4797.69
-4801.26
-4804.67
-4807.87
-4810.85
-4813.57
-4816.01
-4818.16
-4820.02
-4821.57
-4822.84
-4823.82
-4824.52
-4824.97
-4825.18
-4825.16
-4824.94
-4824.54
-4823.96
-4823.22
-4822.32
-4821.26
-4820.02
-4818.59
-4816.79
-4814.71
-4811.24
-4807.73
-4789.95
)
;

boundaryField
{
    movingWall
    {
        type            zeroGradient;
    }
    fixedWalls
    {
        type            zeroGradient;
    }
    frontAndBack
    {
        type            empty;
    }
    defaultFaces
    {
        type            empty;
    }
}


// ************************************************************************* //
