/*--------------------------------*- C++ -*----------------------------------*\
  =========                 |
  \\      /  F ield         | OpenFOAM: The Open Source CFD Toolbox
   \\    /   O peration     | Website:  https://openfoam.org
    \\  /    A nd           | Version:  7
     \\/     M anipulation  |
\*---------------------------------------------------------------------------*/
FoamFile
{
    version     2.0;
    format      ascii;
    class       surfaceScalarField;
    location    "1";
    object      phi;
}
// * * * * * * * * * * * * * * * * * * * * * * * * * * * * * * * * * * * * * //

dimensions      [0 3 -1 0 0 0 0];

internalField   nonuniform List<scalar> 
3784
(
-0.00214344
0.00214343
-0.00252709
0.000383652
-0.00125916
-0.00126793
0.000165849
-0.00142501
0.000691642
-0.000525795
0.000791208
-9.95651e-05
0.000662006
0.000129201
0.000216015
0.000445989
-0.000425237
0.000641252
-0.000881328
0.000456092
-0.000785922
-9.54052e-05
3.41132e-05
-0.000820037
0.00101686
-0.000982751
0.00104591
-2.90451e-05
-8.01955e-05
0.00112611
-0.0013755
0.0012953
-0.00175648
0.000380978
-0.000697064
-0.00105941
0.00099302
-0.00169008
0.00199528
-0.00100226
0.00174571
0.000249577
0.000474755
0.00127095
-0.000833946
0.0013087
-0.00113865
0.0003047
-0.000233579
-0.000905067
0.0012113
-0.00144488
0.00175684
-0.000545538
0.000711479
0.00104536
-0.000802858
0.00151434
-0.00143376
0.000630906
-0.000663547
-0.000770219
0.000889431
-0.00155298
0.00181108
-0.000921649
0.0010968
0.000714277
-0.000436394
0.0015332
-0.00139687
0.000960472
-0.00110469
-0.000292177
8.19613e-05
-0.00118665
0.000911751
-0.000829789
0.000388667
0.000523084
-0.00100869
0.00139736
-0.00202803
0.00101933
-0.00162077
-0.000407251
-0.00162078
-0.00296135
0.00510479
-0.00366552
0.00108782
-0.00138885
-0.0035446
0.000210678
-0.00302454
0.000501416
-0.000816534
0.000734991
-0.000333138
0.00062796
0.000236231
0.00021546
0.000858487
-0.000351054
0.00120777
-0.000950384
0.00105542
-0.00111277
6.69798e-05
-9.37053e-06
-0.00192343
0.00131412
-0.00230624
0.00106311
0.00022196
-0.00015868
0.00234789
-0.00117888
0.00231551
-0.00184444
0.00104654
-0.00100582
-0.00189803
0.00130281
-0.00399871
0.00234231
-0.00204176
0.00161684
0.000975049
0.000518685
0.00236911
-0.000710728
0.00253811
-0.00154477
0.00113874
-0.000445106
-0.00200473
0.00161205
-0.00350203
0.00180552
-0.000739015
0.000596957
0.00225393
-0.000619215
0.00273051
-0.001699
0.00171069
-0.00103508
-0.00143414
0.001252
-0.00384005
0.0019664
-0.00163605
0.000932853
0.00174782
-0.000293195
0.00275925
-0.00156599
0.00223327
-0.00153553
-0.000322641
0.000277731
-0.00299991
0.00117295
-0.00172501
0.000223387
0.00147265
-0.000904821
0.00252557
-0.00187435
0.00198886
-0.00207288
-0.00020872
-0.00369366
-0.00304217
0.00814696
-0.00381477
0.00186041
-0.00150166
-0.0058577
0.000359649
-0.00488584
0.000691844
-0.00114873
0.000804946
-0.000446247
0.000590929
0.000450248
3.74291e-05
0.00141199
-0.000677807
0.001923
-0.00131892
0.00169653
-0.00125574
3.79903e-06
0.000211555
-0.00339072
0.00174116
-0.00383584
0.0015588
0.000404318
0.000327863
0.00357883
-0.000920599
0.00356397
-0.00194292
0.00206885
-0.00122906
-0.00261189
0.00131454
-0.00654232
0.00257552
-0.00330274
0.0016565
0.00189407
0.000154656
0.00387094
-0.00125377
0.00394654
-0.00192136
0.00180633
-0.000419193
-0.0035069
0.00193237
-0.0058536
0.00209599
-0.000902626
0.000605622
0.00374429
-0.000946688
0.00428282
-0.00209452
0.00285852
-0.00113448
-0.00239419
0.00148611
-0.00646063
0.00221337
-0.00236331
0.00087217
0.00308902
-0.000704537
0.00433595
-0.00203058
0.00355931
-0.00168156
-0.00067166
0.000532763
-0.00521423
0.00169088
-0.00288313
0.000879786
0.00228374
-0.000387404
0.00379276
-0.00178102
0.00338248
-0.00221086
0.000221119
-0.00590451
-0.00248579
0.0106327
-0.00319913
0.00257376
-0.00157136
-0.00748547
-0.000136162
-0.00632104
0.000285441
-0.00157034
0.000414028
-0.000574834
0.000194896
0.00066938
-0.000265836
0.00187272
-0.000766868
0.00242404
-0.00111792
0.00204758
-0.000875769
-0.00023835
0.000327776
-0.00459427
0.00142263
-0.00493069
0.00136821
0.000458742
0.000673865
0.00427317
-0.000172487
0.00441032
-0.00107981
0.00297618
-0.000834169
-0.00285753
0.000877444
-0.00825393
0.00178422
-0.00420951
0.0010055
0.00267279
-0.000169423
0.00504586
-0.00108498
0.0048621
-0.0013917
0.00211305
-0.000210084
-0.00468851
0.00141286
-0.00747655
0.00141413
-0.000903895
0.000335442
0.00482298
-0.000726998
0.00534526
-0.00149752
0.00362905
-0.000749135
-0.00314257
0.00105893
-0.0082687
0.0014128
-0.00271718
0.000364312
0.00413751
-0.000723065
0.00542333
-0.00156995
0.0044062
-0.00116204
-0.00107957
0.000476135
-0.00685241
0.00134587
-0.00375286
0.0010054
0.00262421
0.00026304
0.00453511
-0.00084838
0.0044939
-0.00137586
0.0007486
-0.00728038
-0.00177002
0.0124028
-0.00248597
0.0032897
-0.0015955
-0.00837594
-0.000678687
-0.00723785
-0.000216511
-0.00203251
-8.69686e-05
-0.000704375
-0.000276945
0.000859357
-0.000586833
0.00218261
-0.000851008
0.00268821
-0.000889401
0.00208598
-0.000468412
-0.000659338
0.000421129
-0.00548381
0.00104634
-0.00555591
0.0010992
0.000405889
0.000838733
0.00453364
0.000364391
0.00488466
-0.000277469
0.00361803
-0.000392718
-0.00274228
0.000394047
-0.0090407
0.000920932
-0.0047364
0.000385026
0.0032087
-0.000333649
0.00576454
-0.000763648
0.0052921
-0.00082013
0.00216953
-1.04157e-05
-0.00549822
0.000828956
-0.00831592
0.000678548
-0.000753486
0.000122532
0.00537899
-0.000447085
0.00591488
-0.000856242
0.0040382
-0.000349737
-0.00364908
0.000594022
-0.00921246
0.000598953
-0.00272211
-3.37971e-05
0.00477026
-0.000626298
0.00601583
-0.000997462
0.00477736
-0.00058184
-0.00149519
0.000427045
-0.0078613
0.000996959
-0.00432277
0.000939491
0.00268168
0.000610041
0.00486456
-5.9501e-05
0.00516344
-0.000557898
0.001247
-0.00783828
-0.000956502
0.0133593
-0.00166308
0.00399628
-0.00153562
-0.00850341
-0.00122357
-0.0075499
-0.000801272
-0.00245481
-0.000672084
-0.000833565
-0.000742259
0.000929534
-0.000833143
0.00227349
-0.00080324
0.00265831
-0.000554982
0.00183772
-4.6556e-05
-0.00116776
0.00043901
-0.00596938
0.000567222
-0.00568412
0.000593758
0.000379355
0.000711407
0.00441599
0.000642871
0.0049532
0.000403149
0.00385775
4.37142e-05
-0.00238284
-5.31439e-05
-0.00894384
3.84896e-05
-0.00482803
-0.000138801
0.00338599
-0.000300772
0.00592651
-0.000312902
0.00530423
-0.000200545
0.00205717
0.000165604
-0.00586437
0.000232479
-0.00838279
-2.53578e-05
-0.000495649
-6.02511e-05
0.00541388
-0.00010992
0.00596455
-0.000130711
0.004059
4.37466e-05
-0.00382354
0.00011378
-0.00928249
-0.000156319
-0.00245201
-0.000307197
0.00492114
-0.000361425
0.00607006
-0.00028436
0.0047003
2.57841e-05
-0.00180533
0.000352152
-0.00818766
0.000514458
-0.00448508
0.000611605
0.00258453
0.000589648
0.00488652
0.00045623
0.00529685
0.000163167
0.00154006
-0.00767511
-0.000135705
0.013495
-0.000764282
0.00462486
-0.00140948
-0.00785821
-0.00172038
-0.007239
-0.00141886
-0.00275633
-0.00127086
-0.000981569
-0.0011542
0.000812868
-0.000972219
0.00209151
-0.000657539
0.00234363
-0.000215699
0.00139588
0.000312697
-0.00169616
0.000334961
-0.00599164
-1.26814e-05
-0.00533647
-5.6853e-05
0.000423523
0.000357952
0.00400118
0.000703105
0.00460805
0.000884488
0.00367637
0.000470722
-0.00196908
-0.000398102
-0.00807502
-0.000753335
-0.0044728
-0.000549068
0.00318173
-0.000159437
0.00553688
0.00020734
0.00493745
0.000449148
0.00181536
0.000296922
-0.00571215
-0.000346695
-0.00773918
-0.000619896
-0.000222449
-0.000206666
0.00500065
0.000246158
0.00551172
0.000555813
0.00374934
0.000380058
-0.00364778
-0.000335391
-0.00856704
-0.000758968
-0.00202843
-0.000449562
0.00461173
3.08923e-05
0.00558961
0.000474501
0.00425669
0.000573897
-0.00190473
0.000211738
-0.0078255
-6.65789e-05
-0.00420676
7.53368e-05
0.00244262
0.000359953
0.0046019
0.000759703
0.0048971
0.000769721
0.00153004
-0.00690539
0.000759651
0.0127353
0.000244783
0.00513973
-0.00117932
-0.00643411
-0.00205158
-0.00636674
-0.0019297
-0.00287821
-0.00175526
-0.00115601
-0.00144069
0.000498296
-0.000980693
0.00163152
-0.000446889
0.00180982
0.000143135
0.000805855
0.000546325
-0.00209935
0.000107229
-0.00555254
-0.000660278
-0.00456896
-0.000662007
0.000425248
-4.03034e-05
0.00337948
0.000681208
0.00388654
0.00123244
0.00312514
0.00086431
-0.00160095
-0.000602456
-0.00660825
-0.00136363
-0.00371162
-0.000853673
0.00267177
-1.4528e-05
0.00469774
0.000643552
0.00427937
0.00102529
0.00143362
0.000363945
-0.0050508
-0.000860369
-0.00651486
-0.00101612
-6.6698e-05
-0.000290902
0.00427543
0.000559777
0.00466105
0.00113636
0.00317276
0.000623213
-0.00313464
-0.000726004
-0.00721783
-0.00113668
-0.00161776
-0.000481957
0.00395701
0.000417908
0.00468974
0.00107613
0.00359846
0.000990379
-0.00181897
-3.2956e-05
-0.00680217
-0.000703571
-0.00353615
-0.000432934
0.00217198
0.000145333
0.00402364
0.00094485
0.00409758
0.00120935
0.00126554
-0.00569604
0.00169867
0.0110367
0.00143396
0.00540444
-0.000658454
-0.0043417
-0.00199491
-0.00503027
-0.00211498
-0.00275814
-0.0019556
-0.00131538
-0.00150879
5.148e-05
-0.000862062
0.000984786
-0.000185827
0.00113358
0.000430276
0.000189756
0.000596423
-0.0022655
-0.000241537
-0.00471459
-0.00123429
-0.00357621
-0.00112246
0.000313415
-0.000325047
0.00258207
0.000636994
0.0029245
0.00144191
0.00232022
0.00108949
-0.00124852
-0.000677518
-0.00484124
-0.00168978
-0.00269935
-0.00100089
0.00198287
7.29787e-05
0.00362387
0.000962198
0.00339015
0.00144235
0.000953473
0.000364728
-0.00397318
-0.0012064
-0.00494374
-0.00122246
-5.06345e-05
-0.000327515
0.00338049
0.000743224
0.00359031
0.00150609
0.00240989
0.000765698
-0.00239425
-0.000979489
-0.00547264
-0.00136376
-0.00123348
-0.000477192
0.00307043
0.000620311
0.00359224
0.00147213
0.00274664
0.00120939
-0.00155623
-0.000285148
-0.00530763
-0.00120004
-0.00262126
-0.000786547
0.00175849
6.24382e-05
0.00317466
0.00101616
0.00314386
0.00146065
0.000821051
-0.00423539
0.00237676
0.00865989
0.00262606
0.00515515
0.000288115
-0.00200375
-0.00137131
-0.00337085
-0.00179885
-0.00233061
-0.00175518
-0.00135905
-0.00131394
-0.000389753
-0.000639537
0.000310378
5.87385e-05
0.000435301
0.000586574
-0.000338079
0.000469152
-0.00214807
-0.000616809
-0.00362863
-0.00159489
-0.00259813
-0.00137558
9.4106e-05
-0.000486865
0.00169336
0.000496123
0.00194151
0.00139337
0.00142297
0.00105769
-0.00091284
-0.000682243
-0.00310131
-0.0016989
-0.0016827
-0.00100819
0.00129216
0.000112956
0.00250273
0.00113147
0.00237164
0.00156209
0.000522845
0.000310586
-0.00272168
-0.00133942
-0.00329373
-0.00131756
-7.24878e-05
-0.000311279
0.0023742
0.000761446
0.00251758
0.00157704
0.0015943
0.000788044
-0.00160525
-0.00103944
-0.00364516
-0.00140399
-0.000868923
-0.0004237
0.00209014
0.000692859
0.00247568
0.00160534
0.00183416
0.00123064
-0.00118153
-0.000455175
-0.00362181
-0.00138482
-0.00169162
-0.000880118
0.00125378
7.16864e-05
0.00222285
0.0010624
0.00215314
0.00147432
0.000409126
-0.00276106
0.00245524
0.00620465
0.00327485
0.00433553
0.0013966
-0.000125498
-0.000271158
-0.00170309
-0.000997669
-0.00160409
-0.00116648
-0.00119024
-0.000881214
-0.000675027
-0.000331628
-0.000239206
0.000263631
-0.000159959
0.000621369
-0.000695822
0.000275053
-0.00180176
-0.000824312
-0.00252927
-0.00163762
-0.00178483
-0.00138837
-0.000155147
-0.000562213
0.000867202
0.000321552
0.00105775
0.00107058
0.000673943
0.000768942
-0.000611203
-0.000640649
-0.00169172
-0.00144453
-0.000878811
-0.000883088
0.000730717
0.000111604
0.00150804
0.00106285
0.0014204
0.00135543
0.000230262
0.000212465
-0.00157872
-0.00122591
-0.00185536
-0.00123168
-6.67208e-05
-0.000289378
0.0014319
0.000669874
0.00155833
0.00136495
0.000899218
0.000694306
-0.000934604
-0.000896405
-0.00205445
-0.001222
-0.000543324
-0.000326117
0.00119425
0.000652953
0.00149661
0.00146514
0.00102198
0.00105754
-0.000773936
-0.000487338
-0.00207693
-0.00125557
-0.000923387
-0.000780909
0.000779124
6.69444e-05
0.001375
0.000959417
0.00126067
0.00123149
0.000137051
-0.00152957
0.00204553
0.00415912
0.00308528
0.00329577
0.00205872
0.000901067
0.000781483
-0.000425851
2.81976e-06
-0.000825421
-0.000336756
-0.000850662
-0.000288591
-0.000723194
4.85361e-05
-0.000576333
0.000446467
-0.000557891
0.000593513
-0.00084287
0.000151972
-0.00136022
-0.000768353
-0.00160894
-0.00137722
-0.00117596
-0.0011927
-0.000339664
-0.000570697
0.000245198
0.00010286
0.00038419
0.000599526
0.000177277
0.000361043
-0.000372722
-0.000563284
-0.000767391
-0.00106001
-0.000382086
-0.000674185
0.000344901
6.68974e-05
0.000766963
0.000779538
0.000707756
0.000924212
8.55855e-05
8.80186e-05
-0.000742523
-0.000924224
-0.000843117
-0.000959387
-3.15574e-05
-0.00024894
0.00072145
0.000489239
0.000820145
0.000969928
0.00041853
0.0004944
-0.000459079
-0.00061983
-0.000940221
-0.000873703
-0.000289449
-0.000225807
0.000546353
0.000520626
0.000750182
0.00109397
0.00044864
0.000737856
-0.00041783
-0.000389347
-0.000949725
-0.000928752
-0.000383981
-0.000584042
0.000434415
5.4068e-05
0.000736887
0.000710868
0.00060387
0.000837563
1.03577e-05
-0.000692006
0.00131365
0.00284547
0.00228097
0.00232846
0.00199874
0.0011833
0.00132654
0.000246362
0.000743601
-0.000242485
0.000405674
-0.000512736
0.000322213
-0.000639728
0.000428052
-0.000682168
0.000579217
-0.00070906
0.000541697
-0.000805353
0.000127514
-0.000946034
-0.000516528
-0.000964903
-0.000935217
-0.000757276
-0.000872998
-0.000401884
-0.000496142
-0.000131656
-7.82727e-05
-3.36805e-05
0.000183446
-8.44459e-05
3.4885e-05
-0.000224162
-0.00043991
-0.000292591
-0.00068594
-0.00013605
-0.000467118
0.00012608
-8.57959e-06
0.000308422
0.000418236
0.000280939
0.00046731
3.65126e-05
-2.07876e-05
-0.000254425
-0.000582794
-0.000281111
-0.000622561
8.20899e-06
-0.000196873
0.000295759
0.000279143
0.000344126
0.000541883
0.00015579
0.000260755
-0.000177951
-0.00034322
-0.000336249
-0.000505483
-0.000127182
-0.000139691
0.000180563
0.00033052
0.000279969
0.000636236
0.000142924
0.000384237
-0.000165832
-0.000255162
-0.000310324
-0.000567532
-7.16109e-05
-0.000364046
0.00023093
4.49933e-05
0.000327847
0.000425176
0.000223684
0.000454478
-1.89445e-05
-0.000237526
0.000803367
0.00204211
0.00141956
0.00171227
0.00154738
0.00105547
0.00129176
0.000501977
0.00100801
4.12731e-05
0.000787257
-0.000291985
0.000669643
-0.000522115
0.000628293
-0.000640812
0.000592251
-0.000673017
0.000449592
-0.000662702
0.000139872
-0.000636317
-0.000239178
-0.000585851
-0.000495583
-0.00050087
-0.000512083
-0.000385385
-0.000356671
-0.000287071
-0.000163586
-0.000226765
-6.0457e-05
-0.000187574
-0.000129685
-0.000154931
-0.000309868
-0.000112404
-0.0004009
-4.50176e-05
-0.000299774
2.49513e-05
-6.9963e-05
7.86091e-05
0.000130596
8.03811e-05
0.000143221
2.38915e-05
-7.85257e-05
-3.26776e-05
-0.000324216
-3.54242e-05
-0.000341819
2.58104e-05
-0.00014162
9.55587e-05
0.000101365
0.000101139
0.000215987
4.11685e-05
8.51906e-05
-4.71538e-05
-0.000163483
-8.75769e-05
-0.000243935
-4.67297e-05
-8.66357e-05
2.32651e-05
0.000141295
5.20382e-05
0.00025916
2.50617e-05
0.000122248
-2.89197e-05
-0.000161545
-2.65289e-05
-0.000286415
5.32587e-05
-0.000181902
0.000126412
3.02686e-05
0.000115676
0.000198423
5.55302e-05
0.000189603
-1.01268e-05
-4.79222e-05
0.000552946
0.00148916
0.000925645
0.00133958
0.00107189
0.00090923
0.00105947
0.000514389
0.000934316
0.000166442
0.000808404
-0.000166065
0.000686
-0.000399714
0.000571612
-0.000526427
0.000451913
-0.000553318
0.00030256
-0.000513351
0.000117706
-0.000451466
-6.78748e-05
-0.00040027
-0.000200089
-0.000368654
-0.000240308
-0.000345168
-0.000211011
-0.000316369
-0.000165433
-0.00027234
-0.00014556
-0.000207442
-0.000167869
-0.00013262
-0.000209387
-7.08865e-05
-0.000220381
-3.40263e-05
-0.000175877
-1.95538e-05
-8.90735e-05
-8.19233e-06
-1.78871e-05
9.19613e-06
-1.75804e-05
2.35853e-05
-8.36335e-05
3.33746e-05
-0.000155093
3.60321e-05
-0.000160501
3.12177e-05
-9.01981e-05
2.52569e-05
-2.99454e-07
1.12405e-05
3.7844e-05
3.02321e-06
-2.2119e-06
-7.09709e-06
-7.78677e-05
-1.192e-05
-0.000105331
-1.92659e-05
-6.12405e-05
-2.08228e-05
9.54742e-06
-1.87471e-05
3.64491e-05
-1.8375e-06
-1.37942e-05
2.13219e-05
-9.37282e-05
5.3403e-05
-0.000117024
7.65569e-05
-6.41824e-05
7.357e-05
1.67177e-05
3.47735e-05
6.43843e-05
7.86572e-06
5.56125e-05
-1.35458e-06
7.68854e-06
0.00042445
0.0010647
0.000722388
0.00104164
0.000855266
0.000776356
0.000878024
0.00049163
0.000834728
0.000209737
0.000708868
-4.01996e-05
0.000567216
-0.000258061
0.000417864
-0.00037708
0.000277931
-0.000413388
0.000158267
-0.000393685
6.04091e-05
-0.000353606
-1.67168e-05
-0.000323145
-7.32049e-05
-0.000312166
-0.000109469
-0.000308902
-0.000130117
-0.000295716
-0.000143688
-0.000258766
-0.000151925
-0.000199206
-0.000151891
-0.000132657
-0.000142861
-7.99177e-05
-0.000125675
-5.12131e-05
-0.00010499
-4.02388e-05
-8.34429e-05
-2.97381e-05
-6.48408e-05
-9.40612e-06
-5.80007e-05
1.67437e-05
-6.15292e-05
3.69025e-05
-6.58394e-05
4.03417e-05
-6.14461e-05
2.68235e-05
-4.41814e-05
7.99293e-06
-2.84861e-05
-4.45457e-06
-1.98925e-05
-5.57172e-06
-2.66615e-05
-3.26791e-07
-3.75735e-05
-1.0037e-06
-4.57833e-05
-1.10526e-05
-4.49078e-05
-2.16978e-05
-4.29595e-05
-2.06955e-05
-4.40626e-05
-7.32175e-07
-5.14833e-05
2.87454e-05
-5.24535e-05
5.43713e-05
-3.6551e-05
6.06551e-05
-7.96532e-06
4.49877e-05
1.02139e-05
1.65926e-05
1.6119e-05
1.95825e-06
8.19691e-06
6.5701e-06
1.58868e-05
0.000323106
0.000741593
0.000593873
0.00077087
0.000743475
0.000626757
0.000791221
0.000443887
0.000756594
0.000244361
0.000662849
5.35444e-05
0.000511138
-0.000106347
0.000353251
-0.000219192
0.000213849
-0.000273987
0.000108071
-0.000287906
3.73305e-05
-0.000282865
-8.75472e-06
-0.000277059
-4.47527e-05
-0.000276166
-7.8618e-05
-0.000275031
-0.000111504
-0.000262826
-0.000137232
-0.000233038
-0.000147882
-0.000188561
-0.00014029
-0.000140251
-0.000120242
-9.99655e-05
-9.85011e-05
-7.29535e-05
-8.33719e-05
-5.53694e-05
-7.43235e-05
-3.87869e-05
-6.58441e-05
-1.78862e-05
-5.34179e-05
4.31584e-06
-3.68831e-05
2.03672e-05
-2.13847e-05
2.48437e-05
-1.20622e-05
1.74999e-05
-9.70839e-06
5.63797e-06
-1.18046e-05
-2.3573e-06
-1.42778e-05
-3.09604e-06
-1.37147e-05
-8.86703e-07
-1.32006e-05
-1.51476e-06
-1.73613e-05
-6.88968e-06
-2.74175e-05
-1.16415e-05
-3.94517e-05
-8.66257e-06
-4.48783e-05
4.69483e-06
-3.92305e-05
2.31043e-05
-2.23362e-05
3.74812e-05
-1.54098e-06
3.98568e-05
1.32848e-05
3.01595e-05
1.3446e-05
1.64315e-05
5.44067e-06
9.96204e-06
-2.91614e-07
1.23037e-05
1.55983e-05
0.000234149
0.000507447
0.000458598
0.000546418
0.000613617
0.000471735
0.000690612
0.000366892
0.000692309
0.000242664
0.000631096
0.000114759
0.000524696
5.53346e-08
0.000394683
-8.91754e-05
0.000271064
-0.000150368
0.000169553
-0.000186394
9.35472e-05
-0.000206859
3.64111e-05
-0.000219921
-1.1e-05
-0.000228749
-5.48607e-05
-0.000231166
-9.42629e-05
-0.000223425
-0.000123464
-0.000203842
-0.000137002
-0.000175026
-0.000134139
-0.000143114
-0.000120317
-0.000113788
-0.000103713
-8.95598e-05
-8.99001e-05
-6.91837e-05
-7.87638e-05
-4.99228e-05
-6.61276e-05
-3.05228e-05
-4.90245e-05
-1.27896e-05
-2.85014e-05
-1.5787e-07
-8.94931e-06
5.29069e-06
3.59607e-06
4.95408e-06
7.45241e-06
1.78238e-06
5.73274e-06
-6.34871e-07
3.61575e-06
-9.75145e-07
3.41683e-06
-6.84806e-07
3.0531e-06
-1.15097e-06
-1.33038e-06
-2.50803e-06
-1.02904e-05
-2.68126e-06
-1.95381e-05
5.88614e-07
-2.29499e-05
8.10828e-06
-1.71227e-05
1.72785e-05
-3.87277e-06
2.42355e-05
9.80388e-06
2.61798e-05
1.67112e-05
2.32462e-05
1.42347e-05
1.89073e-05
7.20223e-06
1.69976e-05
1.53773e-06
1.79702e-05
1.71362e-05
0.000165062
0.000342386
0.000335422
0.000376054
0.000470301
0.000336853
0.000557849
0.000279345
0.000592443
0.000208071
0.000576724
0.00013048
0.000521668
5.51129e-05
0.000441518
-9.02484e-06
0.000353705
-6.25557e-05
0.000269696
-0.000102384
0.000194813
-0.000131975
0.000128703
-0.000153807
6.88185e-05
-0.000168862
1.41489e-05
-0.000176497
-3.35283e-05
-0.000175751
-7.05882e-05
-0.000166785
-9.40251e-05
-0.000151588
-0.00010443
-0.000132709
-0.000104883
-0.000113339
-9.9712e-05
-9.47325e-05
-9.18696e-05
-7.7025e-05
-8.18687e-05
-5.99249e-05
-6.87092e-05
-4.36864e-05
-5.21026e-05
-2.93992e-05
-3.38762e-05
-1.83856e-05
-1.73942e-05
-1.11929e-05
-5.26483e-06
-7.17518e-06
1.58947e-06
-5.06869e-06
4.53211e-06
-3.57461e-06
5.65549e-06
-2.09815e-06
5.84287e-06
-8.72544e-07
4.71797e-06
-2.5949e-08
1.46724e-06
7.41529e-07
-3.48898e-06
2.27294e-06
-7.98537e-06
5.08744e-06
-9.10952e-06
9.2369e-06
-5.63035e-06
1.37968e-05
1.05618e-06
1.7546e-05
7.60899e-06
1.96295e-05
1.06213e-05
2.02342e-05
9.25458e-06
2.0273e-05
5.61806e-06
2.06359e-05
2.16569e-06
2.14244e-05
1.93006e-05
0.000115512
0.000226871
0.0002393
0.000252262
0.00034473
0.000231424
0.000423784
0.000200294
0.000471104
0.000160751
0.000485483
0.000116099
0.000470515
7.00814e-05
0.000435346
2.61455e-05
0.000384121
-1.13296e-05
0.000327943
-4.62048e-05
0.000269604
-7.3633e-05
0.000211332
-9.55322e-05
0.000154294
-0.000111824
0.000100017
-0.000122221
5.08339e-05
-0.000126569
9.29364e-06
-0.000125243
-2.30231e-05
-0.00011927
-4.54785e-05
-0.000110256
-5.96467e-05
-9.9174e-05
-6.72904e-05
-8.70874e-05
-6.97229e-05
-7.459e-05
-6.76419e-05
-6.20097e-05
-6.1471e-05
-4.98636e-05
-5.20605e-05
-3.88106e-05
-4.1019e-05
-2.94257e-05
-3.02776e-05
-2.19353e-05
-2.13095e-05
-1.61432e-05
-1.47785e-05
-1.15964e-05
-1.04591e-05
-7.89164e-06
-7.77209e-06
-4.78565e-06
-6.56992e-06
-2.07778e-06
-6.50908e-06
-8.83826e-08
-7.61941e-06
1.85428e-06
-9.28529e-06
3.93854e-06
-1.05608e-05
6.3595e-06
-1.03938e-05
9.07223e-06
-8.42488e-06
1.18292e-05
-5.22036e-06
1.4337e-05
-2.02337e-06
1.64318e-05
9.02147e-08
1.81241e-05
8.05698e-07
1.95591e-05
6.24807e-07
2.0816e-05
1.86838e-07
2.1861e-05
1.94863e-05
8.03492e-05
0.00014652
0.000168362
0.000164246
0.000246623
0.000153163
0.000310457
0.000136457
0.000356331
0.000114872
0.000382633
8.97933e-05
0.000389863
6.28493e-05
0.000380358
3.56506e-05
0.000359492
9.53747e-06
0.000327545
-1.42579e-05
0.000289411
-3.55002e-05
0.000247162
-5.32836e-05
0.000202759
-6.7422e-05
0.000158216
-7.76798e-05
0.000115647
-8.40009e-05
7.70023e-05
-8.6598e-05
4.36843e-05
-8.59533e-05
1.61297e-05
-8.27046e-05
-5.55083e-06
-7.74954e-05
-2.17102e-05
-7.09279e-05
-3.29207e-05
-6.33817e-05
-3.9618e-05
-5.5318e-05
-4.23597e-05
-4.71254e-05
-4.19356e-05
-3.92345e-05
-3.93964e-05
-3.19654e-05
-3.58416e-05
-2.54912e-05
-3.21505e-05
-1.98328e-05
-2.88379e-05
-1.49086e-05
-2.6105e-05
-1.06263e-05
-2.39723e-05
-6.9173e-06
-2.23238e-05
-3.72679e-06
-2.14018e-05
-1.01535e-06
-2.09762e-05
1.42869e-06
-2.07069e-05
3.67254e-06
-2.02091e-05
5.85814e-06
-1.91375e-05
7.99787e-06
-1.73763e-05
1.00708e-05
-1.50727e-05
1.20337e-05
-1.25049e-05
1.38612e-05
-9.92067e-06
1.55389e-05
-7.40572e-06
1.70443e-05
-4.91761e-06
1.83274e-05
-2.35e-06
1.92924e-05
1.71368e-05
5.59557e-05
9.05636e-05
0.000118157
0.000102044
0.000175175
9.61449e-05
0.000224376
8.72525e-05
0.000263583
7.56631e-05
0.000291441
6.1937e-05
0.000307533
4.67597e-05
0.000312329
3.08567e-05
0.000306958
1.49119e-05
0.000292547
1.54772e-07
0.00027146
-1.4411e-05
0.000244943
-2.67665e-05
0.000214684
-3.71617e-05
0.000182371
-4.53666e-05
0.000149654
-5.12814e-05
0.000118001
-5.49454e-05
8.85723e-05
-5.65255e-05
6.21451e-05
-5.62782e-05
3.91526e-05
-5.4502e-05
1.97248e-05
-5.15009e-05
3.90307e-06
-4.75639e-05
-8.45466e-06
-4.29625e-05
-1.75827e-05
-3.79949e-05
-2.39285e-05
-3.2887e-05
-2.80408e-05
-2.78557e-05
-3.05044e-05
-2.30275e-05
-3.17909e-05
-1.8541e-05
-3.22826e-05
-1.44158e-05
-3.22438e-05
-1.06691e-05
-3.18511e-05
-7.30842e-06
-3.12486e-05
-4.32533e-06
-3.05811e-05
-1.68617e-06
-2.98099e-05
6.54342e-07
-2.88848e-05
2.75078e-06
-2.76763e-05
4.65056e-06
-2.60975e-05
6.41633e-06
-2.40871e-05
8.06071e-06
-2.16423e-05
9.59115e-06
-1.87881e-05
1.10073e-05
-1.55483e-05
1.22978e-05
-1.19404e-05
1.34357e-05
-7.9925e-06
1.43796e-05
-3.76527e-06
1.50659e-05
1.33731e-05
3.60462e-05
5.45141e-05
7.65313e-05
6.15551e-05
0.000114392
5.82798e-05
0.000148266
5.3372e-05
0.000176954
4.69712e-05
0.000199563
3.9329e-05
0.000215565
3.07583e-05
0.000224809
2.1612e-05
0.00022747
1.22491e-05
0.000224642
2.98251e-06
0.000215995
-5.76493e-06
0.000202882
-1.36545e-05
0.000186274
-2.05561e-05
0.000167181
-2.62748e-05
0.000146606
-3.07086e-05
0.000125489
-3.38307e-05
0.000104642
-3.56815e-05
8.47173e-05
-3.63549e-05
6.61965e-05
-3.59817e-05
4.94074e-05
-3.47147e-05
3.45558e-05
-3.27168e-05
2.17496e-05
-3.01573e-05
1.09562e-05
-2.7198e-05
2.06447e-06
-2.3994e-05
-5.11248e-06
-2.06819e-05
-1.07349e-05
-1.74053e-05
-1.50759e-05
-1.41949e-05
-1.83415e-05
-1.11485e-05
-2.07078e-05
-8.30649e-06
-2.23239e-05
-5.69199e-06
-2.33294e-05
-3.31584e-06
-2.38509e-05
-1.16541e-06
-2.40022e-05
8.02375e-07
-2.36988e-05
2.44818e-06
-2.2994e-05
3.94764e-06
-2.18932e-05
5.31468e-06
-2.03882e-05
6.55484e-06
-1.84744e-05
7.67824e-06
-1.61545e-05
8.68883e-06
-1.34385e-05
9.58252e-06
-1.03489e-05
1.03466e-05
-6.92974e-06
1.09611e-05
-3.25784e-06
1.13949e-05
1.01154e-05
2.26663e-05
3.18469e-05
4.83212e-05
3.59032e-05
7.26127e-05
3.39898e-05
9.48345e-05
3.11496e-05
0.000114353
2.74549e-05
0.000130657
2.30308e-05
0.000143382
1.80376e-05
0.000152331
1.26647e-05
0.000157465
7.11619e-06
0.000158879
1.56945e-06
0.000156861
-3.74525e-06
0.000151819
-8.61137e-06
0.000144204
-1.29413e-05
0.000134531
-1.66019e-05
0.000123336
-1.95147e-05
0.000111147
-2.16429e-05
9.84527e-05
-2.29886e-05
8.56853e-05
-2.35869e-05
7.32042e-05
-2.34995e-05
6.12961e-05
-2.28071e-05
5.01808e-05
-2.1603e-05
4.00122e-05
-1.99874e-05
3.08809e-05
-1.80623e-05
2.28163e-05
-1.59269e-05
1.58066e-05
-1.36731e-05
9.78105e-06
-1.13788e-05
4.70616e-06
-9.1153e-06
4.87629e-07
-6.92713e-06
-2.96061e-06
-4.85929e-06
-5.71494e-06
-2.93708e-06
-7.85626e-06
-1.17116e-06
-9.46688e-06
4.46322e-07
-1.053e-05
1.86401e-06
-1.11932e-05
3.11111e-06
-1.14738e-05
4.22933e-06
-1.13828e-05
5.22376e-06
-1.09352e-05
6.10648e-06
-1.01445e-05
6.88733e-06
-9.02716e-06
7.57213e-06
-7.60567e-06
8.16197e-06
-5.91157e-06
8.65326e-06
-3.98857e-06
9.03856e-06
-1.89769e-06
9.30416e-06
8.21631e-06
1.55902e-05
1.62549e-05
3.33107e-05
1.81833e-05
5.02196e-05
1.70791e-05
6.59008e-05
1.54656e-05
7.99786e-05
1.33781e-05
9.21331e-05
1.08787e-05
0.000102114
8.05691e-06
0.000109759
5.01769e-06
0.000115014
1.86058e-06
0.000117859
-1.27686e-06
0.000118416
-4.30357e-06
0.000116902
-7.09901e-06
0.00011352
-9.56036e-06
0.000108537
-1.16211e-05
0.000102252
-1.32321e-05
9.49735e-05
-1.43667e-05
8.70043e-05
-1.50206e-05
7.86273e-05
-1.52095e-05
7.00953e-05
-1.49664e-05
6.16262e-05
-1.43383e-05
5.34045e-05
-1.33822e-05
4.5579e-05
-1.21609e-05
3.82587e-05
-1.0739e-05
3.15142e-05
-9.18063e-06
2.53892e-05
-7.54879e-06
1.9909e-05
-5.8982e-06
1.50692e-05
-4.27239e-06
1.08559e-05
-2.71149e-06
7.24041e-06
-1.24394e-06
4.18092e-06
1.22685e-07
1.65055e-06
1.36136e-06
-3.87112e-07
2.4853e-06
-2.00569e-06
3.48192e-06
-3.24429e-06
4.34895e-06
-4.11892e-06
5.10401e-06
-4.65357e-06
5.75828e-06
-4.87137e-06
6.32341e-06
-4.79511e-06
6.80992e-06
-4.44956e-06
7.22562e-06
-3.86331e-06
7.57491e-06
-3.06994e-06
7.85898e-06
-2.10884e-06
8.07628e-06
-1.0291e-06
8.22294e-06
7.18575e-06
1.0916e-05
5.34126e-06
2.32948e-05
5.80851e-06
3.51506e-05
5.22401e-06
4.62314e-05
4.38507e-06
5.63032e-05
3.30956e-06
6.51559e-05
2.02892e-06
7.26081e-05
6.05253e-07
7.84853e-05
-8.59464e-07
8.28243e-05
-2.47846e-06
8.55015e-05
-3.95444e-06
8.67273e-05
-5.52947e-06
8.64618e-05
-6.8334e-06
8.48223e-05
-7.9207e-06
8.19619e-05
-8.76096e-06
7.8061e-05
-9.33173e-06
7.33151e-05
-9.62113e-06
6.79238e-05
-9.62894e-06
6.20817e-05
-9.36596e-06
5.59684e-05
-8.85127e-06
4.97472e-05
-8.11642e-06
4.35663e-05
-7.20158e-06
3.75514e-05
-6.1453e-06
3.18044e-05
-4.99e-06
2.64045e-05
-3.77964e-06
2.14044e-05
-2.54907e-06
1.68419e-05
-1.33543e-06
1.2764e-05
-1.9236e-07
9.17035e-06
8.84377e-07
6.10767e-06
1.81931e-06
3.47169e-06
2.75913e-06
1.20661e-06
3.62805e-06
-6.41554e-07
4.33491e-06
-2.10236e-06
4.94285e-06
-3.19662e-06
5.44273e-06
-3.94753e-06
5.85464e-06
-4.38082e-06
6.19124e-06
-4.5222e-06
6.46393e-06
-4.3983e-06
6.68458e-06
-4.03764e-06
6.86316e-06
-3.47142e-06
7.00668e-06
-2.73374e-06
7.11916e-06
-1.86133e-06
7.20161e-06
-8.9624e-07
7.25566e-06
6.28868e-06
7.12429e-06
-1.78177e-06
1.51203e-05
-2.18639e-06
2.27388e-05
-2.39562e-06
2.98619e-05
-2.73835e-06
3.63202e-05
-3.14695e-06
4.19748e-05
-3.62534e-06
4.67966e-05
-4.21717e-06
5.06755e-05
-4.73837e-06
5.34138e-05
-5.21724e-06
5.509e-05
-5.6315e-06
5.55464e-05
-5.98622e-06
5.49418e-05
-6.2283e-06
5.3361e-05
-6.33918e-06
5.09076e-05
-6.30717e-06
4.77038e-05
-6.12805e-06
4.38843e-05
-5.80204e-06
3.95901e-05
-5.33485e-06
3.49637e-05
-4.73886e-06
3.01464e-05
-4.0332e-06
2.52675e-05
-3.23765e-06
2.04607e-05
-2.39566e-06
1.5815e-05
-1.49996e-06
1.14092e-05
-5.83583e-07
7.33761e-06
2.9223e-07
3.64062e-06
1.14726e-06
3.16345e-07
1.98861e-06
-2.60966e-06
2.73494e-06
-5.11888e-06
3.39522e-06
-7.25801e-06
3.95905e-06
-8.94603e-06
4.44738e-06
-1.01708e-05
4.8537e-06
-1.10034e-05
5.16846e-06
-1.14498e-05
5.38951e-06
-1.15547e-05
5.54723e-06
-1.1343e-05
5.64267e-06
-1.08398e-05
5.68775e-06
-1.00711e-05
5.69479e-06
-9.06449e-06
5.67718e-06
-7.84855e-06
5.64599e-06
-6.45352e-06
5.61006e-06
-4.91172e-06
5.57548e-06
-3.25682e-06
5.54467e-06
-1.52429e-06
5.52117e-06
4.76368e-06
3.64429e-06
-5.42441e-06
7.75302e-06
-6.29354e-06
1.17091e-05
-6.35168e-06
1.5327e-05
-6.35517e-06
1.84988e-05
-6.31704e-06
2.11127e-05
-6.23961e-06
2.30168e-05
-6.12118e-06
2.4209e-05
-5.92952e-06
2.46322e-05
-5.64028e-06
2.42914e-05
-5.29085e-06
2.31771e-05
-4.87151e-06
2.13356e-05
-4.38595e-06
1.8853e-05
-3.85564e-06
1.58293e-05
-3.28297e-06
1.23569e-05
-2.65586e-06
8.53684e-06
-1.98279e-06
4.47358e-06
-1.2725e-06
2.65031e-07
-5.30715e-07
-3.93709e-06
1.68777e-07
-8.08643e-06
9.11025e-07
-1.19587e-05
1.47543e-06
-1.5562e-05
2.10265e-06
-1.88359e-05
2.69036e-06
-2.17489e-05
3.20532e-06
-2.42438e-05
3.64158e-06
-2.6257e-05
4.00135e-06
-2.77942e-05
4.27291e-06
-2.88535e-05
4.4556e-06
-2.94467e-05
4.55272e-06
-2.95743e-05
4.57503e-06
-2.92481e-05
4.52781e-06
-2.84943e-05
4.41531e-06
-2.7351e-05