/*--------------------------------*- C++ -*----------------------------------*\
  =========                 |
  \\      /  F ield         | OpenFOAM: The Open Source CFD Toolbox
   \\    /   O peration     | Website:  https://openfoam.org
    \\  /    A nd           | Version:  7
     \\/     M anipulation  |
\*---------------------------------------------------------------------------*/
FoamFile
{
    version     2.0;
    format      ascii;
    class       volScalarField;
    location    "0.68";
    object      p;
}
// * * * * * * * * * * * * * * * * * * * * * * * * * * * * * * * * * * * * * //

dimensions      [0 2 -2 0 0 0 0];

internalField   nonuniform List<scalar> 
1936
(
-1.16739e-06
-3015.16
-6536.3
-6487.78
-6021.1
-6357.53
-6338.91
-5576.5
-4613.73
-4117.36
-4151.95
-4675.41
-6118.58
-7519.08
-6542.84
-4329.68
-3540.78
-3673.97
-4771.71
-7237.25
-7499.05
-4957.28
-3561.55
-3493.96
-4441.22
-7049.29
-7506.13
-4954.34
-3577.67
-3532.25
-4534.96
-7124.13
-7377.53
-4780.21
-3522.83
-3561.79
-4558.81
-6927.48
-7238.05
-4910.58
-3630.07
-3601.39
-4679.22
-7343.95
-107.829
-3014.08
-6481.7
-6455.96
-6009.84
-6332.23
-6308.35
-5560.96
-4624.9
-4154.16
-4192.36
-4695.06
-6106.45
-7470.22
-6498.33
-4345.14
-3602.75
-3722.62
-4765.71
-7180.06
-7438.32
-4949.35
-3615.42
-3553.96
-4446.12
-6994.43
-7446.14
-4946.03
-3629.98
-3591.09
-4540.29
-7071.01
-7316.96
-4773.14
-3576.79
-3618.59
-4569.92
-6887.87
-7182.54
-4904.91
-3685.21
-3655.89
-4673.97
-7281.93
-440.425
-3020.1
-6284.62
-6367.87
-5986.87
-6256.01
-6217.22
-5521.85
-4663.2
-4248.66
-4293.33
-4763.4
-6084.09
-7312.53
-6370.31
-4406.13
-3754.85
-3846
-4780.84
-7010.16
-7248.41
-4954.24
-3754.32
-3700.69
-4489.15
-6832.03
-7256.93
-4952.26
-3764.95
-3735.15
-4584.2
-6910.35
-7129.21
-4783.19
-3714.47
-3759.29
-4628.91
-6766.15
-7007.85
-4911.86
-3824.98
-3789.86
-4692.15
-7094.11
-896.474
-3056.53
-6003.85
-6231.13
-5949.48
-6147.9
-6086.98
-5469.89
-4724.83
-4383.13
-4433.54
-4861.39
-6039.6
-7065.93
-6188.44
-4501.55
-3962.15
-4022.77
-4820.03
-6759.01
-6963.21
-4971.27
-3951.44
-3905.87
-4563.71
-6591.84
-6970.17
-4971.46
-3958.55
-3936.54
-4655.46
-6667.97
-6848.47
-4813.23
-3912.92
-3954.84
-4713.11
-6571.31
-6744.45
-4930.03
-4019.11
-3980.37
-4735.95
-6816.11
-1418.74
-3134.46
-5690.38
-6053.57
-5885.95
-6016.87
-5936.34
-5415.52
-4803.91
-4537.91
-4589.97
-4968.55
-5972.28
-6767.76
-5984.64
-4612.88
-4188.16
-4224.89
-4877.56
-6471.41
-6631.72
-4995.08
-4171.84
-4133.02
-4656.1
-6317.2
-6636.36
-4998.71
-4176.48
-4158.84
-4739.2
-6386.34
-6525.47
-4858.71
-4137.43
-4170.5
-4803.88
-6334.03
-6438.98
-4953.29
-4230.67
-4193.95
-4798.16
-6498.91
-1968.1
-3258.59
-5381.3
-5846.42
-5790.56
-5871.31
-5780.84
-5365.02
-4892.55
-4695.67
-4745.87
-5069.82
-5882.15
-6450.19
-5783.39
-4728.32
-4409.38
-4430.71
-4946.34
-6181.07
-6292.79
-5022.82
-4389.75
-4356.89
-4756.46
-6040.99
-6294.82
-5030.37
-4392.9
-4377.23
-4826.01
-6098.45
-6199.29
-4914.04
-4361.35
-4382.66
-4890.43
-6079.29
-6128.33
-4979.63
-4435.08
-4406.69
-4871.06
-6180.71
-2514.17
-3428.96
-5104.41
-5622.83
-5665.12
-5718.93
-5632.13
-5321.19
-4980.05
-4841.84
-4888.04
-5155.53
-5772.92
-6141.83
-5603.46
-4839.38
-4611.8
-4624.25
-5017.99
-5911.07
-5976.06
-5052.26
-4588.57
-4561.36
-4855.76
-5787.43
-5975.07
-5062.28
-4590.35
-4576.27
-4908.98
-5829.6
-5898.17
-4972.17
-4566.28
-4576.67
-4965.88
-5829.6
-5840.68
-5008.7
-4619.03
-4601.52
-4945.02
-5888.37
-3030.13
-3638.49
-4881.22
-5399.61
-5517.73
-5566.2
-5497.63
-5283.11
-5056.15
-4966.47
-5007.64
-5219.54
-5652.2
-5864.83
-5458.54
-4939.76
-4786.17
-4794.36
-5082.75
-5677.48
-5703.34
-5080.26
-4758.71
-4737.03
-4946.17
-5571.96
-5698.8
-5089.7
-4758.56
-4747.05
-4982.31
-5598.08
-5641.69
-5025.14
-4741.1
-4744.01
-5026.29
-5604.4
-5595.7
-5039.56
-4775.78
-4767.52
-5010.93
-5639.02
-3488.78
-3872.03
-4728.16
-5196.59
-5361.54
-5419.85
-5380
-5248.42
-5113.69
-5063.69
-5100.72
-5256.72
-5531.01
-5634.19
-5352.64
-5025.11
-4927.73
-4934.93
-5132.05
-5489.13
-5487.74
-5104.34
-4895.09
-4879.47
-5021.24
-5402.51
-5478.94
-5110.09
-4892.75
-4884.65
-5041.68
-5414.71
-5440.16
-5067.53
-4880.52
-4880.2
-5069.63
-5418.6
-5404.49
-5068.78
-4901.73
-4899.2
-5062.91
-5441.81
-3868.17
-4105.59
-4652.15
-5033.75
-5213.32
-5286.43
-5279.66
-5215.21
-5149.85
-5131.2
-5164.41
-5268.23
-5420.86
-5457.24
-5281.57
-5091.8
-5034.82
-5042.03
-5162.23
-5349.28
-5333.79
-5121.81
-4997.67
-4987.77
-5075.79
-5280.95
-5320.07
-5121.65
-4993.23
-4988.11
-5083.56
-5283.26
-5296.09
-5096.15
-4984.24
-4983.41
-5095.86
-5280.76
-5269.55
-5091.19
-4996.01
-4996.92
-5097.5
-5299.45
-4161.97
-4313.06
-4642.83
-4924.15
-5090.06
-5173.45
-5196.66
-5182.68
-5165.67
-5169.93
-5199.04
-5259.76
-5330.49
-5333.19
-5236.01
-5137.65
-5107.64
-5114.86
-5175.82
-5255.6
-5236.76
-5132.96
-5068.08
-5062.71
-5109.69
-5203.2
-5218.53
-5126.36
-5061.21
-5058.74
-5108.8
-5199.9
-5204.63
-5112.12
-5054.2
-5053.3
-5109.05
-5191.27
-5185.14
-5104.77
-5059.21
-5062.69
-5116.54
-5208.07
-4379.31
-4479.95
-4674.32
-4866.87
-5002.94
-5087.55
-5131.75
-5151.4
-5165.16
-5183.8
-5208.47
-5238.94
-5263.1
-5253.65
-5206.75
-5163.3
-5150.64
-5155.74
-5178.2
-5200.4
-5183.95
-5138.8
-5110.59
-5107.97
-5127.45
-5160.25
-5163.11
-5127.63
-5101.22
-5100.72
-5121.67
-5154.51
-5154.78
-5119.51
-5095.22
-5093.93
-5114.5
-5142.26
-5139.85
-5112.02
-5096.2
-5100.74
-5124.7
-5157.63
-4535.38
-4606.34
-4724.05
-4848.44
-4953.04
-5030.95
-5085.11
-5123.23
-5153.68
-5179.98
-5200.05
-5212.97
-5216.36
-5206.26
-5187.06
-5172.65
-5170.03
-5172.18
-5174.58
-5172.26
-5159.57
-5141.99
-5132.19
-5130.98
-5135.09
-5140.67
-5138.46
-5127.89
-5120.99
-5121.56
-5127.17
-5134.2
-5132.56
-5122.44
-5115.21
-5113.57
-5116.56
-5120.92
-5120.32
-5115.51
-5114.38
-5118.64
-5126.82
-5134.57
-4652.4
-4699.54
-4773.64
-4855.5
-4932.64
-4999.52
-5054.31
-5098.92
-5135.18
-5162.89
-5180.07
-5186.66
-5184.9
-5178.73
-5173.02
-5171.55
-5173.4
-5173.52
-5168.44
-5159.42
-5149.93
-5143.25
-5140.76
-5139.76
-5137.5
-5133.95
-5130.44
-5128.3
-5128.71
-5129.56
-5129.08
-5127.45
-5125.31
-5123.63
-5122.82
-5121.09
-5117.78
-5114.9
-5114.73
-5117.28
-5121.25
-5124.64
-5126.42
-5126.26
-4744.64
-4773.11
-4819.57
-4874.04
-4930.95
-4985.44
-5034.92
-5077.98
-5113.52
-5139.94
-5156.02
-5162.54
-5162.82
-5161.43
-5161.86
-5164.85
-5167.98
-5167.2
-5161.42
-5153.03
-5146.12
-5143
-5142.35
-5141.16
-5137.47
-5132.53
-5129.12
-5129
-5130.66
-5131.31
-5129.44
-5126.34
-5124.32
-5124.3
-5124.72
-5123.11
-5119.04
-5115.23
-5114.99
-5118.46
-5122.72
-5125.28
-5125.28
-5123.96
-4819.65
-4835.33
-4863.36
-4899.11
-4939.53
-4981.96
-5022.95
-5060.3
-5091.9
-5116.04
-5132.26
-5141.09
-5145.31
-5148.01
-5151.3
-5155.28
-5158.19
-5157.9
-5154.04
-5148.46
-5143.87
-5141.65
-5140.88
-5139.51
-5136.4
-5132.48
-5129.87
-5129.52
-5130.44
-5130.65
-5129.08
-5126.64
-5124.94
-5124.65
-5124.64
-5123.26
-5120.33
-5117.61
-5117.22
-5119.37
-5122.22
-5123.86
-5123.8
-5123.03
-4880.23
-4888.52
-4904.81
-4927.44
-4954.96
-4985.51
-5017.11
-5047.03
-5073.44
-5094.89
-5110.88
-5121.92
-5129.47
-5135.1
-5140.01
-5144.3
-5147.22
-5147.9
-5146.32
-5143.51
-5140.89
-5139.26
-5138.25
-5136.92
-5134.77
-5132.24
-5130.33
-5129.59
-5129.59
-5129.38
-5128.32
-5126.75
-5125.45
-5124.75
-5124.22
-5123.1
-5121.29
-5119.61
-5119.11
-5119.95
-5121.31
-5122.22
-5122.37
-5122.2
-4928.1
-4932.56
-4941.99
-4955.95
-4973.92
-4994.83
-5017.26
-5039.69
-5060.49
-5078.6
-5093.52
-5105.32
-5114.55
-5121.88
-5127.86
-5132.62
-5136.01
-5137.81
-5138.14
-5137.49
-5136.5
-5135.63
-5134.86
-5133.91
-5132.61
-5131.12
-5129.84
-5129.03
-5128.58
-5128.12
-5127.37
-5126.38
-5125.41
-5124.61
-5123.88
-5122.97
-5121.84
-5120.8
-5120.24
-5120.29
-5120.68
-5121.03
-5121.17
-5121.18
-4965.15
-4967.72
-4973.33
-4981.94
-4993.39
-5007.17
-5022.46
-5038.34
-5053.83
-5068.22
-5081.03
-5092.1
-5101.46
-5109.29
-5115.77
-5121
-5125
-5127.81
-5129.55
-5130.45
-5130.81
-5130.87
-5130.73
-5130.38
-5129.81
-5129.1
-5128.38
-5127.78
-5127.29
-5126.82
-5126.27
-5125.61
-5124.91
-5124.23
-5123.55
-5122.83
-5122.06
-5121.34
-5120.8
-5120.51
-5120.41
-5120.41
-5120.41
-5120.4
-4993.36
-4994.94
-4998.42
-5003.84
-5011.14
-5020.07
-5030.24
-5041.14
-5052.28
-5063.15
-5073.41
-5082.81
-5091.24
-5098.65
-5105.03
-5110.41
-5114.82
-5118.31
-5120.98
-5122.94
-5124.33
-5125.28
-5125.9
-5126.23
-5126.34
-5126.27
-5126.1
-5125.86
-5125.61
-5125.32
-5124.97
-5124.57
-5124.12
-5123.64
-5123.13
-5122.61
-5122.07
-5121.54
-5121.08
-5120.73
-5120.47
-5120.3
-5120.2
-5120.15
-5014.45
-5015.49
-5017.75
-5021.26
-5026
-5031.85
-5038.62
-5046.06
-5053.89
-5061.85
-5069.68
-5077.18
-5084.22
-5090.68
-5096.5
-5101.64
-5106.1
-5109.89
-5113.06
-5115.66
-5117.76
-5119.42
-5120.72
-5121.7
-5122.42
-5122.93
-5123.26
-5123.46
-5123.56
-5123.57
-5123.5
-5123.37
-5123.17
-5122.92
-5122.64
-5122.32
-5121.98
-5121.64
-5121.31
-5121.02
-5120.78
-5120.6
-5120.47
-5120.4
-5029.84
-5030.56
-5032.1
-5034.47
-5037.65
-5041.6
-5046.2
-5051.34
-5056.86
-5062.63
-5068.49
-5074.3
-5079.95
-5085.33
-5090.37
-5095.02
-5099.24
-5103.01
-5106.35
-5109.27
-5111.78
-5113.91
-5115.72
-5117.22
-5118.45
-5119.46
-5120.26
-5120.88
-5121.36
-5121.72
-5121.96
-5122.12
-5122.19
-5122.19
-5122.14
-5122.03
-5121.9
-5121.74
-5121.57
-5121.4
-5121.25
-5121.12
-5121.02
-5120.97
-5039.9
-5040.44
-5041.56
-5043.28
-5045.59
-5048.45
-5051.79
-5055.56
-5059.68
-5064.04
-5068.57
-5073.17
-5077.76
-5082.26
-5086.6
-5090.73
-5094.61
-5098.21
-5101.51
-5104.51
-5107.2
-5109.6
-5111.71
-5113.56
-5115.15
-5116.52
-5117.68
-5118.66
-5119.46
-5120.12
-5120.65
-5121.06
-5121.38
-5121.6
-5121.76
-5121.85
-5121.88
-5121.88
-5121.85
-5121.81
-5121.75
-5121.69
-5121.65
-5121.62
-5045.57
-5046.02
-5046.92
-5048.3
-5050.15
-5052.44
-5055.13
-5058.18
-5061.53
-5065.12
-5068.9
-5072.79
-5076.73
-5080.67
-5084.54
-5088.31
-5091.92
-5095.35
-5098.57
-5101.57
-5104.33
-5106.84
-5109.12
-5111.16
-5112.98
-5114.58
-5115.97
-5117.18
-5118.21
-5119.08
-5119.81
-5120.42
-5120.91
-5121.29
-5121.59
-5121.82
-5121.98
-5122.09
-5122.16
-5122.2
-5122.21
-5122.21
-5122.2
-5122.19
-5048.51
-5048.9
-5049.69
-5050.89
-5052.51
-5054.51
-5056.87
-5059.55
-5062.51
-5065.7
-5069.07
-5072.58
-5076.17
-5079.79
-5083.4
-5086.95
-5090.4
-5093.72
-5096.89
-5099.87
-5102.66
-5105.25
-5107.62
-5109.78
-5111.72
-5113.46
-5115
-5116.36
-5117.53
-5118.55
-5119.41
-5120.13
-5120.74
-5121.23
-5121.62
-5121.94
-5122.18
-5122.36
-5122.49
-5122.58
-5122.63
-5122.66
-5122.67
-5122.67
-5049.89
-5050.25
-5050.97
-5052.09
-5053.59
-5055.45
-5057.64
-5060.14
-5062.9
-5065.88
-5069.05
-5072.36
-5075.77
-5079.23
-5082.7
-5086.14
-5089.52
-5092.79
-5095.93
-5098.92
-5101.74
-5104.37
-5106.81
-5109.04
-5111.07
-5112.91
-5114.54
-5115.99
-5117.26
-5118.36
-5119.31
-5120.11
-5120.78
-5121.34
-5121.79
-5122.16
-5122.44
-5122.66
-5122.83
-5122.95
-5123.02
-5123.07
-5123.09
-5123.11
-5050.35
-5050.7
-5051.39
-5052.47
-5053.92
-5055.72
-5057.84
-5060.25
-5062.92
-5065.81
-5068.9
-5072.12
-5075.46
-5078.85
-5082.26
-5085.66
-5089.01
-5092.27
-5095.42
-5098.43
-5101.27
-5103.95
-5106.43
-5108.72
-5110.82
-5112.71
-5114.41
-5115.92
-5117.24
-5118.4
-5119.4
-5120.25
-5120.96
-5121.55
-5122.04
-5122.43
-5122.74
-5122.98
-5123.16
-5123.29
-5123.38
-5123.43
-5123.46
-5123.47
-5050.33
-5050.67
-5051.36
-5052.42
-5053.85
-5055.63
-5057.73
-5060.12
-5062.76
-5065.64
-5068.69
-5071.9
-5075.21
-5078.6
-5082
-5085.4
-5088.75
-5092.03
-5095.19
-5098.23
-5101.1
-5103.81
-5106.33
-5108.66
-5110.79
-5112.73
-5114.46
-5116.01
-5117.36
-5118.55
-5119.57
-5120.44
-5121.17
-5121.78
-5122.27
-5122.67
-5122.99
-5123.23
-5123.42
-5123.55
-5123.64
-5123.7
-5123.73
-5123.74
-5050.11
-5050.45
-5051.13
-5052.2
-5053.64
-5055.43
-5057.53
-5059.93
-5062.59
-5065.47
-5068.54
-5071.76
-5075.09
-5078.49
-5081.91
-5085.33
-5088.7
-5091.99
-5095.18
-5098.23
-5101.13
-5103.86
-5106.4
-5108.75
-5110.89
-5112.84
-5114.59
-5116.14
-5117.51
-5118.7
-5119.72
-5120.59
-5121.32
-5121.92
-5122.41
-5122.81
-5123.12
-5123.36
-5123.54
-5123.67
-5123.76
-5123.81
-5123.83
-5123.84
-5049.88
-5050.22
-5050.91
-5051.99
-5053.45
-5055.26
-5057.39
-5059.82
-5062.5
-5065.42
-5068.52
-5071.76
-5075.12
-5078.54
-5081.98
-5085.42
-5088.81
-5092.12
-5095.31
-5098.38
-5101.28
-5104.02
-5106.56
-5108.91
-5111.05
-5112.99
-5114.72
-5116.26
-5117.61
-5118.78
-5119.78
-5120.63
-5121.34
-5121.92
-5122.4
-5122.78
-5123.07
-5123.3
-5123.47
-5123.59
-5123.67
-5123.71
-5123.73
-5123.74
-5049.77
-5050.11
-5050.81
-5051.9
-5053.38
-5055.22
-5057.39
-5059.85
-5062.57
-5065.52
-5068.65
-5071.92
-5075.3
-5078.74
-5082.2
-5085.65
-5089.05
-5092.37
-5095.57
-5098.63
-5101.53
-5104.25
-5106.78
-5109.1
-5111.22
-5113.13
-5114.83
-5116.34
-5117.65
-5118.78
-5119.74
-5120.54
-5121.21
-5121.76
-5122.2
-5122.54
-5122.81
-5123.02
-5123.17
-5123.28
-5123.35
-5123.39
-5123.4
-5123.41
-5049.85
-5050.19
-5050.89
-5052
-5053.51
-5055.38
-5057.58
-5060.06
-5062.81
-5065.78
-5068.93
-5072.22
-5075.61
-5079.06
-5082.54
-5085.99
-5089.39
-5092.7
-5095.89
-5098.94
-5101.82
-5104.52
-5107.02
-5109.31
-5111.39
-5113.26
-5114.91
-5116.37
-5117.62
-5118.69
-5119.59
-5120.34
-5120.95
-5121.43
-5121.82
-5122.11
-5122.34
-5122.51
-5122.63
-5122.72
-5122.78
-5122.82
-5122.83
-5122.83
-5050.16
-5050.5
-5051.21
-5052.34
-5053.86
-5055.74
-5057.95
-5060.45
-5063.2
-5066.17
-5069.32
-5072.62
-5076.01
-5079.46
-5082.93
-5086.38
-5089.78
-5093.08
-5096.26
-5099.28
-5102.14
-5104.81
-5107.28
-5109.53
-5111.56
-5113.38
-5114.97
-5116.36
-5117.55
-5118.55
-5119.38
-5120.05
-5120.58
-5120.99
-5121.3
-5121.52
-5121.68
-5121.79
-5121.87
-5121.92
-5121.96
-5121.99
-5122
-5122.01
-5050.74
-5051.08
-5051.79
-5052.91
-5054.43
-5056.3
-5058.49
-5060.97
-5063.7
-5066.65
-5069.79
-5073.07
-5076.45
-5079.89
-5083.36
-5086.8
-5090.18
-5093.46
-5096.62
-5099.63
-5102.46
-5105.1
-5107.53
-5109.74
-5111.73
-5113.49
-5115.03
-5116.35
-5117.47
-5118.39
-5119.14
-5119.73
-5120.17
-5120.49
-5120.7
-5120.83
-5120.89
-5120.91
-5120.91
-5120.9
-5120.89
-5120.89
-5120.9
-5120.92
-5051.63
-5051.97
-5052.65
-5053.73
-5055.2
-5057
-5059.13
-5061.56
-5064.24
-5067.16
-5070.26
-5073.52
-5076.89
-5080.31
-5083.76
-5087.19
-5090.56
-5093.83
-5096.98
-5099.96
-5102.77
-5105.38
-5107.78
-5109.95
-5111.89
-5113.6
-5115.08
-5116.34
-5117.39
-5118.24
-5118.91
-5119.4
-5119.75
-5119.97
-5120.08
-5120.09
-5120.04
-5119.94
-5119.81
-5119.69
-5119.59
-5119.52
-5119.51
-5119.55
-5052.91
-5053.2
-5053.81
-5054.75
-5056.1
-5057.79
-5059.83
-5062.17
-5064.78
-5067.65
-5070.71
-5073.94
-5077.28
-5080.7
-5084.13
-5087.55
-5090.91
-5094.17
-5097.3
-5100.27
-5103.06
-5105.64
-5108.01
-5110.14
-5112.04
-5113.71
-5115.14
-5116.34
-5117.33
-5118.11
-5118.7
-5119.11
-5119.37
-5119.49
-5119.48
-5119.38
-5119.19
-5118.94
-5118.66
-5118.37
-5118.11
-5117.88
-5117.82
-5117.82
-5054.68
-5054.77
-5055.22
-5055.9
-5057.07
-5058.59
-5060.5
-5062.74
-5065.28
-5068.08
-5071.1
-5074.3
-5077.62
-5081.02
-5084.45
-5087.86
-5091.21
-5094.46
-5097.58
-5100.54
-5103.31
-5105.88
-5108.22
-5110.32
-5112.19
-5113.82
-5115.2
-5116.36
-5117.29
-5118.01
-5118.53
-5118.87
-5119.04
-5119.06
-5118.95
-5118.73
-5118.4
-5118
-5117.53
-5117.02
-5116.53
-5116.02
-5115.82
-5115.64
-5057.07
-5056.66
-5056.82
-5057.1
-5058.01
-5059.34
-5061.1
-5063.23
-5065.69
-5068.44
-5071.42
-5074.59
-5077.9
-5081.29
-5084.71
-5088.11
-5091.46
-5094.71
-5097.82
-5100.77
-5103.53
-5106.08
-5108.4
-5110.49
-5112.33
-5113.92
-5115.27
-5116.39
-5117.27
-5117.94
-5118.4
-5118.68
-5118.78
-5118.72
-5118.52
-5118.18
-5117.72
-5117.16
-5116.5
-5115.73
-5114.96
-5114.03
-5113.56
-5112.88
-5060.25
-5058.77
-5058.48
-5058.24
-5058.87
-5059.98
-5061.6
-5063.62
-5066.01
-5068.71
-5071.66
-5074.81
-5078.11
-5081.49
-5084.91
-5088.31
-5091.66
-5094.9
-5098.01
-5100.96
-5103.71
-5106.25
-5108.56
-5110.63
-5112.45
-5114.02
-5115.34
-5116.42
-5117.27
-5117.9
-5118.32
-5118.54
-5118.58
-5118.46
-5118.17
-5117.75
-5117.18
-5116.47
-5115.62
-5114.6
-5113.52
-5112.05
-5111.15
-5109.39
-5064.27
-5060.91
-5060.04
-5059.21
-5059.56
-5060.48
-5061.97
-5063.91
-5066.25
-5068.9
-5071.83
-5074.97
-5078.25
-5081.63
-5085.05
-5088.46
-5091.8
-5095.05
-5098.16
-5101.1
-5103.85
-5106.38
-5108.68
-5110.74
-5112.54
-5114.1
-5115.4
-5116.46
-5117.28
-5117.88
-5118.26
-5118.45
-5118.45
-5118.27
-5117.93
-5117.43
-5116.77
-5115.94
-5114.94
-5113.69
-5112.3
-5110.23
-5108.78
-5105.11
-5069.07
-5062.87
-5061.34
-5059.96
-5060.07
-5060.83
-5062.23
-5064.11
-5066.4
-5069.03
-5071.94
-5075.07
-5078.35
-5081.73
-5085.15
-5088.55
-5091.9
-5095.15
-5098.26
-5101.2
-5103.95
-5106.48
-5108.77
-5110.82
-5112.62
-5114.16
-5115.45
-5116.49
-5117.29
-5117.87
-5118.23
-5118.39
-5118.36
-5118.15
-5117.76
-5117.21
-5116.49
-5115.57
-5114.46
-5113.03
-5111.38
-5108.75
-5106.66
-5100.1
-5074.3
-5064.43
-5062.25
-5060.45
-5060.39
-5061.04
-5062.38
-5064.22
-5066.49
-5069.1
-5072
-5075.12
-5078.4
-5081.78
-5085.2
-5088.61
-5091.96
-5095.21
-5098.32
-5101.26
-5104.01
-5106.54
-5108.83
-5110.87
-5112.66
-5114.2
-5115.48
-5116.51
-5117.31
-5117.87
-5118.22
-5118.36
-5118.31
-5118.08
-5117.67
-5117.09
-5116.32
-5115.36
-5114.17
-5112.62
-5110.79
-5107.73
-5105.01
-5094.75
-5079.24
-5065.41
-5062.75
-5060.7
-5060.55
-5061.15
-5062.46
-5064.27
-5066.53
-5069.13
-5072.03
-5075.15
-5078.43
-5081.81
-5085.23
-5088.63
-5091.98
-5095.23
-5098.35
-5101.29
-5104.04
-5106.56
-5108.85
-5110.89
-5112.68
-5114.21
-5115.49
-5116.52
-5117.31
-5117.87
-5118.21
-5118.35
-5118.29
-5118.05
-5117.63
-5117.03
-5116.25
-5115.25
-5114.03
-5112.42
-5110.49
-5107.19
-5103.98
-5089.74
-5083.19
-5065.84
-5062.92
-5060.79
-5060.6
-5061.18
-5062.48
-5064.29
-5066.54
-5069.14
-5072.04
-5075.16
-5078.44
-5081.81
-5085.23
-5088.64
-5091.99
-5095.24
-5098.36
-5101.3
-5104.04
-5106.57
-5108.86
-5110.9
-5112.69
-5114.22
-5115.49
-5116.52
-5117.31
-5117.87
-5118.21
-5118.34
-5118.28
-5118.04
-5117.61
-5117.01
-5116.22
-5115.22
-5113.99
-5112.35
-5110.39
-5107.01
-5103.54
-5085.77
)
;

boundaryField
{
    movingWall
    {
        type            zeroGradient;
    }
    fixedWalls
    {
        type            zeroGradient;
    }
    frontAndBack
    {
        type            empty;
    }
    defaultFaces
    {
        type            empty;
    }
}


// ************************************************************************* //
