/*--------------------------------*- C++ -*----------------------------------*\
  =========                 |
  \\      /  F ield         | OpenFOAM: The Open Source CFD Toolbox
   \\    /   O peration     | Website:  https://openfoam.org
    \\  /    A nd           | Version:  7
     \\/     M anipulation  |
\*---------------------------------------------------------------------------*/
FoamFile
{
    version     2.0;
    format      ascii;
    class       volVectorField;
    location    "2.9";
    object      U;
}
// * * * * * * * * * * * * * * * * * * * * * * * * * * * * * * * * * * * * * //

dimensions      [0 1 -1 0 0 0 0];

internalField   nonuniform List<vector> 
900
(
(5.72447e-05 -5.65833e-05 0)
(1.25129e-05 1.81066e-05 0)
(-0.000300957 0.000101333 0)
(-0.000801332 0.000157552 0)
(-0.00142441 0.000188018 0)
(-0.00211148 0.000199755 0)
(-0.00281743 0.000199694 0)
(-0.00351171 0.000192768 0)
(-0.00417423 0.000181783 0)
(-0.00479101 0.000168007 0)
(-0.00535101 0.000151769 0)
(-0.00584421 0.000132917 0)
(-0.00626053 0.000111116 0)
(-0.0065895 8.60303e-05 0)
(-0.00682035 5.74366e-05 0)
(-0.00694238 2.52967e-05 0)
(-0.00694559 -1.01764e-05 0)
(-0.00682142 -4.85074e-05 0)
(-0.0065638 -8.88158e-05 0)
(-0.00617037 -0.000129793 0)
(-0.00564386 -0.000169621 0)
(-0.00499375 -0.000205881 0)
(-0.00423812 -0.000235469 0)
(-0.00340561 -0.00025449 0)
(-0.00253737 -0.000258152 0)
(-0.00168861 -0.00024076 0)
(-0.00092839 -0.000196448 0)
(-0.000333531 -0.000121469 0)
(2.3371e-05 -1.99573e-05 0)
(6.69669e-05 6.54546e-05 0)
(-1.65532e-05 -1.37e-05 0)
(-0.00038491 0.000383266 0)
(-0.00130701 0.00077595 0)
(-0.00260428 0.00105931 0)
(-0.00415662 0.00122831 0)
(-0.00585159 0.00130352 0)
(-0.00759302 0.0013105 0)
(-0.00930876 0.00127059 0)
(-0.0109467 0.00119826 0)
(-0.0124681 0.00110177 0)
(-0.0138421 0.000984943 0)
(-0.0150418 0.000848963 0)
(-0.0160417 0.000693724 0)
(-0.0168171 0.000518843 0)
(-0.0173437 0.000324325 0)
(-0.0175984 0.000111042 0)
(-0.0175606 -0.000118921 0)
(-0.0172139 -0.000361736 0)
(-0.0165479 -0.00061164 0)
(-0.0155613 -0.000860479 0)
(-0.0142648 -0.00109732 0)
(-0.0126845 -0.00130808 0)
(-0.0108656 -0.00147532 0)
(-0.00887622 -0.0015783 0)
(-0.00680994 -0.00159358 0)
(-0.00478698 -0.00149696 0)
(-0.00294984 -0.00126842 0)
(-0.00144576 -0.000902261 0)
(-0.00040907 -0.000426263 0)
(-1.16721e-05 2.51124e-05 0)
(-0.000103599 0.000302158 0)
(-0.000805034 0.00131197 0)
(-0.00228685 0.00222484 0)
(-0.00425264 0.00289217 0)
(-0.00654121 0.00330146 0)
(-0.00900996 0.00348942 0)
(-0.0115329 0.00350692 0)
(-0.0140119 0.0034001 0)
(-0.0163733 0.00320286 0)
(-0.0185609 0.00293649 0)
(-0.0205292 0.00261243 0)
(-0.0222388 0.00223574 0)
(-0.0236535 0.00180818 0)
(-0.0247387 0.00133052 0)
(-0.0254615 0.000804247 0)
(-0.0257914 0.000232825 0)
(-0.0257018 -0.00037732 0)
(-0.0251718 -0.00101568 0)
(-0.02419 -0.00166697 0)
(-0.0227571 -0.00231002 0)
(-0.0208904 -0.00291692 0)
(-0.0186282 -0.00345232 0)
(-0.0160348 -0.00387318 0)
(-0.0132043 -0.00412968 0)
(-0.0102636 -0.00416791 0)
(-0.0073723 -0.00393604 0)
(-0.0047155 -0.00339642 0)
(-0.00247978 -0.0025457 0)
(-0.000844948 -0.00144609 0)
(-0.000100236 -0.000306768 0)
(-0.000170011 0.000829608 0)
(-0.00115171 0.00267127 0)
(-0.00311378 0.00422396 0)
(-0.00563692 0.00534246 0)
(-0.00851935 0.00602598 0)
(-0.0115955 0.00633575 0)
(-0.0147198 0.00635233 0)
(-0.0177782 0.00614973 0)
(-0.0206839 0.00578389 0)
(-0.0233695 0.00529142 0)
(-0.0257799 0.00469324 0)
(-0.0278674 0.00399974 0)
(-0.0295885 0.00321568 0)
(-0.0309019 0.00234394 0)
(-0.0317688 0.00138845 0)
(-0.0321533 0.000356332 0)
(-0.0320242 -0.000740246 0)
(-0.0313576 -0.00188244 0)
(-0.0301402 -0.00304298 0)
(-0.0283735 -0.00418454 0)
(-0.0260786 -0.00525827 0)
(-0.023302 -0.00620276 0)
(-0.0201205 -0.00694415 0)
(-0.0166464 -0.00739824 0)
(-0.0130296 -0.00747596 0)
(-0.00945728 -0.00709428 0)
(-0.00614558 -0.00619487 0)
(-0.00331258 -0.00477199 0)
(-0.00118203 -0.00290912 0)
(-0.000161117 -0.000848775 0)
(-0.0002163 0.00152374 0)
(-0.00141933 0.00438772 0)
(-0.00377692 0.00668066 0)
(-0.00675958 0.00829771 0)
(-0.0101263 0.00927189 0)
(-0.0136903 0.00970046 0)
(-0.017291 0.00969949 0)
(-0.0208039 0.00937385 0)
(-0.0241341 0.00880335 0)
(-0.0272079 0.0080411 0)
(-0.0299645 0.00711838 0)
(-0.0323509 0.00605165 0)
(-0.0343188 0.00484916 0)
(-0.035822 0.00351633 0)
(-0.0368168 0.00205987 0)
(-0.0372625 0.000490954 0)
(-0.0371229 -0.00117202 0)
(-0.0363697 -0.00290082 0)
(-0.0349858 -0.00465472 0)
(-0.0329705 -0.00637802 0)
(-0.0303454 -0.00799782 0)
(-0.0271611 -0.0094228 0)
(-0.0235032 -0.0105438 0)
(-0.019498 -0.0112374 0)
(-0.0153152 -0.0113751 0)
(-0.0111673 -0.0108386 0)
(-0.00730019 -0.00954432 0)
(-0.00396469 -0.00747679 0)
(-0.00142778 -0.00472635 0)
(-0.000197771 -0.00154433 0)
(-0.000248243 0.00234374 0)
(-0.00162495 0.00639431 0)
(-0.00430738 0.00952001 0)
(-0.00767356 0.0116789 0)
(-0.0114461 0.0129565 0)
(-0.0154178 0.0134984 0)
(-0.019415 0.0134632 0)
(-0.0233051 0.0129907 0)
(-0.0269888 0.0121863 0)
(-0.0303887 0.0111207 0)
(-0.033441 0.0098358 0)
(-0.03609 0.00835424 0)
(-0.0382836 0.00668759 0)
(-0.0399719 0.00484353 0)
(-0.0411063 0.00283109 0)
(-0.0416404 0.000665081 0)
(-0.0415316 -0.0016301 0)
(-0.0407442 -0.00401669 0)
(-0.0392543 -0.00643965 0)
(-0.037055 -0.00882307 0)
(-0.0341642 -0.011067 0)
(-0.0306329 -0.0130457 0)
(-0.0265529 -0.0146093 0)
(-0.0220638 -0.0155892 0)
(-0.0173563 -0.015811 0)
(-0.0126716 -0.0151151 0)
(-0.00829055 -0.0133875 0)
(-0.00450131 -0.0105967 0)
(-0.00161393 -0.00683247 0)
(-0.000219198 -0.00234956 0)
(-0.000271939 0.0032603 0)
(-0.00179137 0.00863766 0)
(-0.00475082 0.0126808 0)
(-0.00845075 0.0154233 0)
(-0.0125807 0.0170175 0)
(-0.0169137 0.0176687 0)
(-0.0212636 0.0175858 0)
(-0.0254917 0.0169474 0)
(-0.0294957 0.0158873 0)
(-0.0331965 0.0144943 0)
(-0.0365294 0.0128213 0)
(-0.039437 0.0108963 0)
(-0.0418647 0.00873372 0)
(-0.0437589 0.00634222 0)
(-0.0450657 0.00373198 0)
(-0.0457317 0.000920113 0)
(-0.0457052 -0.00206419 0)
(-0.04494 -0.00517438 0)
(-0.0434003 -0.00834096 0)
(-0.0410684 -0.0114662 0)
(-0.0379536 -0.0144196 0)
(-0.034103 -0.0170358 0)
(-0.0296126 -0.0191165 0)
(-0.0246358 -0.0204389 0)
(-0.0193888 -0.020774 0)
(-0.0141486 -0.0199131 0)
(-0.00924011 -0.0177056 0)
(-0.00499704 -0.0141016 0)
(-0.00177446 -0.00919041 0)
(-0.000233403 -0.00323911 0)
(-0.000292195 0.00425756 0)
(-0.00193952 0.0110867 0)
(-0.00515228 0.016127 0)
(-0.00916222 0.0194951 0)
(-0.0136281 0.0214216 0)
(-0.0183038 0.0221813 0)
(-0.0229916 0.022041 0)
(-0.0275471 0.0212233 0)
(-0.0318662 0.0198924 0)
(-0.0358699 0.0181564 0)
(-0.0394935 0.0160788 0)
(-0.0426792 0.0136926 0)
(-0.0453708 0.0110133 0)
(-0.0475111 0.00804899 0)
(-0.0490401 0.00480878 0)
(-0.0498955 0.00130971 0)
(-0.0500138 -0.00241653 0)
(-0.0493339 -0.00631647 0)
(-0.0478031 -0.0103068 0)
(-0.0453862 -0.0142667 0)
(-0.0420775 -0.0180313 0)
(-0.0379149 -0.0213882 0)
(-0.0329953 -0.0240805 0)
(-0.0274871 -0.025819 0)
(-0.0216375 -0.0263065 0)
(-0.0157703 -0.0252746 0)
(-0.0102678 -0.0225304 0)
(-0.00552152 -0.0180058 0)
(-0.00193791 -0.0117982 0)
(-0.000245753 -0.00420585 0)
(-0.000312288 0.00533058 0)
(-0.00208586 0.0137308 0)
(-0.00554937 0.019847 0)
(-0.00986823 0.0238844 0)
(-0.0146711 0.0261613 0)
(-0.0196931 0.027032 0)
(-0.0247251 0.0268284 0)
(-0.0296178 0.0258224 0)
(-0.0342663 0.0242113 0)
(-0.038593 0.0221236 0)
(-0.0425347 0.0196333 0)
(-0.0460342 0.0167771 0)
(-0.0490347 0.0135698 0)
(-0.0514756 0.0100165 0)
(-0.0532905 0.00612222 0)
(-0.0544068 0.00190027 0)
(-0.0547461 -0.00261883 0)
(-0.0542277 -0.007378 0)
(-0.0527753 -0.012282 0)
(-0.0503285 -0.0171864 0)
(-0.0468576 -0.0218879 0)
(-0.0423831 -0.0261181 0)
(-0.0369972 -0.0295476 0)
(-0.0308828 -0.0318029 0)
(-0.0243246 -0.0325001 0)
(-0.017707 -0.0312954 0)
(-0.0114889 -0.0279456 0)
(-0.00613851 -0.022369 0)
(-0.00212718 -0.0146869 0)
(-0.000259238 -0.00525654 0)
(-0.000334317 0.00648219 0)
(-0.0022423 0.0165757 0)
(-0.00597075 0.0238489 0)
(-0.0106154 0.0286013 0)
(-0.0157737 0.0312488 0)
(-0.0211617 0.0322349 0)
(-0.0265588 0.0319648 0)
(-0.0318117 0.0307647 0)
(-0.0368161 0.0288687 0)
(-0.0414969 0.0264266 0)
(-0.0457941 0.0235227 0)
(-0.0496532 0.0201962 0)
(-0.0530178 0.0164592 0)
(-0.0558252 0.0123105 0)
(-0.0580029 0.00774683 0)
(-0.0594669 0.00277308 0)
(-0.0601214 -0.00258686 0)
(-0.0598613 -0.00827781 0)
(-0.0585792 -0.0141964 0)
(-0.0561792 -0.0201761 0)
(-0.0525954 -0.025971 0)
(-0.0478181 -0.0312466 0)
(-0.0419245 -0.0355832 0)
(-0.0351075 -0.0384981 0)
(-0.0276944 -0.0394933 0)
(-0.0201476 -0.0381256 0)
(-0.0130294 -0.0340904 0)
(-0.00691455 -0.027298 0)
(-0.00236331 -0.0179188 0)
(-0.000275423 -0.00640847 0)
(-0.000359608 0.00772061 0)
(-0.00241731 0.0196392 0)
(-0.00643754 0.0281555 0)
(-0.0114384 0.033671 0)
(-0.0169832 0.0367101 0)
(-0.0227675 0.0378164 0)
(-0.0285595 0.0374772 0)
(-0.0342029 0.0360795 0)
(-0.0395952 0.0338973 0)
(-0.0446661 0.0311033 0)
(-0.049361 0.0277922 0)
(-0.0536303 0.0240043 0)
(-0.0574205 0.0197465 0)
(-0.060669 0.0150078 0)
(-0.0632986 0.00977159 0)
(-0.0652144 0.00402792 0)
(-0.0663022 -0.00221359 0)
(-0.0664275 -0.00890789 0)
(-0.0654437 -0.0159509 0)
(-0.0632069 -0.0231578 0)
(-0.0595983 -0.0302391 0)
(-0.0545584 -0.0367836 0)
(-0.0481306 -0.0422588 0)
(-0.0405052 -0.0460396 0)
(-0.0320534 -0.0474732 0)
(-0.0233345 -0.0459794 0)
(-0.0150524 -0.0411708 0)
(-0.00793489 -0.0329569 0)
(-0.00267191 -0.0215924 0)
(-0.000295544 -0.0076893 0)
(-0.00038907 0.00905785 0)
(-0.00261717 0.0229477 0)
(-0.00696573 0.0328006 0)
(-0.0123632 0.0391294 0)
(-0.018334 0.0425805 0)
(-0.0245515 0.0438102 0)
(-0.0307726 0.0433985 0)
(-0.0368387 0.0417998 0)
(-0.0426515 0.0393322 0)
(-0.048148 0.0361936 0)
(-0.0532821 0.0324889 0)
(-0.0580122 0.0282588 0)
(-0.0622917 0.0235024 0)
(-0.0660618 0.0181949 0)
(-0.0692441 0.0123008 0)
(-0.0717352 0.00578672 0)
(-0.0734031 -0.00136216 0)
(-0.0740817 -0.00912096 0)
(-0.0735764 -0.017399 0)
(-0.0716814 -0.0260031 0)
(-0.0682025 -0.0346033 0)
(-0.0630017 -0.0427032 0)
(-0.0560567 -0.049633 0)
(-0.0475288 -0.0545808 0)
(-0.0378228 -0.0566793 0)
(-0.0276135 -0.0551505 0)
(-0.0177973 -0.0494835 0)
(-0.0093271 -0.0395892 0)
(-0.00309213 -0.0258574 0)
(-0.000321836 -0.00914092 0)
(-0.00042349 0.0105089 0)
(-0.00284742 0.0265351 0)
(-0.0075691 0.0378267 0)
(-0.0134115 0.0450203 0)
(-0.0198537 0.048901 0)
(-0.0265444 0.0502535 0)
(-0.0332286 0.049762 0)
(-0.0397474 0.0479572 0)
(-0.0460092 0.0452062 0)
(-0.0519614 0.0417342 0)
(-0.0575702 0.0376575 0)
(-0.0628068 0.0330161 0)
(-0.0676366 0.0277998 0)
(-0.0720102 0.021966 0)
(-0.0758545 0.0154538 0)
(-0.0790637 0.00819742 0)
(-0.0814902 0.000144741 0)
(-0.0829382 -0.00871593 0)
(-0.0831613 -0.0183268 0)
(-0.0818744 -0.028505 0)
(-0.078781 -0.0388928 0)
(-0.0736241 -0.0489084 0)
(-0.0662655 -0.0577203 0)
(-0.0567875 -0.0642749 0)
(-0.045597 -0.067405 0)
(-0.0334935 -0.0660348 0)
(-0.0216303 -0.0594529 0)
(-0.0112935 -0.0475582 0)
(-0.00368929 -0.0309427 0)
(-0.000359324 -0.010829 0)
(-0.000463808 0.0120915 0)
(-0.00311413 0.0304419 0)
(-0.00826217 0.0432835 0)
(-0.014605 0.0513934 0)
(-0.0215681 0.0557159 0)
(-0.0287722 0.057183 0)
(-0.0359506 0.0565983 0)
(-0.0429457 0.0545782 0)
(-0.049676 0.0515448 0)
(-0.0561031 0.0477537 0)
(-0.0622105 0.0433341 0)
(-0.0679876 0.0383259 0)
(-0.0734185 0.032708 0)
(-0.0784717 0.0264173 0)
(-0.0830886 0.0193618 0)
(-0.0871706 0.0114339 0)
(-0.0905642 0.00252867 0)
(-0.0930509 -0.00742651 0)
(-0.094332 -0.0184318 0)
(-0.0940298 -0.0303461 0)
(-0.0917153 -0.0428135 0)
(-0.0869601 -0.0551816 0)
(-0.0794366 -0.066443 0)
(-0.0690646 -0.0752399 0)
(-0.0561843 -0.0799872 0)
(-0.041703 -0.0791535 0)
(-0.0271004 -0.0716824 0)
(-0.0141511 -0.0574063 0)
(-0.00457112 -0.0372031 0)
(-0.000418233 -0.0128601 0)
(-0.000511405 0.0138273 0)
(-0.00342543 0.0347165 0)
(-0.00906333 0.0492291 0)
(-0.0159699 0.0583038 0)
(-0.0235068 0.0630708 0)
(-0.0312628 0.064633 0)
(-0.0389597 0.0639313 0)
(-0.0464441 0.0616792 0)
(-0.0536481 0.0583608 0)
(-0.0605526 0.0542663 0)
(-0.0671633 0.0495398 0)
(-0.0734944 0.0442227 0)
(-0.0795568 0.0382835 0)
(-0.0853467 0.0316375 0)
(-0.090833 0.0241574 0)
(-0.0959395 0.0156845 0)
(-0.100525 0.00604456 0)
(-0.104361 -0.00492292 0)
(-0.107104 -0.0173118 0)
(-0.10828 -0.0310727 0)
(-0.107301 -0.0459041 0)
(-0.103504 -0.061126 0)
(-0.0962769 -0.0755631 0)
(-0.0852521 -0.0874955 0)
(-0.0705789 -0.0947692 0)
(-0.053203 -0.0951591 0)
(-0.0349791 -0.0870069 0)
(-0.0183701 -0.0699346 0)
(-0.00590604 -0.0451869 0)
(-0.00051691 -0.0154085 0)
(-0.000568474 0.0157429 0)
(-0.00379322 0.0394177 0)
(-0.00999844 0.0557315 0)
(-0.0175418 0.0658124 0)
(-0.0257081 0.0710112 0)
(-0.0340504 0.072632 0)
(-0.0422799 0.071774 0)
(-0.0502508 0.0692618 0)
(-0.0579138 0.0656489 0)
(-0.0652738 0.0612644 0)
(-0.072364 0.0562712 0)
(-0.0792301 0.0507145 0)
(-0.0859181 0.0445558 0)
(-0.0924639 0.0376901 0)
(-0.0988787 0.029954 0)
(-0.105129 0.021131 0)
(-0.111108 0.0109617 0)
(-0.116605 -0.000829519 0)
(-0.121251 -0.0144763 0)
(-0.124487 -0.0300919 0)
(-0.125545 -0.0475124 0)
(-0.123477 -0.0661137 0)
(-0.117273 -0.084603 0)
(-0.106118 -0.100866 0)
(-0.0897798 -0.112012 0)
(-0.0690848 -0.114791 0)
(-0.0462382 -0.106517 0)
(-0.0245947 -0.0862827 0)
(-0.00794039 -0.0557207 0)
(-0.000685297 -0.0187526 0)
(-0.000638582 0.0178729 0)
(-0.00423563 0.0446196 0)
(-0.0111054 0.062872 0)
(-0.0193712 0.0739868 0)
(-0.0282252 0.0795815 0)
(-0.037181 0.0811994 0)
(-0.0459415 0.0801243 0)
(-0.054374 0.0773065 0)
(-0.062453 0.0733773 0)
(-0.0702123 0.0687094 0)
(-0.0777177 0.0634881 0)
(-0.0850515 0.0577676 0)
(-0.0923024 0.0515071 0)
(-0.0995564 0.0445872 0)
(-0.106883 0.0368124 0)
(-0.114313 0.0279078 0)
(-0.121805 0.0175186 0)
(-0.129192 0.00522591 0)
(-0.136124 -0.00940356 0)
(-0.141989 -0.026724 0)
(-0.145845 -0.0468274 0)
(-0.146424 -0.0692796 0)
(-0.14223 -0.0927844 0)
(-0.131829 -0.114861 0)
(-0.114363 -0.131731 0)
(-0.0902625 -0.138724 0)
(-0.061899 -0.131494 0)
(-0.0336178 -0.107969 0)
(-0.0110127 -0.0699973 0)
(-0.000970596 -0.0233205 0)
(-0.000727624 0.0202644 0)
(-0.00478066 0.0504185 0)
(-0.0124402 0.0707508 0)
(-0.0215303 0.0829028 0)
(-0.0311309 0.0888224 0)
(-0.0407145 0.0903411 0)
(-0.0499813 0.0889576 0)
(-0.058819 0.0857646 0)
(-0.067232 0.0814783 0)
(-0.0752876 0.0765191 0)
(-0.0830873 0.0710984 0)
(-0.0907529 0.0652848 0)
(-0.0984198 0.0590433 0)
(-0.106231 0.0522498 0)
(-0.114324 0.0446867 0)
(-0.122815 0.0360275 0)
(-0.131752 0.0258198 0)
(-0.141061 0.0134792 0)
(-0.150451 -0.00168154 0)
(-0.159308 -0.0203493 0)
(-0.166572 -0.0430135 0)
(-0.170683 -0.0696115 0)
(-0.169629 -0.0990328 0)
(-0.161238 -0.128553 0)
(-0.143778 -0.153453 0)
(-0.116893 -0.167261 0)
(-0.0826824 -0.163157 0)
(-0.046274 -0.136816 0)
(-0.0155678 -0.0896376 0)
(-0.0014507 -0.0297462 0)
(-0.000845559 0.0229837 0)
(-0.00547203 0.0569438 0)
(-0.0140862 0.079493 0)
(-0.0241211 0.0926447 0)
(-0.0345229 0.098766 0)
(-0.0447257 0.10004 0)
(-0.0544375 0.0982164 0)
(-0.063577 0.0945458 0)
(-0.0721867 0.0898342 0)
(-0.080371 0.0845515 0)
(-0.0882675 0.0789375 0)
(-0.0960363 0.0730802 0)
(-0.103857 0.0669596 0)
(-0.111928 0.0604599 0)
(-0.12046 0.0533566 0)
(-0.129655 0.0452869 0)
(-0.139675 0.0357087 0)
(-0.150568 0.0238652 0)
(-0.162158 0.0087815 0)
(-0.173905 -0.0106557 0)
(-0.184736 -0.0354742 0)
(-0.192913 -0.066179 0)
(-0.19601 -0.102106 0)
(-0.19113 -0.140536 0)
(-0.175507 -0.175941 0)
(-0.14757 -0.199851 0)
(-0.108417 -0.202144 0)
(-0.0631969 -0.174639 0)
(-0.0221725 -0.116677 0)
(-0.00226543 -0.0389446 0)
(-0.00100984 0.0261284 0)
(-0.00637924 0.0643728 0)
(-0.016167 0.0892559 0)
(-0.0272854 0.103302 0)
(-0.0385257 0.109425 0)
(-0.0492958 0.110241 0)
(-0.0593308 0.107792 0)
(-0.0685976 0.103499 0)
(-0.077186 0.0982573 0)
(-0.0852407 0.0925833 0)
(-0.0929333 0.0867439 0)
(-0.100456 0.0808499 0)
(-0.108023 0.0749038 0)
(-0.115876 0.0688111 0)
(-0.124282 0.0623596 0)
(-0.133525 0.0551719 0)
(-0.143871 0.0466379 0)
(-0.155504 0.0358418 0)
(-0.168415 0.0215136 0)
(-0.182227 0.00206624 0)
(-0.195993 -0.024183 0)
(-0.208036 -0.0584681 0)
(-0.215787 -0.100857 0)
(-0.215846 -0.149007 0)
(-0.204465 -0.196986 0)
(-0.178536 -0.234531 0)
(-0.137253 -0.247714 0)
(-0.0843535 -0.222588 0)
(-0.0314955 -0.153384 0)
(-0.00367267 -0.0522147 0)
(-0.00125255 0.0298478 0)
(-0.00761558 0.0729537 0)
(-0.0188665 0.100235 0)
(-0.0312152 0.114957 0)
(-0.0432848 0.120768 0)
(-0.0544882 0.120823 0)
(-0.0646226 0.117495 0)
(-0.0737278 0.112381 0)
(-0.0819545 0.106458 0)
(-0.0894914 0.100278 0)
(-0.0965404 0.0941295 0)
(-0.103316 0.0881423 0)
(-0.11005 0.0823452 0)
(-0.117005 0.0766746 0)
(-0.124477 0.0709465 0)
(-0.132795 0.0647941 0)
(-0.142301 0.0575725 0)
(-0.1533 0.0482459 0)
(-0.165967 0.0352896 0)
(-0.180188 0.0166785 0)
(-0.195298 -0.009933 0)
(-0.209983 -0.0467062 0)
(-0.221973 -0.0945682 0)
(-0.227825 -0.152027 0)
(-0.223175 -0.213445 0)
(-0.203368 -0.267546 0)
(-0.164923 -0.296846 0)
(-0.108297 -0.280049 0)
(-0.0441351 -0.201732 0)
(-0.0061138 -0.071346 0)
(-0.00163596 0.0343798 0)
(-0.00937181 0.0830368 0)
(-0.0224595 0.112663 0)
(-0.0361603 0.127656 0)
(-0.0489418 0.132675 0)
(-0.0602898 0.131543 0)
(-0.0701218 0.126997 0)
(-0.0785889 0.120802 0)
(-0.0859228 0.113995 0)
(-0.092363 0.107144 0)
(-0.0981406 0.100542 0)
(-0.103482 0.0943318 0)
(-0.108622 0.0885623 0)
(-0.113813 0.0832012 0)
(-0.119343 0.0781015 0)
(-0.125536 0.0729274 0)
(-0.132756 0.0670383 0)
(-0.14138 0.0593414 0)
(-0.151743 0.048148 0)
(-0.164033 0.0311094 0)
(-0.178124 0.00533719 0)
(-0.193276 -0.0321704 0)
(-0.207926 -0.083375 0)
(-0.219324 -0.148042 0)
(-0.223159 -0.221725 0)
(-0.213712 -0.293499 0)
(-0.184611 -0.343681 0)
(-0.131362 -0.343324 0)
(-0.0601163 -0.262332 0)
(-0.010225 -0.0986229 0)
(-0.00228687 0.0401223 0)
(-0.0119802 0.0951162 0)
(-0.0273555 0.126784 0)
(-0.0424189 0.141339 0)
(-0.0555623 0.144848 0)
(-0.0664759 0.141943 0)
(-0.0752937 0.135741 0)
(-0.0823353 0.128138 0)
(-0.087944 0.120194 0)
(-0.0924264 0.112463 0)
(-0.0960483 0.105219 0)
(-0.0990471 0.0985974 0)
(-0.101646 0.0926539 0)
(-0.104069 0.0873759 0)
(-0.106557 0.0826491 0)
(-0.109385 0.0781786 0)
(-0.112877 0.0733641 0)
(-0.117415 0.0671323 0)
(-0.123442 0.057761 0)
(-0.131431 0.0427649 0)
(-0.141795 0.0189575 0)
(-0.154614 -0.0171624 0)
(-0.169458 -0.0686376 0)
(-0.184814 -0.136692 0)
(-0.19733 -0.218923 0)
(-0.201254 -0.306489 0)
(-0.18801 -0.380017 0)
(-0.147468 -0.404824 0)
(-0.0780208 -0.332834 0)
(-0.0166622 -0.136508 0)
(-0.00347174 0.047773 0)
(-0.0160339 0.109874 0)
(-0.034147 0.142775 0)
(-0.0502681 0.15569 0)
(-0.0629416 0.156632 0)
(-0.0723047 0.151174 0)
(-0.0788596 0.142773 0)
(-0.0831785 0.133384 0)
(-0.0857641 0.124029 0)
(-0.0870185 0.115201 0)
(-0.0872597 0.107126 0)
(-0.0867438 0.0999038 0)
(-0.0856839 0.0935717 0)
(-0.0842656 0.0881139 0)
(-0.0826663 0.0834314 0)
(-0.0810781 0.0792663 0)
(-0.0797398 0.0750813 0)
(-0.078981 0.0698936 0)
(-0.0792712 0.0620889 0)
(-0.0812675 0.0492793 0)
(-0.0858216 0.0283114 0)
(-0.0938467 -0.00448631 0)
(-0.106163 -0.0528952 0)
(-0.122835 -0.119434 0)
(-0.142321 -0.204212 0)
(-0.160219 -0.302077 0)
(-0.167446 -0.397226 0)
(-0.149061 -0.453715 0)
(-0.094118 -0.406381 0)
(-0.0255625 -0.186718 0)
(-0.00575239 0.0586209 0)
(-0.0225901 0.128194 0)
(-0.0435953 0.160511 0)
(-0.059674 0.16981 0)
(-0.0700679 0.166688 0)
(-0.075784 0.157691 0)
(-0.0779215 0.146478 0)
(-0.0774228 0.134934 0)
(-0.0750149 0.123947 0)
(-0.0712317 0.113889 0)
(-0.0664628 0.104894 0)
(-0.0609933 0.0969915 0)
(-0.0550294 0.0901669 0)
(-0.0487182 0.0843707 0)
(-0.0421705 0.0794937 0)
(-0.0354889 0.0752983 0)
(-0.0288102 0.0713158 0)
(-0.0223717 0.0666998 0)
(-0.0165966 0.0600552 0)
(-0.012191 0.0492885 0)
(-0.010244 0.0315565 0)
(-0.0123516 0.00338291 0)
(-0.0202796 -0.0390917 0)
(-0.0355878 -0.0992722 0)
(-0.0590246 -0.179483 0)
(-0.0888314 -0.279054 0)
(-0.117858 -0.388862 0)
(-0.128772 -0.478125 0)
(-0.102254 -0.471223 0)
(-0.0356193 -0.248736 0)
(-0.0102769 0.0751876 0)
(-0.0334314 0.151025 0)
(-0.0562226 0.179003 0)
(-0.0692133 0.181565 0)
(-0.0735542 0.172392 0)
(-0.0717968 0.158758 0)
(-0.0659441 0.144206 0)
(-0.057436 0.130325 0)
(-0.0472685 0.117727 0)
(-0.0361085 0.106572 0)
(-0.0243977 0.0968415 0)
(-0.0124258 0.0884525 0)
(-0.000369834 0.0813037 0)
(0.0116784 0.0752838 0)
(0.0236816 0.0702464 0)
(0.0356246 0.0659563 0)
(0.0474702 0.0620059 0)
(0.0590839 0.0576994 0)
(0.0701302 0.0519148 0)
(0.0799409 0.0429692 0)
(0.0873583 0.0285336 0)
(0.0905281 0.00565309 0)
(0.0871419 -0.0290577 0)
(0.0745017 -0.0792064 0)
(0.0498966 -0.148387 0)
(0.0118443 -0.23979 0)
(-0.0368562 -0.352562 0)
(-0.0802121 -0.467929 0)
(-0.0948086 -0.512334 0)
(-0.0432564 -0.318796 0)
(-0.0191439 0.102176 0)
(-0.050854 0.178226 0)
(-0.0699071 0.19494 0)
(-0.0720963 0.186272 0)
(-0.0628963 0.168833 0)
(-0.0472036 0.149818 0)
(-0.028104 0.131976 0)
(-0.00746762 0.116207 0)
(0.0135799 0.102627 0)
(0.0343964 0.0910706 0)
(0.0546371 0.0812958 0)
(0.0741285 0.0730668 0)
(0.0928169 0.0661757 0)
(0.110728 0.0604367 0)
(0.127937 0.0556581 0)
(0.144529 0.0516012 0)
(0.160563 0.0479153 0)
(0.175997 0.044053 0)
(0.190588 0.0391693 0)
(0.203756 0.0320186 0)
(0.214412 0.0208815 0)
(0.220643 0.0035401 0)
(0.22002 -0.0225631 0)
(0.209269 -0.0605563 0)
(0.184422 -0.114146 0)
(0.141466 -0.188533 0)
(0.0777462 -0.290141 0)
(0.00351005 -0.417099 0)
(-0.0634942 -0.514719 0)
(-0.0422903 -0.388889 0)
(-0.0342177 0.145426 0)
(-0.0721989 0.202392 0)
(-0.0675848 0.196939 0)
(-0.042164 0.172612 0)
(-0.007249 0.146428 0)
(0.0305387 0.12334 0)
(0.0679502 0.10416 0)
(0.103539 0.0885311 0)
(0.13671 0.0758533 0)
(0.167326 0.0655639 0)
(0.195475 0.057191 0)
(0.221344 0.0503626 0)
(0.245169 0.0447879 0)
(0.267202 0.0402332 0)
(0.287689 0.0364894 0)
(0.306852 0.0333367 0)
(0.324843 0.0304988 0)
(0.341695 0.0275864 0)
(0.357229 0.024034 0)
(0.370942 0.0190286 0)
(0.38184 0.0114508 0)
(0.388194 -0.000161149 0)
(0.387634 -0.0173305 0)
(0.37664 -0.0422488 0)
(0.350687 -0.0777796 0)
(0.304573 -0.128926 0)
(0.231275 -0.205573 0)
(0.133213 -0.323679 0)
(0.00439317 -0.464011 0)
(-0.0200407 -0.438592 0)
(-0.0373031 0.236458 0)
(-0.0462222 0.205119 0)
(0.0304834 0.154891 0)
(0.103274 0.118778 0)
(0.170865 0.0915932 0)
(0.230961 0.0713615 0)
(0.283195 0.0565511 0)
(0.328318 0.0456296 0)
(0.367353 0.0374315 0)
(0.401282 0.0311794 0)
(0.430959 0.0263535 0)
(0.457105 0.0225944 0)
(0.480325 0.0196457 0)
(0.501127 0.0173169 0)
(0.51993 0.0154535 0)
(0.537061 0.0139092 0)
(0.552741 0.0125193 0)
(0.567041 0.0110708 0)
(0.579814 0.00927414 0)
(0.590598 0.00673808 0)
(0.598461 0.00295014 0)
(0.602046 -0.00271084 0)
(0.59922 -0.0110663 0)
(0.586727 -0.0231972 0)
(0.559947 -0.0404635 0)
(0.513939 -0.065997 0)
(0.438047 -0.107241 0)
(0.330449 -0.189867 0)
(0.141075 -0.337567 0)
(0.0597192 -0.414041 0)
(0.231273 0.158498 0)
(0.291803 0.117367 0)
(0.442175 0.0762724 0)
(0.541865 0.0509586 0)
(0.609537 0.0345436 0)
(0.659316 0.0236439 0)
(0.697289 0.016493 0)
(0.726808 0.0118072 0)
(0.750226 0.00868994 0)
(0.769209 0.00657513 0)
(0.784905 0.00511516 0)
(0.798119 0.00409247 0)
(0.809433 0.00336707 0)
(0.819278 0.00284589 0)
(0.827974 0.00246258 0)
(0.835745 0.00216304 0)
(0.842717 0.00189376 0)
(0.848905 0.00159222 0)
(0.854174 0.00117825 0)
(0.858199 0.00055564 0)
(0.86039 -0.000391518 0)
(0.85983 -0.00173138 0)
(0.855033 -0.00373648 0)
(0.844309 -0.00670885 0)
(0.824574 -0.0108644 0)
(0.793386 -0.017118 0)
(0.738494 -0.0273748 0)
(0.660167 -0.0499572 0)
(0.456248 -0.111057 0)
(0.313697 -0.178202 0)
)
;

boundaryField
{
    movingWall
    {
        type            fixedValue;
        value           uniform (1 0 0);
    }
    fixedWalls
    {
        type            noSlip;
    }
    frontAndBack
    {
        type            empty;
    }
}


// ************************************************************************* //
