/*--------------------------------*- C++ -*----------------------------------*\
  =========                 |
  \\      /  F ield         | OpenFOAM: The Open Source CFD Toolbox
   \\    /   O peration     | Website:  https://openfoam.org
    \\  /    A nd           | Version:  7
     \\/     M anipulation  |
\*---------------------------------------------------------------------------*/
FoamFile
{
    version     2.0;
    format      ascii;
    class       volScalarField;
    location    "5";
    object      p;
}
// * * * * * * * * * * * * * * * * * * * * * * * * * * * * * * * * * * * * * //

dimensions      [0 2 -2 0 0 0 0];

internalField   nonuniform List<scalar> 
900
(
-2.62833e-08
-0.000120818
-0.000254786
-0.000362903
-0.000416696
-0.000401198
-0.000311282
-0.000146625
9.11934e-05
0.000399927
0.000776958
0.00121902
0.00172157
0.00227806
0.00287918
0.00351225
0.00416094
0.00480529
0.00542249
0.00598809
0.00647801
0.00687092
0.00715096
0.00731034
0.00735136
0.00728775
0.00714555
0.00696287
0.00678498
0.0066785
0.000119105
-3.45534e-06
-9.58878e-05
-0.000158661
-0.000176156
-0.000136598
-3.50136e-05
0.000130226
0.00035916
0.000650849
0.00100351
0.00141432
0.001879
0.00239123
0.00294217
0.00352002
0.00410977
0.00469377
0.00525187
0.00576294
0.00620657
0.00656518
0.00682633
0.00698481
0.00704418
0.00701726
0.00692593
0.0068005
0.0066746
0.00657053
0.000257591
8.55386e-05
-9.05009e-06
-6.09816e-05
-6.66601e-05
-1.79705e-05
8.81157e-05
0.000252555
0.000475564
0.000756738
0.00109494
0.001488
0.00193229
0.00242215
0.00294941
0.00350296
0.004069
0.00463015
0.00516714
0.00565957
0.00608762
0.00643423
0.00668743
0.00684236
0.00690266
0.00688058
0.00679634
0.00667734
0.0065473
0.00639873
0.00037267
0.000141464
3.05515e-05
-2.34511e-05
-2.68964e-05
2.46063e-05
0.000131599
0.000293774
0.000511094
0.000783494
0.00111051
0.00149081
0.00192168
0.00239842
0.00291373
0.00345729
0.00401557
0.00457156
0.00510575
0.00559709
0.00602479
0.00637067
0.0066217
0.00677233
0.00682585
0.0067943
0.00669768
0.00656304
0.00640857
0.00620766
0.000428691
0.000140344
9.48495e-06
-5.20093e-05
-5.83153e-05
-8.05767e-06
9.70256e-05
0.000255387
0.000466713
0.000731291
0.0010494
0.00142072
0.00184365
0.0023146
0.00282728
0.00337211
0.00393581
0.00450121
0.00504779
0.00555283
0.00599332
0.00634863
0.00660346
0.00675068
0.00679298
0.00674279
0.00662137
0.00645785
0.00626937
0.00601617
0.000399799
5.94643e-05
-9.22823e-05
-0.000164327
-0.000176961
-0.000131103
-3.035e-05
0.00012276
0.000327773
0.000585439
0.000896917
0.00126304
0.0016835
0.00215604
0.00267551
0.00323312
0.00381578
0.00440574
0.00498081
0.00551561
0.00598366
0.00636039
0.00662687
0.00677336
0.00680162
0.00672506
0.00656786
0.00636387
0.00613319
0.00582851
0.000268179
-0.000118452
-0.000290626
-0.000374695
-0.000395829
-0.00035668
-0.000262272
-0.000115829
8.22698e-05
0.000333405
0.000639783
0.00100358
0.00142604
0.00190643
0.00244104
0.00302204
0.00363657
0.00426616
0.00488643
0.00546845
0.00598088
0.0063936
0.00668229
0.00683317
0.00684642
0.00673689
0.00653333
0.00627709
0.0059949
0.00563606
2.05665e-05
-0.000407525
-0.00059921
-0.000695965
-0.000727056
-0.000696493
-0.000610379
-0.000472342
-0.000282474
-3.85736e-05
0.000262808
0.000625429
0.00105234
0.00154474
0.00210073
0.00271387
0.0033718
0.00405562
0.00473845
0.00538706
0.00596389
0.00643123
0.00675704
0.00692136
0.00692138
0.0067734
0.00651234
0.00619009
0.00584352
0.00542049
-0.00035382
-0.000819904
-0.00103038
-0.00114037
-0.00118279
-0.00116279
-0.00108734
-0.000960281
-0.000781249
-0.000547062
-0.000252842
0.000106996
0.000537663
0.00104277
0.00162286
0.0022736
0.00298378
0.003735
0.00449798
0.00523489
0.00590059
0.00644742
0.0068324
0.00702588
0.00701943
0.00682976
0.00649919
0.0060937
0.0056641
0.0051564
-0.000864327
-0.00136628
-0.00159534
-0.00171939
-0.00177484
-0.00176794
-0.00170645
-0.00159434
-0.00143072
-0.00121136
-0.000929815
-0.000578461
-0.000149559
0.000363481
0.000964517
0.00165235
0.00241802
0.00324623
0.00410556
0.00495414
0.00573856
0.00639856
0.00687585
0.00712575
0.00712907
0.00689986
0.00648817
0.00597814
0.00543916
0.00481255
-0.00151941
-0.00205628
-0.00230426
-0.0024437
-0.00251451
-0.00252414
-0.00248122
-0.00238993
-0.00224897
-0.00205308
-0.0017943
-0.00146285
-0.00104819
-0.000540197
6.92424e-05
0.000783608
0.00159818
0.00250461
0.00347087
0.00445338
0.00539108
0.00620908
0.0068283
0.00718084
0.00722773
0.00697335
0.00647327
0.00583419
0.0051502
0.00435285
-0.00232684
-0.00289866
-0.00316648
-0.00332319
-0.00341238
-0.00344298
-0.00342477
-0.00336246
-0.00325456
-0.00309514
-0.00287494
-0.00258224
-0.00220369
-0.00172528
-0.00113372
-0.000418038
0.000427471
0.00139136
0.00246039
0.00359103
0.00471746
0.00574995
0.00658302
0.00711403
0.00726911
0.00702868
0.00644619
0.00565415
0.00477975
0.00373764
-0.00329378
-0.0039015
-0.00419056
-0.00436681
-0.00447796
-0.00453486
-0.00454897
-0.00452601
-0.00446495
-0.00435974
-0.00420055
-0.00397436
-0.00366555
-0.00325643
-0.00272803
-0.00206117
-0.00123954
-0.00025787
0.000885198
0.00215756
0.00349885
0.00480956
0.0059544
0.00678192
0.00715991
0.00701852
0.00639019
0.00543169
0.00431367
0.00292585
-0.00442668
-0.00507225
-0.00538428
-0.00558248
-0.00571926
-0.00580813
-0.005863
-0.00589149
-0.0058939
-0.00586517
-0.00579605
-0.00567363
-0.00548147
-0.00519941
-0.00480336
-0.00426514
-0.00355346
-0.00263883
-0.00150056
-0.000135249
0.00141789
0.00306353
0.00464025
0.0059345
0.00672375
0.0068437
0.00626675
0.00515894
0.00374396
0.00187824
-0.00573132
-0.00641801
-0.00675486
-0.0069769
-0.0071422
-0.00726797
-0.00737172
-0.00746414
-0.00754817
-0.00762125
-0.00767662
-0.00770374
-0.00768796
-0.00760947
-0.0074415
-0.00714782
-0.0066803
-0.00597921
-0.00498581
-0.00364326
-0.00193957
6.28364e-05
0.00219459
0.00417566
0.00565723
0.0063159
0.0059927
0.00482
0.00307262
0.000563485
-0.00721301
-0.00794605
-0.00830928
-0.00855559
-0.00875012
-0.00891523
-0.00907359
-0.00924052
-0.00942326
-0.00962374
-0.00984015
-0.0100675
-0.0102969
-0.0105133
-0.0106922
-0.010793
-0.0107519
-0.0104762
-0.00984588
-0.00873185
-0.00702963
-0.00472401
-0.0019522
0.000956568
0.00350119
0.00512035
0.00541117
0.00438088
0.00231841
-0.00102969
-0.0088773
-0.0096649
-0.0100552
-0.0103232
-0.0105434
-0.0107452
-0.0109586
-0.0112054
-0.0114991
-0.0118482
-0.0122589
-0.0127353
-0.0132794
-0.0138871
-0.0145426
-0.0152078
-0.0158076
-0.0162149
-0.0162402
-0.0156469
-0.0142114
-0.0117737
-0.00837528
-0.00434379
-0.000325819
0.00281071
0.0042726
0.00378129
0.00153034
-0.00286834
-0.0107314
-0.0115864
-0.0120026
-0.0122845
-0.0125193
-0.0127467
-0.0130064
-0.013329
-0.0137359
-0.0142446
-0.0148718
-0.0156349
-0.0165514
-0.0176349
-0.0188864
-0.0202784
-0.0217319
-0.0230891
-0.0240857
-0.0243503
-0.0235439
-0.0212731
-0.0174114
-0.0122012
-0.00637041
-0.00110828
0.00226182
0.00294338
0.000813917
-0.00482926
-0.0127872
-0.013729
-0.0141663
-0.0144454
-0.0146723
-0.0149011
-0.0151849
-0.0155647
-0.0160719
-0.0167343
-0.0175812
-0.0186461
-0.0199662
-0.0215781
-0.0235065
-0.0257424
-0.0282107
-0.0307297
-0.032977
-0.0344787
-0.0346201
-0.0328773
-0.0288621
-0.0226224
-0.014845
-0.00695999
-0.000880701
0.00182946
0.000379362
-0.00662022
-0.0150661
-0.0161238
-0.0165705
-0.0168158
-0.0169948
-0.0171827
-0.0174495
-0.0178492
-0.0184235
-0.0192111
-0.0202548
-0.0216052
-0.0233209
-0.025464
-0.0280861
-0.031201
-0.0347433
-0.038516
-0.0421431
-0.0450439
-0.0464355
-0.0455683
-0.0417836
-0.0348583
-0.0252903
-0.014571
-0.00511689
0.000580072
0.000622613
-0.00765738
-0.0176083
-0.018824
-0.0192546
-0.019412
-0.0194779
-0.0195579
-0.0197439
-0.0201036
-0.0206889
-0.0215483
-0.0227368
-0.0243211
-0.0263802
-0.0290001
-0.0322574
-0.0361872
-0.040735
-0.0456933
-0.0506443
-0.0549242
-0.0576294
-0.0578099
-0.0545584
-0.047352
-0.0363843
-0.0229801
-0.00980899
-0.000261704
0.00224918
-0.00689413
-0.0204899
-0.0219199
-0.0222826
-0.0222601
-0.0221113
-0.0219853
-0.0220002
-0.022237
-0.0227551
-0.02361
-0.024866
-0.0266025
-0.0289148
-0.0319076
-0.0356759
-0.0402691
-0.0456374
-0.051563
-0.0575956
-0.063018
-0.066863
-0.0679742
-0.0653106
-0.0580742
-0.0461132
-0.0303997
-0.0135215
0.000485709
0.00644094
-0.00261804
-0.0238571
-0.0255645
-0.0257537
-0.0253973
-0.0248811
-0.0244132
-0.0241395
-0.0241502
-0.0245067
-0.0252663
-0.0264977
-0.0282881
-0.030743
-0.033978
-0.0380965
-0.0431505
-0.0490857
-0.0556671
-0.0624168
-0.0685755
-0.0731174
-0.0748163
-0.0724897
-0.0651316
-0.0523022
-0.0345522
-0.0141067
0.00474691
0.0150489
0.00774153
-0.0279997
-0.0300145
-0.0298158
-0.0288689
-0.0277618
-0.026773
-0.0260688
-0.0257377
-0.0258332
-0.0264063
-0.0275234
-0.0292731
-0.0317642
-0.0351137
-0.0394221
-0.0447292
-0.0509711
-0.0578799
-0.0649458
-0.0713734
-0.0760886
-0.0778101
-0.07529
-0.067303
-0.0532359
-0.0332473
-0.00910542
0.015087
0.0307775
0.0277352
-0.0335107
-0.0356932
-0.0346702
-0.0327118
-0.0306968
-0.0289631
-0.0276704
-0.0268828
-0.0266292
-0.026943
-0.0278791
-0.0295203
-0.03197
-0.0353362
-0.039708
-0.0451034
-0.0514204
-0.0583605
-0.0653734
-0.0716172
-0.0759684
-0.0770923
-0.0735864
-0.0641836
-0.0480362
-0.0249514
0.00363399
0.0343981
0.0572185
0.0617926
-0.041666
-0.0432803
-0.0405371
-0.0368988
-0.0335461
-0.0308034
-0.0287628
-0.0274242
-0.0267667
-0.0267897
-0.0275241
-0.0290374
-0.0314172
-0.0347545
-0.0391105
-0.0444719
-0.0506933
-0.0574298
-0.06408
-0.0697462
-0.0732409
-0.073142
-0.067909
-0.0561086
-0.0366522
-0.00919705
0.0253318
0.0650833
0.0981773
0.114887
-0.0555376
-0.053855
-0.0475489
-0.0412114
-0.0359667
-0.0319285
-0.029008
-0.0270801
-0.0260338
-0.0258091
-0.0263977
-0.0278351
-0.0301827
-0.0335027
-0.0378214
-0.043083
-0.0490918
-0.0554489
-0.0614956
-0.0662751
-0.068531
-0.0667184
-0.0591269
-0.0440714
-0.0201395
0.0134419
0.0563787
0.107435
0.155636
0.193967
-0.082948
-0.0686279
-0.0556669
-0.0451309
-0.0372894
-0.0317119
-0.02789
-0.0254654
-0.0241754
-0.0238621
-0.0244557
-0.0259485
-0.0283666
-0.0317369
-0.0360466
-0.0411948
-0.046935
-0.0528147
-0.0581176
-0.0618242
-0.0626218
-0.0588654
-0.0486862
-0.0300153
-0.000932392
0.0401723
0.0940198
0.16071
0.230395
0.31292
-0.135313
-0.0839612
-0.0625919
-0.0462054
-0.0353092
-0.0284406
-0.0242097
-0.0217742
-0.0206571
-0.0205978
-0.0214694
-0.0232281
-0.0258722
-0.0294021
-0.0337763
-0.0388621
-0.0443807
-0.0498496
-0.0545266
-0.0573555
-0.0569341
-0.0516033
-0.0394432
-0.0179828
0.0153856
0.0637456
0.130161
0.219442
0.327914
0.497922
-0.307714
-0.0935773
-0.045158
-0.0274283
-0.0179672
-0.0133389
-0.0115935
-0.0113565
-0.0119983
-0.0133128
-0.0152553
-0.017843
-0.0211161
-0.0251037
-0.0297839
-0.0350387
-0.0406033
-0.0460143
-0.0505617
-0.0532528
-0.0527986
-0.0475187
-0.0352485
-0.0136522
0.0202328
0.070985
0.145279
0.260617
0.436205
0.780239
)
;

boundaryField
{
    movingWall
    {
        type            zeroGradient;
    }
    fixedWalls
    {
        type            zeroGradient;
    }
    frontAndBack
    {
        type            empty;
    }
}


// ************************************************************************* //
