/*--------------------------------*- C++ -*----------------------------------*\
  =========                 |
  \\      /  F ield         | OpenFOAM: The Open Source CFD Toolbox
   \\    /   O peration     | Website:  https://openfoam.org
    \\  /    A nd           | Version:  7
     \\/     M anipulation  |
\*---------------------------------------------------------------------------*/
FoamFile
{
    version     2.0;
    format      ascii;
    class       volVectorField;
    location    "5";
    object      U;
}
// * * * * * * * * * * * * * * * * * * * * * * * * * * * * * * * * * * * * * //

dimensions      [0 1 -1 0 0 0 0];

internalField   nonuniform List<vector> 
900
(
(6.50532e-05 -6.424e-05 0)
(3.76914e-05 9.51481e-06 0)
(-0.000268592 9.70653e-05 0)
(-0.000787302 0.000161249 0)
(-0.00145736 0.000200616 0)
(-0.00222088 0.000220663 0)
(-0.00303004 0.000227588 0)
(-0.00384932 0.000226046 0)
(-0.00465255 0.000218789 0)
(-0.00541915 0.000207051 0)
(-0.00613095 0.000191005 0)
(-0.00677002 0.000170164 0)
(-0.00731727 0.000143727 0)
(-0.00775212 0.000110887 0)
(-0.00805289 7.11129e-05 0)
(-0.00819806 2.44294e-05 0)
(-0.00816833 -2.8343e-05 0)
(-0.00794918 -8.54814e-05 0)
(-0.007534 -0.000144089 0)
(-0.00692707 -0.000200247 0)
(-0.00614617 -0.000249236 0)
(-0.00522411 -0.000285976 0)
(-0.00420867 -0.000305599 0)
(-0.00316074 -0.000304061 0)
(-0.00215049 -0.000278632 0)
(-0.00125222 -0.000228227 0)
(-0.000536899 -0.000154079 0)
(-6.11939e-05 -6.23282e-05 0)
(0.000137097 2.97255e-05 0)
(8.16065e-05 8.10327e-05 0)
(-7.6089e-06 -3.93526e-05 0)
(-0.00036895 0.000366427 0)
(-0.00132108 0.000793173 0)
(-0.00270798 0.00112558 0)
(-0.00441956 0.00134907 0)
(-0.00634473 0.00147671 0)
(-0.00838108 0.00152891 0)
(-0.0104445 0.00152395 0)
(-0.0124674 0.00147462 0)
(-0.0143934 0.00138807 0)
(-0.0161721 0.00126689 0)
(-0.0177554 0.00111057 0)
(-0.0190947 0.000917058 0)
(-0.0201401 0.000684362 0)
(-0.0208416 0.000412058 0)
(-0.021152 0.000102681 0)
(-0.0210309 -0.000237229 0)
(-0.0204505 -0.000595589 0)
(-0.0194017 -0.00095509 0)
(-0.0179006 -0.00129341 0)
(-0.0159931 -0.00158455 0)
(-0.0137577 -0.00180124 0)
(-0.011305 -0.00191804 0)
(-0.00877252 -0.00191476 0)
(-0.00631632 -0.00177973 0)
(-0.00409776 -0.00151262 0)
(-0.00226662 -0.00112802 0)
(-0.00093737 -0.000662893 0)
(-0.000168562 -0.000190733 0)
(3.6145e-05 0.000135631 0)
(-0.00010074 0.000270665 0)
(-0.000833315 0.0013277 0)
(-0.0024244 0.00234089 0)
(-0.00458973 0.00313919 0)
(-0.00717878 0.00369153 0)
(-0.0100493 0.00401734 0)
(-0.0130654 0.00415396 0)
(-0.016111 0.00413844 0)
(-0.0190893 0.00399908 0)
(-0.0219171 0.00375341 0)
(-0.0245195 0.00340934 0)
(-0.026825 0.00296793 0)
(-0.0287628 0.00242687 0)
(-0.0302618 0.00178411 0)
(-0.0312524 0.00104152 0)
(-0.0316701 0.00020831 0)
(-0.031461 -0.00069621 0)
(-0.0305892 -0.00164013 0)
(-0.0290459 -0.0025789 0)
(-0.0268567 -0.0034563 0)
(-0.0240882 -0.00420791 0)
(-0.0208513 -0.00476695 0)
(-0.0173004 -0.00507198 0)
(-0.013626 -0.00507551 0)
(-0.0100423 -0.00475251 0)
(-0.00676888 -0.00410798 0)
(-0.00400719 -0.00318483 0)
(-0.00190775 -0.00207424 0)
(-0.00055396 -0.000931233 0)
(-3.49781e-05 -3.22263e-05 0)
(-0.000179601 0.000827163 0)
(-0.0012517 0.00279777 0)
(-0.00343426 0.0045505 0)
(-0.00629961 0.00591167 0)
(-0.00965139 0.00685353 0)
(-0.0133209 0.0074097 0)
(-0.0171481 0.0076376 0)
(-0.0209958 0.00759472 0)
(-0.0247476 0.00732629 0)
(-0.0283019 0.00686154 0)
(-0.0315665 0.00621483 0)
(-0.0344531 0.00538975 0)
(-0.0368743 0.00438455 0)
(-0.0387432 0.00319822 0)
(-0.0399748 0.0018366 0)
(-0.0404905 0.000318156 0)
(-0.0402247 -0.001321 0)
(-0.0391336 -0.00302414 0)
(-0.0372058 -0.00471242 0)
(-0.034471 -0.0062872 0)
(-0.0310091 -0.00763608 0)
(-0.0269545 -0.00864306 0)
(-0.0224948 -0.00920194 0)
(-0.0178629 -0.00923174 0)
(-0.0133208 -0.00869178 0)
(-0.00913692 -0.00759486 0)
(-0.00555768 -0.0060183 0)
(-0.00276809 -0.00411416 0)
(-0.000885223 -0.00212044 0)
(-9.09734e-05 -0.00040411 0)
(-0.000241609 0.00159512 0)
(-0.00160746 0.00472657 0)
(-0.00431775 0.00735741 0)
(-0.00780644 0.00935694 0)
(-0.0118292 0.0107264 0)
(-0.0161909 0.0115265 0)
(-0.0207118 0.0118407 0)
(-0.0252393 0.0117498 0)
(-0.0296445 0.011317 0)
(-0.0338143 0.0105839 0)
(-0.037645 0.00957167 0)
(-0.0410367 0.00828642 0)
(-0.0438901 0.00672699 0)
(-0.0461051 0.00489342 0)
(-0.047583 0.00279588 0)
(-0.048231 0.000462992 0)
(-0.0479697 -0.00205077 0)
(-0.0467427 -0.00466016 0)
(-0.0445292 -0.00724692 0)
(-0.0413559 -0.00966293 0)
(-0.0373078 -0.011739 0)
(-0.0325353 -0.0132997 0)
(-0.0272545 -0.0141844 0)
(-0.0217386 -0.0142706 0)
(-0.016299 -0.0134978 0)
(-0.0112575 -0.011887 0)
(-0.0069115 -0.00955396 0)
(-0.00348715 -0.00671641 0)
(-0.00113813 -0.0036946 0)
(-0.000124415 -0.000929877 0)
(-0.000290087 0.0025398 0)
(-0.0019062 0.00705882 0)
(-0.00508044 0.0107007 0)
(-0.00912269 0.0134093 0)
(-0.0137421 0.0152381 0)
(-0.0187174 0.01629 0)
(-0.0238511 0.0166829 0)
(-0.0289794 0.0165249 0)
(-0.0339657 0.0158994 0)
(-0.0386905 0.0148609 0)
(-0.0430438 0.0134371 0)
(-0.0469185 0.0116359 0)
(-0.0502062 0.00945522 0)
(-0.0527956 0.00689476 0)
(-0.0545739 0.00396728 0)
(-0.0554314 0.000710366 0)
(-0.0552696 -0.00280342 0)
(-0.0540116 -0.00645897 0)
(-0.0516177 -0.0100947 0)
(-0.0481004 -0.0135061 0)
(-0.0435395 -0.0164568 0)
(-0.0380939 -0.018699 0)
(-0.0320058 -0.020003 0)
(-0.0255923 -0.0201921 0)
(-0.0192243 -0.0191773 0)
(-0.013292 -0.0169857 0)
(-0.00815991 -0.0137767 0)
(-0.00410812 -0.0098432 0)
(-0.00132887 -0.00559768 0)
(-0.000138979 -0.00156587 0)
(-0.000329222 0.00363174 0)
(-0.0021605 0.00974078 0)
(-0.00574384 0.0145181 0)
(-0.0102812 0.0180034 0)
(-0.0154389 0.0203224 0)
(-0.0209708 0.0216344 0)
(-0.0266639 0.0221011 0)
(-0.0323462 0.0218636 0)
(-0.0378773 0.0210283 0)
(-0.0431359 0.0196632 0)
(-0.04801 0.0178019 0)
(-0.052389 0.0154522 0)
(-0.0561583 0.0126088 0)
(-0.0591963 0.00926722 0)
(-0.061375 0.00543895 0)
(-0.0625637 0.00116657 0)
(-0.0626374 -0.00346232 0)
(-0.0614883 -0.00830412 0)
(-0.0590439 -0.0131518 0)
(-0.0552875 -0.0177374 0)
(-0.0502792 -0.0217451 0)
(-0.0441758 -0.0248367 0)
(-0.0372414 -0.0266923 0)
(-0.0298433 -0.0270597 0)
(-0.0224286 -0.0258056 0)
(-0.0154808 -0.022958 0)
(-0.00945809 -0.0187266 0)
(-0.00471581 -0.0134979 0)
(-0.00149113 -0.00780219 0)
(-0.000141341 -0.00228218 0)
(-0.000362403 0.00484969 0)
(-0.00238322 0.0127301 0)
(-0.00633338 0.0187591 0)
(-0.0113209 0.0230875 0)
(-0.0169735 0.0259295 0)
(-0.0230228 0.0275142 0)
(-0.0292425 0.0280569 0)
(-0.0354555 0.027738 0)
(-0.0415215 0.02669 0)
(-0.0473216 0.0249957 0)
(-0.0527462 0.0226936 0)
(-0.0576854 0.019789 0)
(-0.0620213 0.016269 0)
(-0.0656234 0.0121196 0)
(-0.0683474 0.00734438 0)
(-0.0700373 0.00198359 0)
(-0.0705333 -0.00386702 0)
(-0.0696835 -0.0100405 0)
(-0.0673648 -0.0162849 0)
(-0.0635105 -0.0222631 0)
(-0.0581396 -0.0275649 0)
(-0.051389 -0.0317382 0)
(-0.0435357 -0.0343415 0)
(-0.0350022 -0.0350134 0)
(-0.0263329 -0.0335493 0)
(-0.0181392 -0.0299654 0)
(-0.0110147 -0.0245308 0)
(-0.0054243 -0.0177546 0)
(-0.00166708 -0.0103293 0)
(-0.000138016 -0.00306946 0)
(-0.000391969 0.00617952 0)
(-0.00258509 0.0159968 0)
(-0.00687238 0.0233872 0)
(-0.0122782 0.0286247 0)
(-0.0183957 0.0320257 0)
(-0.024937 0.0339017 0)
(-0.0316653 0.0345317 0)
(-0.0384019 0.0341418 0)
(-0.0450104 0.0328949 0)
(-0.0513792 0.0308898 0)
(-0.0574061 0.0281691 0)
(-0.0629867 0.0247324 0)
(-0.0680042 0.0205541 0)
(-0.0723222 0.015603 0)
(-0.0757802 0.00986502 0)
(-0.0781937 0.00336682 0)
(-0.0793599 -0.00379961 0)
(-0.0790675 -0.0114549 0)
(-0.0771208 -0.0193072 0)
(-0.0733753 -0.0269476 0)
(-0.067778 -0.0338563 0)
(-0.0604162 -0.0394369 0)
(-0.0515611 -0.043082 0)
(-0.0416887 -0.0442702 0)
(-0.0314633 -0.0426791 0)
(-0.0216704 -0.0382874 0)
(-0.0130988 -0.0314304 0)
(-0.006379 -0.0227824 0)
(-0.0019075 -0.0132641 0)
(-0.000135434 -0.0039428 0)
(-0.000419441 0.00761241 0)
(-0.00277426 0.019521 0)
(-0.00737988 0.0283779 0)
(-0.0131833 0.0345902 0)
(-0.0197464 0.0385894 0)
(-0.026764 0.0407814 0)
(-0.0339919 0.0415189 0)
(-0.0412534 0.0410816 0)
(-0.0484209 0.0396672 0)
(-0.0553952 0.0373927 0)
(-0.0620876 0.034304 0)
(-0.0684059 0.030392 0)
(-0.0742408 0.0256121 0)
(-0.0794553 0.0199065 0)
(-0.0838759 0.0132305 0)
(-0.0872882 0.00558089 0)
(-0.0894403 -0.00297251 0)
(-0.0900456 -0.0122552 0)
(-0.0888095 -0.0219504 0)
(-0.0854751 -0.0315805 0)
(-0.0798742 -0.0405033 0)
(-0.0720008 -0.0479423 0)
(-0.062084 -0.0530657 0)
(-0.0506386 -0.0551162 0)
(-0.0384664 -0.0535786 0)
(-0.0265825 -0.0483438 0)
(-0.0160546 -0.0398108 0)
(-0.00776633 -0.0288723 0)
(-0.00227616 -0.0167731 0)
(-0.000140964 -0.00494645 0)
(-0.000445766 0.00914333 0)
(-0.00295668 0.0232915 0)
(-0.0078704 0.0337166 0)
(-0.0140595 0.0409689 0)
(-0.0210557 0.045607 0)
(-0.0285389 0.0481441 0)
(-0.0362603 0.0490173 0)
(-0.0440489 0.0485684 0)
(-0.051791 0.0470355 0)
(-0.059406 0.0445567 0)
(-0.0668265 0.0411816 0)
(-0.0739807 0.0368896 0)
(-0.0807757 0.0316103 0)
(-0.0870828 0.025249 0)
(-0.0927225 0.0177139 0)
(-0.0974535 0.00894933 0)
(-0.10097 -0.00102334 0)
(-0.102898 -0.0120556 0)
(-0.102817 -0.0238397 0)
(-0.100315 -0.0358432 0)
(-0.0950566 -0.0472941 0)
(-0.0868793 -0.0571994 0)
(-0.0759127 -0.0644293 0)
(-0.0626726 -0.067886 0)
(-0.0481001 -0.0667447 0)
(-0.0334958 -0.0607157 0)
(-0.0203152 -0.050234 0)
(-0.00982482 -0.0364715 0)
(-0.00285491 -0.0211277 0)
(-0.000163941 -0.0061615 0)
(-0.000471527 0.0107699 0)
(-0.00313665 0.0273029 0)
(-0.0083548 0.0393959 0)
(-0.0149234 0.0477516 0)
(-0.0223441 0.053069 0)
(-0.0302822 0.0559818 0)
(-0.0384871 0.0570239 0)
(-0.0467974 0.0566086 0)
(-0.0551185 0.0550216 0)
(-0.0633954 0.0524265 0)
(-0.0715903 0.0488783 0)
(-0.0796622 0.0443429 0)
(-0.0875466 0.0387189 0)
(-0.0951351 0.0318625 0)
(-0.102254 0.0236169 0)
(-0.108645 0.013848 0)
(-0.113941 0.00249374 0)
(-0.117679 -0.0103717 0)
(-0.119295 -0.0244827 0)
(-0.118173 -0.0392838 0)
(-0.113749 -0.0538819 0)
(-0.10563 -0.0670363 0)
(-0.0937634 -0.0772379 0)
(-0.0785949 -0.0829136 0)
(-0.0611721 -0.0827595 0)
(-0.0431193 -0.0761468 0)
(-0.0264024 -0.0634661 0)
(-0.0128522 -0.0462191 0)
(-0.00374789 -0.0267324 0)
(-0.000216428 -0.00771634 0)
(-0.000497153 0.0124917 0)
(-0.0033178 0.0315547 0)
(-0.00884207 0.0454135 0)
(-0.015788 0.0549325 0)
(-0.0236246 0.0609655 0)
(-0.0320026 0.0642819 0)
(-0.0406707 0.0655261 0)
(-0.0494807 0.0651943 0)
(-0.0583623 0.0636285 0)
(-0.067293 0.061024 0)
(-0.0762737 0.0574447 0)
(-0.0853051 0.0528433 0)
(-0.0943642 0.0470829 0)
(-0.103378 0.03996 0)
(-0.112195 0.0312327 0)
(-0.120549 0.0206581 0)
(-0.128034 0.00804651 0)
(-0.134088 -0.00666262 0)
(-0.137984 -0.023291 0)
(-0.13888 -0.0413176 0)
(-0.135926 -0.0597571 0)
(-0.128418 -0.0771073 0)
(-0.116019 -0.0914026 0)
(-0.0989909 -0.100441 0)
(-0.0783989 -0.102214 0)
(-0.0561743 -0.0955046 0)
(-0.034902 -0.0804802 0)
(-0.0172053 -0.0589757 0)
(-0.00508456 -0.0341553 0)
(-0.000313928 -0.00979909 0)
(-0.000523193 0.0143101 0)
(-0.00350429 0.036051 0)
(-0.00934208 0.0517713 0)
(-0.0166663 0.0625068 0)
(-0.0249083 0.0692826 0)
(-0.033702 0.0730215 0)
(-0.0427962 0.0744939 0)
(-0.0520585 0.0742925 0)
(-0.0614469 0.0728261 0)
(-0.0709777 0.0703297 0)
(-0.080698 0.0668817 0)
(-0.0906608 0.0624245 0)
(-0.100897 0.0567835 0)
(-0.111386 0.0496864 0)
(-0.122013 0.0407861 0)
(-0.13253 0.0296972 0)
(-0.142504 0.0160537 0)
(-0.151285 -0.000395574 0)
(-0.157995 -0.0196415 0)
(-0.161558 -0.0412667 0)
(-0.160805 -0.0642489 0)
(-0.154658 -0.0868421 0)
(-0.142385 -0.106576 0)
(-0.123916 -0.120474 0)
(-0.100162 -0.125559 0)
(-0.0732456 -0.119668 0)
(-0.0464015 -0.10241 0)
(-0.023289 -0.0758334 0)
(-0.00702255 -0.0441558 0)
(-0.000476718 -0.0126716 0)
(-0.000550657 0.0162289 0)
(-0.0037026 0.0408015 0)
(-0.00986918 0.0584758 0)
(-0.0175767 0.0704699 0)
(-0.0262103 0.0779997 0)
(-0.0353835 0.0821621 0)
(-0.0448441 0.0838725 0)
(-0.0544768 0.0838348 0)
(-0.064271 0.0825366 0)
(-0.0742851 0.0802624 0)
(-0.0846176 0.0771129 0)
(-0.0953802 0.0730252 0)
(-0.106668 0.067788 0)
(-0.118524 0.0610537 0)
(-0.13089 0.0523537 0)
(-0.143554 0.0411289 0)
(-0.156086 0.0267907 0)
(-0.167782 0.00883205 0)
(-0.177643 -0.0129961 0)
(-0.184391 -0.0384568 0)
(-0.186556 -0.0665751 0)
(-0.182665 -0.0954262 0)
(-0.171506 -0.122046 0)
(-0.152504 -0.142593 0)
(-0.126168 -0.152869 0)
(-0.0945396 -0.149312 0)
(-0.0613707 -0.13042 0)
(-0.0315282 -0.0980827 0)
(-0.00975126 -0.0577043 0)
(-0.000732828 -0.0166858 0)
(-0.000581499 0.0182566 0)
(-0.0039238 0.0458246 0)
(-0.0104472 0.0655408 0)
(-0.0185497 0.0788181 0)
(-0.0275586 0.0870877 0)
(-0.0370605 0.0916462 0)
(-0.0468003 0.0935753 0)
(-0.0566801 0.0937068 0)
(-0.0667205 0.0926199 0)
(-0.0770226 0.0906588 0)
(-0.0877361 0.0879554 0)
(-0.0990326 0.0844484 0)
(-0.111073 0.0798934 0)
(-0.123971 0.0738658 0)
(-0.137736 0.0657644 0)
(-0.152215 0.054833 0)
(-0.167013 0.0402217 0)
(-0.18143 0.0211125 0)
(-0.194412 -0.00307326 0)
(-0.204553 -0.032373 0)
(-0.210171 -0.0659553 0)
(-0.209449 -0.10184 0)
(-0.20067 -0.136672 0)
(-0.182607 -0.165768 0)
(-0.155057 -0.183547 0)
(-0.119549 -0.184577 0)
(-0.0799601 -0.165448 0)
(-0.0423046 -0.127106 0)
(-0.013494 -0.0759825 0)
(-0.00112355 -0.0223035 0)
(-0.000619315 0.0204091 0)
(-0.00418673 0.0511541 0)
(-0.0111157 0.0729925 0)
(-0.0196373 0.0875507 0)
(-0.0290037 0.0965086 0)
(-0.0387676 0.101394 0)
(-0.0486685 0.103478 0)
(-0.0586245 0.10374 0)
(-0.0686858 0.102862 0)
(-0.0789917 0.101257 0)
(-0.0897372 0.0990961 0)
(-0.101146 0.0963274 0)
(-0.113438 0.0926796 0)
(-0.126794 0.087654 0)
(-0.141295 0.0805149 0)
(-0.156865 0.0702999 0)
(-0.173184 0.0558789 0)
(-0.189623 0.0360925 0)
(-0.205174 0.00998966 0)
(-0.218429 -0.0228255 0)
(-0.227651 -0.0617707 0)
(-0.230824 -0.104982 0)
(-0.225794 -0.148919 0)
(-0.210611 -0.188253 0)
(-0.184078 -0.216051 0)
(-0.146675 -0.224658 0)
(-0.101699 -0.207809 0)
(-0.0558279 -0.164147 0)
(-0.0185007 -0.100341 0)
(-0.00171174 -0.0301187 0)
(-0.000670441 0.0227157 0)
(-0.00452256 0.0568476 0)
(-0.0119384 0.0808772 0)
(-0.0209225 0.0966751 0)
(-0.0306299 0.106216 0)
(-0.0405722 0.1113 0)
(-0.050482 0.113417 0)
(-0.0602927 0.113708 0)
(-0.0700808 0.112969 0)
(-0.0800155 0.111688 0)
(-0.090325 0.110081 0)
(-0.101269 0.108111 0)
(-0.113112 0.105488 0)
(-0.126084 0.101647 0)
(-0.140336 0.09573 0)
(-0.155878 0.0865787 0)
(-0.172506 0.0727948 0)
(-0.189736 0.0528866 0)
(-0.206729 0.0255314 0)
(-0.222227 -0.0100638 0)
(-0.234647 -0.0537454 0)
(-0.242001 -0.103871 0)
(-0.241875 -0.15704 0)
(-0.231677 -0.207658 0)
(-0.209064 -0.247766 0)
(-0.172952 -0.267432 0)
(-0.12514 -0.256666 0)
(-0.0719171 -0.209913 0)
(-0.0250188 -0.132178 0)
(-0.00259346 -0.0408784 0)
(-0.000745878 0.0252274 0)
(-0.00498176 0.0630015 0)
(-0.0130149 0.0892727 0)
(-0.0225328 0.106211 0)
(-0.0325672 0.116157 0)
(-0.0425839 0.121233 0)
(-0.0523124 0.123183 0)
(-0.0617039 0.123323 0)
(-0.070858 0.122568 0)
(-0.0799647 0.121481 0)
(-0.0892685 0.120324 0)
(-0.0990448 0.119079 0)
(-0.109577 0.117444 0)
(-0.121127 0.114804 0)
(-0.133902 0.1102 0)
(-0.148002 0.102315 0)
(-0.163368 0.0895264 0)
(-0.179721 0.0700596 0)
(-0.196512 0.0422586 0)
(-0.212869 0.00494343 0)
(-0.227494 -0.0421903 0)
(-0.238638 -0.0979549 0)
(-0.243993 -0.159431 0)
(-0.240558 -0.221294 0)
(-0.224921 -0.275181 0)
(-0.194143 -0.30931 0)
(-0.14762 -0.309532 0)
(-0.0897172 -0.263998 0)
(-0.0332298 -0.172681 0)
(-0.00391284 -0.0554901 0)
(-0.000865014 0.0280312 0)
(-0.00564561 0.0697712 0)
(-0.0144973 0.0983016 0)
(-0.0246557 0.116196 0)
(-0.0350008 0.126265 0)
(-0.044959 0.131031 0)
(-0.0542693 0.132521 0)
(-0.0629113 0.132239 0)
(-0.0710092 0.131217 0)
(-0.0787658 0.130085 0)
(-0.0864266 0.129145 0)
(-0.0942611 0.128398 0)
(-0.102548 0.127536 0)
(-0.11156 0.125918 0)
(-0.121544 0.122518 0)
(-0.132691 0.115916 0)
(-0.145105 0.104339 0)
(-0.158768 0.085818 0)
(-0.173495 0.0584418 0)
(-0.188881 0.0207115 0)
(-0.204136 -0.0280676 0)
(-0.218026 -0.0873983 0)
(-0.228606 -0.155131 0)
(-0.232868 -0.226794 0)
(-0.2267 -0.294494 0)
(-0.205402 -0.345564 0)
(-0.165395 -0.362067 0)
(-0.107472 -0.32424 0)
(-0.0431484 -0.222389 0)
(-0.00588058 -0.0750033 0)
(-0.00106334 0.0312732 0)
(-0.00664661 0.0773999 0)
(-0.016615 0.108145 0)
(-0.0275561 0.12668 0)
(-0.038177 0.136455 0)
(-0.0478909 0.140483 0)
(-0.056479 0.141118 0)
(-0.0639725 0.140051 0)
(-0.0705308 0.138416 0)
(-0.0763684 0.136897 0)
(-0.0817223 0.13582 0)
(-0.086841 0.135201 0)
(-0.0919815 0.134738 0)
(-0.0974097 0.133781 0)
(-0.103399 0.131287 0)
(-0.110228 0.125801 0)
(-0.118171 0.115498 0)
(-0.127482 0.0983235 0)
(-0.13837 0.0722327 0)
(-0.150936 0.0355113 0)
(-0.165007 -0.0129085 0)
(-0.180026 -0.0732313 0)
(-0.194665 -0.144246 0)
(-0.206367 -0.222845 0)
(-0.210914 -0.302543 0)
(-0.202392 -0.3712 0)
(-0.174269 -0.408468 0)
(-0.122537 -0.386345 0)
(-0.054484 -0.280606 0)
(-0.00878734 -0.100552 0)
(-0.00140912 0.0352019 0)
(-0.00820591 0.0862605 0)
(-0.019712 0.119055 0)
(-0.031594 0.137713 0)
(-0.0423918 0.146587 0)
(-0.0515722 0.149307 0)
(-0.0590211 0.148581 0)
(-0.0648645 0.146282 0)
(-0.0693217 0.143614 0)
(-0.0726285 0.141288 0)
(-0.0750146 0.139638 0)
(-0.0767035 0.138683 0)
(-0.0779242 0.138132 0)
(-0.0789276 0.137356 0)
(-0.0800072 0.135341 0)
(-0.0815173 0.130671 0)
(-0.0838881 0.121564 0)
(-0.0876317 0.105997 0)
(-0.093318 0.0819072 0)
(-0.101524 0.0474734 0)
(-0.112724 0.00134257 0)
(-0.127026 -0.0572345 0)
(-0.143869 -0.128057 0)
(-0.161558 -0.209662 0)
(-0.176456 -0.297708 0)
(-0.182364 -0.382148 0)
(-0.170517 -0.442499 0)
(-0.131731 -0.444101 0)
(-0.0664709 -0.344828 0)
(-0.0129825 -0.133246 0)
(-0.00203981 0.0402462 0)
(-0.0107029 0.0969103 0)
(-0.0242994 0.131344 0)
(-0.0372288 0.149291 0)
(-0.047938 0.156402 0)
(-0.056086 0.157072 0)
(-0.0617712 0.154382 0)
(-0.0652841 0.150343 0)
(-0.0669441 0.146188 0)
(-0.0670325 0.142613 0)
(-0.0657854 0.139932 0)
(-0.0634103 0.138158 0)
(-0.0601126 0.137014 0)
(-0.0561282 0.135912 0)
(-0.0517636 0.133913 0)
(-0.0474324 0.129702 0)
(-0.0436871 0.121629 0)
(-0.0412529 0.107802 0)
(-0.0409968 0.0862389 0)
(-0.043881 0.0551145 0)
(-0.0508748 0.0129105 0)
(-0.062701 -0.0414814 0)
(-0.0796699 -0.108734 0)
(-0.101094 -0.188979 0)
(-0.124496 -0.280347 0)
(-0.144521 -0.37622 0)
(-0.15154 -0.458759 0)
(-0.131845 -0.490245 0)
(-0.0776833 -0.410421 0)
(-0.0187545 -0.173963 0)
(-0.00323948 0.0471688 0)
(-0.0147998 0.110153 0)
(-0.0311103 0.145321 0)
(-0.044958 0.161226 0)
(-0.0549253 0.165376 0)
(-0.0611213 0.163074 0)
(-0.0640257 0.157738 0)
(-0.0641925 0.151441 0)
(-0.0620992 0.145372 0)
(-0.0581091 0.140158 0)
(-0.0524896 0.13606 0)
(-0.0454496 0.133066 0)
(-0.0371827 0.130911 0)
(-0.0279082 0.129059 0)
(-0.0179355 0.126682 0)
(-0.00770747 0.122618 0)
(0.00215515 0.115401 0)
(0.0107842 0.103339 0)
(0.0171116 0.0846318 0)
(0.0199146 0.0575387 0)
(0.0178715 0.0204945 0)
(0.00980509 -0.0278619 0)
(-0.00538882 -0.0888192 0)
(-0.0280634 -0.163531 0)
(-0.0572201 -0.252556 0)
(-0.0893528 -0.353403 0)
(-0.115784 -0.453588 0)
(-0.119874 -0.517521 0)
(-0.0858294 -0.470638 0)
(-0.0260236 -0.222926 0)
(-0.0055942 0.0573717 0)
(-0.0216406 0.12707 0)
(-0.0410751 0.161084 0)
(-0.0550138 0.172853 0)
(-0.0627264 0.172422 0)
(-0.0652137 0.166056 0)
(-0.0635805 0.157378 0)
(-0.0587709 0.14838 0)
(-0.0514897 0.140097 0)
(-0.0422217 0.133018 0)
(-0.0312897 0.127303 0)
(-0.0189172 0.122889 0)
(-0.00529161 0.11951 0)
(0.00939693 0.11669 0)
(0.0248639 0.113712 0)
(0.0406696 0.109597 0)
(0.0561878 0.103106 0)
(0.070524 0.0927854 0)
(0.0825256 0.0770839 0)
(0.0908246 0.0544227 0)
(0.0938819 0.0232959 0)
(0.0901186 -0.0177498 0)
(0.077992 -0.0703269 0)
(0.0562237 -0.136118 0)
(0.0241262 -0.217378 0)
(-0.017152 -0.315476 0)
(-0.0618074 -0.42535 0)
(-0.0925681 -0.519315 0)
(-0.0874753 -0.516786 0)
(-0.0338106 -0.279096 0)
(-0.0102706 0.0735469 0)
(-0.0330755 0.148897 0)
(-0.0548462 0.177961 0)
(-0.0661866 0.182383 0)
(-0.0682751 0.175298 0)
(-0.0636878 0.16372 0)
(-0.0544615 0.151153 0)
(-0.0420545 0.139264 0)
(-0.0274397 0.128776 0)
(-0.0112271 0.11994 0)
(0.00621952 0.112756 0)
(0.0246846 0.107069 0)
(0.0440205 0.102589 0)
(0.0640869 0.0988885 0)
(0.0846689 0.0953546 0)
(0.105404 0.0911944 0)
(0.125731 0.0854122 0)
(0.144821 0.0768332 0)
(0.161555 0.0641752 0)
(0.174543 0.0460968 0)
(0.182138 0.0212556 0)
(0.182509 -0.0117374 0)
(0.173749 -0.0544325 0)
(0.153871 -0.108771 0)
(0.120932 -0.177704 0)
(0.0735715 -0.265372 0)
(0.0132329 -0.374419 0)
(-0.045109 -0.49007 0)
(-0.0776827 -0.538636 0)
(-0.039652 -0.339941 0)
(-0.0193409 0.10058 0)
(-0.0513353 0.175793 0)
(-0.0701968 0.192972 0)
(-0.0715624 0.185503 0)
(-0.0609441 0.16952 0)
(-0.0432716 0.151986 0)
(-0.0216718 0.135602 0)
(0.00195963 0.1213 0)
(0.0265257 0.109264 0)
(0.0514448 0.0993816 0)
(0.076446 0.0914261 0)
(0.101433 0.0851126 0)
(0.126391 0.0801076 0)
(0.151306 0.0760095 0)
(0.176099 0.0723139 0)
(0.20055 0.0684007 0)
(0.224235 0.0635152 0)
(0.246468 0.0567742 0)
(0.266256 0.0471966 0)
(0.282296 0.0337351 0)
(0.292928 0.0153149 0)
(0.2962 -0.0092109 0)
(0.289939 -0.0411122 0)
(0.271628 -0.0821791 0)
(0.238392 -0.135263 0)
(0.187067 -0.205744 0)
(0.114975 -0.302217 0)
(0.0309311 -0.426425 0)
(-0.0491042 -0.525822 0)
(-0.0386589 -0.399928 0)
(-0.0345403 0.144359 0)
(-0.0733687 0.200446 0)
(-0.0693904 0.194861 0)
(-0.0440687 0.171135 0)
(-0.00877217 0.145828 0)
(0.0299146 0.123692 0)
(0.0687247 0.105473 0)
(0.106192 0.0908116 0)
(0.141746 0.0791364 0)
(0.1753 0.0699062 0)
(0.207003 0.0626586 0)
(0.237104 0.0569951 0)
(0.265869 0.0525521 0)
(0.293521 0.0489689 0)
(0.320181 0.0458543 0)
(0.345817 0.0427647 0)
(0.370185 0.0391875 0)
(0.392773 0.034538 0)
(0.41276 0.0281703 0)
(0.429002 0.0193868 0)
(0.439936 0.00743464 0)
(0.443694 -0.00844062 0)
(0.437943 -0.029051 0)
(0.419866 -0.0557322 0)
(0.385963 -0.0906889 0)
(0.332254 -0.138806 0)
(0.252488 -0.210938 0)
(0.148952 -0.325849 0)
(0.01298 -0.466167 0)
(-0.0177796 -0.441281 0)
(-0.0374759 0.236132 0)
(-0.0472765 0.204072 0)
(0.0283765 0.153592 0)
(0.10048 0.117652 0)
(0.167613 0.0908543 0)
(0.227675 0.0710915 0)
(0.280339 0.0567646 0)
(0.326349 0.0463227 0)
(0.366735 0.0386046 0)
(0.402503 0.0328403 0)
(0.434543 0.0285137 0)
(0.463606 0.0252542 0)
(0.490307 0.0227723 0)
(0.515118 0.0208199 0)
(0.538349 0.0191607 0)
(0.560125 0.0175498 0)
(0.580353 0.0157217 0)
(0.598686 0.0133867 0)
(0.614477 0.0102362 0)
(0.626761 0.00595796 0)
(0.634207 0.000230028 0)
(0.635331 -0.00724653 0)
(0.627925 -0.0169783 0)
(0.609412 -0.0295759 0)
(0.57608 -0.0461328 0)
(0.524135 -0.0698046 0)
(0.443809 -0.108553 0)
(0.333914 -0.189165 0)
(0.143208 -0.336464 0)
(0.0605005 -0.413091 0)
(0.231291 0.158576 0)
(0.291536 0.117174 0)
(0.441238 0.076003 0)
(0.540242 0.0506696 0)
(0.60735 0.0343113 0)
(0.656813 0.0235138 0)
(0.694763 0.0164806 0)
(0.724552 0.0119134 0)
(0.748523 0.00891113 0)
(0.768339 0.00690746 0)
(0.785149 0.00555503 0)
(0.799758 0.00463342 0)
(0.812735 0.00399456 0)
(0.824474 0.00353126 0)
(0.835213 0.00315745 0)
(0.845045 0.00279597 0)
(0.853908 0.0023713 0)
(0.861579 0.00180695 0)
(0.867661 0.00102628 0)
(0.871591 -3.6743e-05 0)
(0.872603 -0.00142132 0)
(0.869745 -0.00314394 0)
(0.86174 -0.00541862 0)
(0.84743 -0.00836173 0)
(0.824281 -0.0121548 0)
(0.790532 -0.0177696 0)
(0.734589 -0.0273264 0)
(0.656876 -0.0493232 0)
(0.454488 -0.110258 0)
(0.313251 -0.177584 0)
)
;

boundaryField
{
    movingWall
    {
        type            fixedValue;
        value           uniform (1 0 0);
    }
    fixedWalls
    {
        type            noSlip;
    }
    frontAndBack
    {
        type            empty;
    }
}


// ************************************************************************* //
