/*--------------------------------*- C++ -*----------------------------------*\
  =========                 |
  \\      /  F ield         | OpenFOAM: The Open Source CFD Toolbox
   \\    /   O peration     | Website:  https://openfoam.org
    \\  /    A nd           | Version:  7
     \\/     M anipulation  |
\*---------------------------------------------------------------------------*/
FoamFile
{
    version     2.0;
    format      ascii;
    class       volScalarField;
    location    "0.67";
    object      p;
}
// * * * * * * * * * * * * * * * * * * * * * * * * * * * * * * * * * * * * * //

dimensions      [0 2 -2 0 0 0 0];

internalField   nonuniform List<scalar> 
1936
(
-2.45211e-05
-3017.63
-6777.21
-6586.86
-5847.75
-5862.98
-5427.29
-4693.4
-4197.29
-4161.95
-4664.55
-6317.66
-7469.47
-5858.06
-3824.42
-3358.89
-3688.65
-5760.21
-7734.09
-6285.16
-3982.42
-3327.88
-3358.82
-4463.18
-6862.53
-7309.75
-4968.61
-3423.84
-3315.77
-3948.2
-6422.17
-7834.35
-5658.7
-3582.09
-3252.84
-3553.94
-5553.02
-7691.93
-6444.62
-3938.54
-3218.67
-3290.55
-4614.02
-7406.82
-102.334
-3016.99
-6717.72
-6545.04
-5830.5
-5844.31
-5416.58
-4703.4
-4230.68
-4199.28
-4675.99
-6285.56
-7415.61
-5832.96
-3856.51
-3425.4
-3721.91
-5712.59
-7660.66
-6251.36
-3996.06
-3381.4
-3415.8
-4475.31
-6823.47
-7254.64
-4959.51
-3476.47
-3377.43
-3960.23
-6368.96
-7763.74
-5629.24
-3616.21
-3317.23
-3592.71
-5528.15
-7627.13
-6398.9
-3952.97
-3280.62
-3345.03
-4609.58
-7348.75
-417.637
-3025.79
-6502.63
-6433.61
-5793.04
-5783.6
-5386.52
-4734.59
-4314.88
-4291.1
-4724.2
-6203.8
-7240.63
-5772.37
-3959.81
-3583.57
-3820.72
-5596.39
-7426.52
-6166.52
-4062.25
-3508.19
-3562.27
-4536.21
-6703.39
-7078.08
-4956.65
-3617.98
-3521.63
-4018.5
-6228.49
-7535.93
-5568.17
-3722.48
-3466.11
-3710.11
-5478.81
-7417.14
-6274.2
-4019.51
-3426.82
-3485.56
-4630.96
-7167.21
-852.285
-3063.08
-6191.08
-6262.71
-5739.34
-5699.06
-5344.22
-4781.19
-4432.57
-4418.94
-4798.62
-6083.33
-6972.04
-5683.37
-4110.36
-3799.14
-3974.15
-5452.63
-7076.59
-6035.68
-4174.45
-3691.61
-3762.8
-4619.73
-6510.66
-6807.42
-4956.25
-3814.12
-3721.83
-4122.54
-6034.42
-7191.15
-5484.64
-3882.93
-3672.67
-3881.51
-5410.19
-7095.61
-6091.47
-4127.45
-3631.17
-3685.4
-4671.46
-6888.94
-1351.24
-3135.52
-5838.62
-6046.73
-5662.78
-5599.73
-5297.09
-4837.65
-4564.57
-4559.59
-4882.1
-5941.1
-6654.7
-5578.84
-4280.54
-4032.9
-4156.04
-5311.82
-6672.71
-5876.69
-4316.37
-3906.07
-3981.7
-4704.65
-6274.24
-6488.11
-4953.49
-4027.42
-3944.86
-4256.74
-5822.44
-6789.28
-5390.05
-4070.31
-3903.05
-4075.84
-5330.57
-6717.05
-5880.96
-4257.91
-3860.25
-3909.6
-4720.72
-6560.87
-1876.76
-3246.27
-5486.39
-5802.43
-5561.15
-5493.09
-5249.74
-4897.89
-4695.27
-4696.84
-4961.45
-5789.65
-6323.69
-5468.66
-4451.86
-4260.2
-4343.49
-5194.34
-6266.89
-5702.6
-4470.19
-4130.03
-4195.99
-4780.55
-6017.52
-6156.71
-4948.13
-4233.77
-4167.73
-4405.87
-5617.49
-6377.71
-5294.04
-4262.69
-4134
-4270.65
-5247.35
-6324.82
-5665.7
-4397.1
-4089.99
-4132.54
-4772.99
-6219.94
-2400.57
-3395.95
-5164.64
-5547.27
-5437.73
-5384.54
-5204.86
-4954.57
-4812.59
-4818.32
-5028.2
-5639.53
-6006.87
-5362.79
-4610.05
-4465.72
-4518.61
-5110.01
-5897.78
-5526.38
-4618.48
-4344.84
-4392.55
-4844.48
-5761.27
-5841.91
-4944.02
-4420.16
-4373.75
-4553.24
-5435.91
-5993.01
-5204.74
-4443.16
-4347.99
-4449.61
-5169.01
-5953.64
-5464.26
-4532.36
-4303.82
-4337.98
-4824.12
-5894.17
-2899.82
-3578.95
-4896.01
-5300.31
-5300.11
-5277.37
-5161.93
-5000.75
-4908.98
-4916.83
-5077.6
-5496.7
-5725.16
-5269.57
-4745.97
-4640.22
-4670.56
-5058.5
-5589.31
-5362.06
-4745.27
-4535.46
-4564.17
-4895.71
-5525.08
-5565.2
-4945.14
-4579.96
-4552.25
-4685.48
-5284.52
-5660.4
-5128.5
-4600.17
-4532.59
-4603.28
-5102.11
-5628.98
-5289.43
-4654.2
-4490.95
-4516.55
-4869.5
-5605.1
-3350.81
-3784.74
-4697.55
-5080.49
-5159.03
-5174.31
-5119.12
-5031.42
-4980.09
-4989.71
-5105.28
-5367.07
-5491.65
-5193.21
-4855.85
-4778.94
-4793.4
-5031.94
-5352.5
-5222.7
-4842.65
-4692.08
-4707.26
-4932.48
-5324.7
-5340.95
-4950.18
-4711.36
-4697.01
-4792.81
-5165.5
-5395
-5066.94
-4728.31
-4681.22
-4728.54
-5047.74
-5367.62
-5150.13
-4755.46
-4644.57
-4663.43
-4905.23
-5366.54
-3730.9
-3995.92
-4579.13
-4905.14
-5027.64
-5078.55
-5074.84
-5043.97
-5024.36
-5035.99
-5111.31
-5255.97
-5311.64
-5135.17
-4936.4
-4881.88
-4886.37
-5018.5
-5187.08
-5117.57
-4908.82
-4811.29
-4818.07
-4954.44
-5170.94
-5175.14
-4955.28
-4813.18
-4805.69
-4871.3
-5078.59
-5201.88
-5020.73
-4825.3
-4792.39
-4823.15
-5006.04
-5176.09
-5050.04
-4831.08
-4762.97
-4777.49
-4927.69
-5185.58
-4028.97
-4189.95
-4535.94
-4786.11
-4919.33
-4994.95
-5029.55
-5039.09
-5043.29
-5056.86
-5099.8
-5167.09
-5184.21
-5092.31
-4987.44
-4950.84
-4949.69
-5010.99
-5083.83
-5048.91
-4948.61
-4893.16
-4894.49
-4964.6
-5066.64
-5065.68
-4958.32
-4884.46
-4881.04
-4920.81
-5020.82
-5076.2
-4989.37
-4890.64
-4869.33
-4887.06
-4976.54
-5051.28
-4987.04
-4881.74
-4846.5
-4857.53
-4938.46
-5062.47
-4249.85
-4350.41
-4546.58
-4723.17
-4843.8
-4929.22
-4986.45
-5021.12
-5041.13
-5056.14
-5076.96
-5100.89
-5101.37
-5060.51
-5012.58
-4990.41
-4985.94
-5005.96
-5027.98
-5010.91
-4969.18
-4941.94
-4939.68
-4967.53
-5005.7
-5003.03
-4959.34
-4927.77
-4927.1
-4947.15
-4986.61
-5005.52
-4970.65
-4928.72
-4916.61
-4924.16
-4958.18
-4981.95
-4953.72
-4912.13
-4898.62
-4906.21
-4941.75
-4989.88
-4406.39
-4473.4
-4586.71
-4703.25
-4802.16
-4884.62
-4949.71
-4996.14
-5025.14
-5040.51
-5049.23
-5054.2
-5051.05
-5036.41
-5018.69
-5007.36
-5001.53
-5002.01
-5002.38
-4993.38
-4977.93
-4965.99
-4961.66
-4967.16
-4975.96
-4973.19
-4959.32
-4949.84
-4950.67
-4958.15
-4969.01
-4972.49
-4961.18
-4947.16
-4941.31
-4941.98
-4948.96
-4951.27
-4940.4
-4928.56
-4926.55
-4930.78
-4941.76
-4954.42
-4520.31
-4563.73
-4632.9
-4710.59
-4787.23
-4858.85
-4921.02
-4968.69
-4999.75
-5015.7
-5021.44
-5022.14
-5020.8
-5017.97
-5014.06
-5009.59
-5004.18
-4998.27
-4992.29
-4986.31
-4980.33
-4974.72
-4969.68
-4966.29
-4964.63
-4962.32
-4959.61
-4958.82
-4959.91
-4961.12
-4961.46
-4960.31
-4957.4
-4954.17
-4951.59
-4948.92
-4946.06
-4942.21
-4938.06
-4936.9
-4938.93
-4940.55
-4941.27
-4941.35
-4607.42
-4633.51
-4676.86
-4729.53
-4787.58
-4845.9
-4899.22
-4942.25
-4971.96
-4988.78
-4996.25
-4999.15
-5001.16
-5003.34
-5004.72
-5003.94
-4999.98
-4993.97
-4987.85
-4983.08
-4979.54
-4975.79
-4970.97
-4965.76
-4961.7
-4959.89
-4960.2
-4961.36
-4962.01
-4961.01
-4958.95
-4957.23
-4956.47
-4956.1
-4954.64
-4951.23
-4946.48
-4942.14
-4940.24
-4941.24
-4943.3
-4943.52
-4941.42
-4938.95
-4676.43
-4691.01
-4717.78
-4753.34
-4795.27
-4840.2
-4882.87
-4919.03
-4945.98
-4963.64
-4974.17
-4980.74
-4985.87
-4990.39
-4993.63
-4994.49
-4992.53
-4988.59
-4984.18
-4980.43
-4977.33
-4974.03
-4969.91
-4965.54
-4962.17
-4960.65
-4960.83
-4961.58
-4961.54
-4960.21
-4958.34
-4956.97
-4956.55
-4956.29
-4955.03
-4952.16
-4948.37
-4945.13
-4943.65
-4943.97
-4944.71
-4944.12
-4942.16
-4940.2
-4731.02
-4739.06
-4755.28
-4778.56
-4807.51
-4839.69
-4872.05
-4900.98
-4924.47
-4942.07
-4954.76
-4964.16
-4971.58
-4977.53
-4981.75
-4983.84
-4983.74
-4982.01
-4979.52
-4976.93
-4974.35
-4971.54
-4968.41
-4965.32
-4962.92
-4961.62
-4961.23
-4961.11
-4960.6
-4959.53
-4958.27
-4957.3
-4956.72
-4956.08
-4954.82
-4952.73
-4950.21
-4947.97
-4946.57
-4946
-4945.63
-4944.77
-4943.48
-4942.43
-4773.53
-4778.2
-4788.12
-4803.04
-4822.29
-4844.42
-4867.49
-4889.49
-4908.88
-4925.05
-4938.17
-4948.79
-4957.42
-4964.3
-4969.38
-4972.62
-4974.13
-4974.28
-4973.54
-4972.26
-4970.63
-4968.72
-4966.65
-4964.67
-4963.08
-4962
-4961.3
-4960.71
-4960.01
-4959.16
-4958.28
-4957.51
-4956.81
-4956
-4954.87
-4953.37
-4951.68
-4950.09
-4948.8
-4947.83
-4946.99
-4946.1
-4945.26
-4944.68
-4806.23
-4809.15
-4815.41
-4824.99
-4837.56
-4852.36
-4868.33
-4884.36
-4899.47
-4913.12
-4925.1
-4935.44
-4944.2
-4951.42
-4957.1
-4961.27
-4964.07
-4965.7
-4966.44
-4966.5
-4966.06
-4965.26
-4964.26
-4963.23
-4962.31
-4961.54
-4960.89
-4960.26
-4959.6
-4958.91
-4958.22
-4957.56
-4956.88
-4956.11
-4955.17
-4954.07
-4952.88
-4951.71
-4950.62
-4949.65
-4948.77
-4948
-4947.39
-4947
-4831.16
-4833.09
-4837.17
-4843.42
-4851.66
-4861.49
-4872.39
-4883.75
-4895.07
-4905.88
-4915.91
-4925.01
-4933.08
-4940.05
-4945.87
-4950.56
-4954.2
-4956.9
-4958.79
-4960.03
-4960.73
-4961.02
-4961.03
-4960.85
-4960.59
-4960.28
-4959.93
-4959.53
-4959.08
-4958.6
-4958.09
-4957.57
-4957.01
-4956.37
-4955.65
-4954.85
-4954
-4953.14
-4952.31
-4951.52
-4950.81
-4950.21
-4949.76
-4949.5
-4849.94
-4851.27
-4853.99
-4858.15
-4863.63
-4870.24
-4877.7
-4885.71
-4893.96
-4902.19
-4910.17
-4917.7
-4924.66
-4930.95
-4936.5
-4941.28
-4945.31
-4948.64
-4951.32
-4953.43
-4955.05
-4956.25
-4957.11
-4957.71
-4958.1
-4958.33
-4958.43
-4958.41
-4958.29
-4958.1
-4957.84
-4957.53
-4957.16
-4956.74
-4956.25
-4955.72
-4955.14
-4954.56
-4953.98
-4953.43
-4952.93
-4952.52
-4952.21
-4952.04
-4863.82
-4864.74
-4866.61
-4869.45
-4873.19
-4877.74
-4882.94
-4888.64
-4894.66
-4900.85
-4907.03
-4913.08
-4918.88
-4924.32
-4929.35
-4933.92
-4937.99
-4941.57
-4944.68
-4947.34
-4949.58
-4951.45
-4952.98
-4954.23
-4955.21
-4955.98
-4956.56
-4956.98
-4957.25
-4957.4
-4957.45
-4957.41
-4957.3
-4957.12
-4956.88
-4956.59
-4956.27
-4955.92
-4955.58
-4955.25
-4954.95
-4954.7
-4954.52
-4954.42
-4873
-4873.68
-4875.05
-4877.12
-4879.85
-4883.19
-4887.05
-4891.33
-4895.93
-4900.75
-4905.68
-4910.63
-4915.5
-4920.21
-4924.71
-4928.94
-4932.87
-4936.47
-4939.73
-4942.65
-4945.23
-4947.5
-4949.47
-4951.16
-4952.59
-4953.78
-4954.76
-4955.56
-4956.18
-4956.65
-4957
-4957.23
-4957.36
-4957.41
-4957.38
-4957.31
-4957.19
-4957.04
-4956.88
-4956.71
-4956.55
-4956.42
-4956.32
-4956.27
-4878.25
-4878.8
-4879.89
-4881.55
-4883.76
-4886.46
-4889.61
-4893.12
-4896.94
-4900.98
-4905.18
-4909.47
-4913.76
-4917.99
-4922.12
-4926.08
-4929.85
-4933.39
-4936.67
-4939.69
-4942.44
-4944.92
-4947.13
-4949.07
-4950.77
-4952.24
-4953.49
-4954.54
-4955.4
-4956.11
-4956.66
-4957.09
-4957.4
-4957.61
-4957.74
-4957.81
-4957.83
-4957.8
-4957.75
-4957.68
-4957.61
-4957.55
-4957.5
-4957.47
-4880.97
-4881.45
-4882.41
-4883.86
-4885.8
-4888.17
-4890.95
-4894.07
-4897.47
-4901.11
-4904.92
-4908.84
-4912.82
-4916.78
-4920.69
-4924.5
-4928.16
-4931.65
-4934.94
-4938.01
-4940.84
-4943.43
-4945.77
-4947.87
-4949.73
-4951.36
-4952.77
-4953.98
-4955
-4955.84
-4956.53
-4957.07
-4957.5
-4957.81
-4958.04
-4958.19
-4958.28
-4958.33
-4958.34
-4958.32
-4958.3
-4958.27
-4958.24
-4958.23
-4882.22
-4882.66
-4883.54
-4884.89
-4886.69
-4888.91
-4891.5
-4894.42
-4897.62
-4901.06
-4904.67
-4908.42
-4912.23
-4916.06
-4919.86
-4923.6
-4927.22
-4930.69
-4934
-4937.1
-4939.99
-4942.65
-4945.08
-4947.27
-4949.23
-4950.96
-4952.47
-4953.78
-4954.88
-4955.81
-4956.58
-4957.19
-4957.68
-4958.05
-4958.33
-4958.53
-4958.66
-4958.74
-4958.78
-4958.79
-4958.78
-4958.77
-4958.75
-4958.75
-4882.59
-4883.02
-4883.87
-4885.17
-4886.91
-4889.05
-4891.56
-4894.39
-4897.51
-4900.86
-4904.39
-4908.06
-4911.81
-4915.6
-4919.37
-4923.09
-4926.71
-4930.2
-4933.52
-4936.67
-4939.6
-4942.32
-4944.81
-4947.07
-4949.09
-4950.88
-4952.45
-4953.81
-4954.97
-4955.95
-4956.75
-4957.4
-4957.92
-4958.32
-4958.62
-4958.83
-4958.97
-4959.07
-4959.12
-4959.14
-4959.14
-4959.13
-4959.12
-4959.11
-4882.5
-4882.92
-4883.76
-4885.04
-4886.76
-4888.88
-4891.37
-4894.18
-4897.27
-4900.6
-4904.12
-4907.78
-4911.53
-4915.32
-4919.1
-4922.83
-4926.48
-4929.99
-4933.36
-4936.54
-4939.51
-4942.27
-4944.8
-4947.1
-4949.16
-4950.99
-4952.59
-4953.98
-4955.16
-4956.16
-4956.97
-4957.64
-4958.16
-4958.56
-4958.86
-4959.07
-4959.22
-4959.3
-4959.35
-4959.37
-4959.37
-4959.36
-4959.34
-4959.33
-4882.21
-4882.63
-4883.46
-4884.75
-4886.47
-4888.6
-4891.1
-4893.92
-4897.03
-4900.38
-4903.92
-4907.61
-4911.38
-4915.2
-4919.01
-4922.78
-4926.45
-4930
-4933.4
-4936.61
-4939.61
-4942.4
-4944.95
-4947.27
-4949.34
-4951.18
-4952.79
-4954.18
-4955.37
-4956.36
-4957.17
-4957.82
-4958.33
-4958.72
-4959.01
-4959.21
-4959.34
-4959.41
-4959.45
-4959.45
-4959.44
-4959.43
-4959.41
-4959.4
-4881.91
-4882.33
-4883.17
-4884.46
-4886.2
-4888.35
-4890.88
-4893.73
-4896.88
-4900.27
-4903.85
-4907.58
-4911.39
-4915.25
-4919.1
-4922.9
-4926.6
-4930.18
-4933.59
-4936.82
-4939.84
-4942.64
-4945.19
-4947.51
-4949.58
-4951.41
-4953
-4954.37
-4955.53
-4956.49
-4957.27
-4957.9
-4958.38
-4958.74
-4959
-4959.17
-4959.28
-4959.34
-4959.36
-4959.35
-4959.33
-4959.3
-4959.28
-4959.26
-4881.72
-4882.14
-4882.97
-4884.29
-4886.05
-4888.24
-4890.8
-4893.69
-4896.88
-4900.31
-4903.94
-4907.7
-4911.56
-4915.45
-4919.33
-4923.16
-4926.88
-4930.48
-4933.91
-4937.14
-4940.16
-4942.94
-4945.49
-4947.78
-4949.82
-4951.62
-4953.18
-4954.5
-4955.62
-4956.53
-4957.27
-4957.84
-4958.28
-4958.59
-4958.81
-4958.94
-4959.02
-4959.05
-4959.04
-4959.02
-4958.99
-4958.95
-4958.92
-4958.91
-4881.7
-4882.12
-4882.96
-4884.29
-4886.09
-4888.3
-4890.9
-4893.83
-4897.06
-4900.52
-4904.18
-4907.98
-4911.86
-4915.78
-4919.68
-4923.52
-4927.26
-4930.86
-4934.29
-4937.51
-4940.52
-4943.28
-4945.8
-4948.06
-4950.06
-4951.81
-4953.32
-4954.59
-4955.64
-4956.49
-4957.16
-4957.67
-4958.04
-4958.29
-4958.44
-4958.52
-4958.54
-4958.53
-4958.49
-4958.45
-4958.41
-4958.36
-4958.33
-4958.31
-4881.93
-4882.34
-4883.19
-4884.53
-4886.35
-4888.59
-4891.2
-4894.15
-4897.39
-4900.87
-4904.55
-4908.36
-4912.25
-4916.18
-4920.09
-4923.94
-4927.68
-4931.28
-4934.7
-4937.91
-4940.9
-4943.64
-4946.12
-4948.34
-4950.29
-4951.99
-4953.43
-4954.64
-4955.62
-4956.4
-4956.99
-4957.41
-4957.7
-4957.86
-4957.93
-4957.93
-4957.88
-4957.81
-4957.72
-4957.64
-4957.57
-4957.52
-4957.48
-4957.47
-4882.43
-4882.84
-4883.69
-4885.03
-4886.84
-4889.07
-4891.67
-4894.61
-4897.84
-4901.31
-4904.98
-4908.79
-4912.69
-4916.62
-4920.53
-4924.38
-4928.12
-4931.71
-4935.11
-4938.31
-4941.27
-4943.98
-4946.43
-4948.6
-4950.51
-4952.15
-4953.53
-4954.67
-4955.58
-4956.27
-4956.77
-4957.11
-4957.3
-4957.37
-4957.34
-4957.24
-4957.09
-4956.92
-4956.75
-4956.6
-4956.48
-4956.4
-4956.37
-4956.37
-4883.26
-4883.66
-4884.48
-4885.78
-4887.54
-4889.71
-4892.27
-4895.16
-4898.35
-4901.79
-4905.44
-4909.24
-4913.12
-4917.05
-4920.96
-4924.8
-4928.53
-4932.11
-4935.51
-4938.69
-4941.63
-4944.31
-4946.72
-4948.86
-4950.72
-4952.3
-4953.62
-4954.69
-4955.53
-4956.14
-4956.56
-4956.81
-4956.9
-4956.86
-4956.72
-4956.5
-4956.23
-4955.94
-4955.65
-4955.38
-4955.17
-4955.02
-4954.96
-4954.97
-4884.49
-4884.83
-4885.58
-4886.74
-4888.39
-4890.45
-4892.91
-4895.73
-4898.86
-4902.26
-4905.87
-4909.65
-4913.53
-4917.44
-4921.34
-4925.18
-4928.91
-4932.48
-4935.87
-4939.03
-4941.95
-4944.61
-4946.99
-4949.09
-4950.91
-4952.45
-4953.71
-4954.72
-4955.49
-4956.03
-4956.37
-4956.53
-4956.52
-4956.38
-4956.13
-4955.79
-4955.38
-4954.93
-4954.48
-4954.05
-4953.68
-4953.37
-4953.25
-4953.23
-4886.23
-4886.36
-4886.94
-4887.84
-4889.31
-4891.21
-4893.55
-4896.27
-4899.33
-4902.67
-4906.26
-4910.01
-4913.87
-4917.78
-4921.68
-4925.51
-4929.24
-4932.81
-4936.18
-4939.34
-4942.24
-4944.88
-4947.24
-4949.31
-4951.09
-4952.58
-4953.81
-4954.76
-4955.47
-4955.95
-4956.21
-4956.29
-4956.2
-4955.97
-4955.6
-4955.13
-4954.58
-4953.98
-4953.34
-4952.69
-4952.09
-4951.5
-4951.23
-4951.03
-4888.61
-4888.22
-4888.5
-4889
-4890.22
-4891.93
-4894.13
-4896.74
-4899.72
-4903.02
-4906.57
-4910.3
-4914.15
-4918.06
-4921.95
-4925.79
-4929.51
-4933.08
-4936.45
-4939.6
-4942.49
-4945.11
-4947.45
-4949.49
-4951.25
-4952.71
-4953.89
-4954.81
-4955.47
-4955.89
-4956.1
-4956.11
-4955.94
-4955.62
-4955.16
-4954.58
-4953.9
-4953.13
-4952.3
-4951.4
-4950.52
-4949.5
-4948.95
-4948.24
-4891.76
-4890.29
-4890.12
-4890.1
-4891.04
-4892.54
-4894.6
-4897.12
-4900.03
-4903.29
-4906.81
-4910.53
-4914.37
-4918.27
-4922.17
-4926
-4929.72
-4933.29
-4936.66
-4939.81
-4942.69
-4945.3
-4947.63
-4949.66
-4951.39
-4952.82
-4953.98
-4954.86
-4955.48
-4955.86
-4956.02
-4955.97
-4955.75
-4955.36
-4954.82
-4954.14
-4953.34
-4952.42
-4951.41
-4950.26
-4949.07
-4947.5
-4946.53
-4944.73
-4895.78
-4892.41
-4891.65
-4891.05
-4891.71
-4893.02
-4894.96
-4897.4
-4900.26
-4903.47
-4906.97
-4910.68
-4914.52
-4918.42
-4922.32
-4926.16
-4929.89
-4933.46
-4936.83
-4939.97
-4942.85
-4945.46
-4947.77
-4949.78
-4951.5
-4952.92
-4954.05
-4954.9
-4955.5
-4955.84
-4955.97
-4955.88
-4955.61
-4955.17
-4954.57
-4953.82
-4952.92
-4951.89
-4950.72
-4949.34
-4947.84
-4945.68
-4944.15
-4940.42
-4900.57
-4894.35
-4892.93
-4891.77
-4892.21
-4893.36
-4895.21
-4897.58
-4900.4
-4903.59
-4907.08
-4910.78
-4914.62
-4918.53
-4922.43
-4926.27
-4930
-4933.57
-4936.94
-4940.08
-4942.96
-4945.56
-4947.87
-4949.88
-4951.58
-4952.99
-4954.1
-4954.94
-4955.52
-4955.84
-4955.94
-4955.83
-4955.53
-4955.05
-4954.41
-4953.6
-4952.64
-4951.51
-4950.24
-4948.67
-4946.92
-4944.2
-4942.02
-4935.4
-4905.8
-4895.9
-4893.83
-4892.25
-4892.51
-4893.56
-4895.35
-4897.69
-4900.49
-4903.66
-4907.14
-4910.84
-4914.68
-4918.58
-4922.49
-4926.33
-4930.06
-4933.64
-4937.01
-4940.15
-4943.03
-4945.63
-4947.93
-4949.93
-4951.63
-4953.03
-4954.14
-4954.97
-4955.53
-4955.84
-4955.93
-4955.8
-4955.48
-4954.98
-4954.31
-4953.47
-4952.47
-4951.29
-4949.94
-4948.26
-4946.33
-4943.17
-4940.36
-4930.04
-4910.73
-4896.88
-4894.32
-4892.5
-4892.67
-4893.66
-4895.42
-4897.74
-4900.52
-4903.69
-4907.17
-4910.87
-4914.71
-4918.61
-4922.51
-4926.36
-4930.09
-4933.67
-4937.04
-4940.18
-4943.06
-4945.66
-4947.96
-4949.96
-4951.66
-4953.05
-4954.16
-4954.98
-4955.54
-4955.84
-4955.92
-4955.79
-4955.46
-4954.95
-4954.27
-4953.41
-4952.39
-4951.19
-4949.8
-4948.05
-4946.03
-4942.63
-4939.33
-4925.03
-4914.68
-4897.31
-4894.48
-4892.59
-4892.72
-4893.7
-4895.45
-4897.75
-4900.54
-4903.7
-4907.18
-4910.88
-4914.71
-4918.62
-4922.52
-4926.37
-4930.1
-4933.68
-4937.05
-4940.19
-4943.07
-4945.67
-4947.97
-4949.97
-4951.66
-4953.06
-4954.16
-4954.98
-4955.54
-4955.84
-4955.92
-4955.78
-4955.45
-4954.94
-4954.25
-4953.39
-4952.36
-4951.15
-4949.75
-4947.99
-4945.93
-4942.45
-4938.88
-4921.06
)
;

boundaryField
{
    movingWall
    {
        type            zeroGradient;
    }
    fixedWalls
    {
        type            zeroGradient;
    }
    frontAndBack
    {
        type            empty;
    }
    defaultFaces
    {
        type            empty;
    }
}


// ************************************************************************* //
