/*--------------------------------*- C++ -*----------------------------------*\
  =========                 |
  \\      /  F ield         | OpenFOAM: The Open Source CFD Toolbox
   \\    /   O peration     | Website:  https://openfoam.org
    \\  /    A nd           | Version:  7
     \\/     M anipulation  |
\*---------------------------------------------------------------------------*/
FoamFile
{
    version     2.0;
    format      ascii;
    class       surfaceScalarField;
    location    "0.4";
    object      phi;
}
// * * * * * * * * * * * * * * * * * * * * * * * * * * * * * * * * * * * * * //

dimensions      [0 3 -1 0 0 0 0];

internalField   nonuniform List<scalar> 
1740
(
-1.47175e-06
1.47175e-06
-4.10532e-06
2.63357e-06
-8.23421e-06
4.12889e-06
-1.18252e-05
3.59099e-06
-1.57969e-05
3.97174e-06
-1.9193e-05
3.39602e-06
-2.25959e-05
3.40291e-06
-2.5553e-05
2.95715e-06
-2.82687e-05
2.71565e-06
-3.0635e-05
2.36637e-06
-3.26021e-05
1.96705e-06
-3.41761e-05
1.57403e-06
-3.53404e-05
1.16432e-06
-3.60732e-05
7.32729e-07
-3.63659e-05
2.92693e-07
-3.62186e-05
-1.47307e-07
-3.56268e-05
-5.91803e-07
-3.45889e-05
-1.03783e-06
-3.31213e-05
-1.46763e-06
-3.12443e-05
-1.877e-06
-2.89349e-05
-2.30944e-06
-2.62315e-05
-2.70331e-06
-2.32869e-05
-2.94468e-06
-1.98044e-05
-3.48246e-06
-1.63465e-05
-3.45794e-06
-1.2156e-05
-4.1905e-06
-8.434e-06
-3.72196e-06
-4.06168e-06
-4.37232e-06
-1.4552e-06
-2.60648e-06
-1.45521e-06
-3.17291e-06
4.64466e-06
-8.97966e-06
8.44032e-06
-1.60966e-05
1.12458e-05
-2.31137e-05
1.06081e-05
-3.00572e-05
1.09153e-05
-3.65486e-05
9.88734e-06
-4.26273e-05
9.48166e-06
-4.81577e-05
8.48759e-06
-5.31055e-05
7.66343e-06
-5.74036e-05
6.66443e-06
-6.10151e-05
5.57857e-06
-6.38915e-05
4.45045e-06
-6.5999e-05
3.27176e-06
-6.73173e-05
2.05102e-06
-6.78292e-05
8.04655e-07
-6.75258e-05
-4.50792e-07
-6.64076e-05
-1.70991e-06
-6.44806e-05
-2.96488e-06
-6.1758e-05
-4.19019e-06
-5.82651e-05
-5.36998e-06
-5.40431e-05
-6.53136e-06
-4.91282e-05
-7.61821e-06
-4.35814e-05
-8.49153e-06
-3.74314e-05
-9.63247e-06
-3.08281e-05
-1.00612e-05
-2.37023e-05
-1.13163e-05
-1.65123e-05
-1.0912e-05
-9.16581e-06
-1.17188e-05
-3.24579e-06
-8.5265e-06
-4.701e-06
-3.76663e-06
8.41129e-06
-1.10766e-05
1.57503e-05
-1.9172e-05
1.93411e-05
-2.75026e-05
1.89386e-05
-3.54077e-05
1.88204e-05
-4.30213e-05
1.7501e-05
-4.99913e-05
1.64516e-05
-5.644e-05
1.49364e-05
-6.21494e-05
1.33727e-05
-6.71218e-05
1.16369e-05
-7.1301e-05
9.75777e-06
-7.46277e-05
7.77711e-06
-7.7063e-05
5.70706e-06
-7.85814e-05
3.56948e-06
-7.91678e-05
1.39108e-06
-7.88106e-05
-8.08007e-07
-7.75052e-05
-3.01533e-06
-7.52643e-05
-5.20584e-06
-7.21047e-05
-7.34972e-06
-6.80494e-05
-9.42529e-06
-6.31563e-05
-1.14244e-05
-5.74872e-05
-1.32873e-05
-5.10096e-05
-1.49692e-05
-4.39887e-05
-1.66534e-05
-3.62606e-05
-1.77893e-05
-2.82438e-05
-1.93331e-05
-1.97471e-05
-1.94088e-05
-1.14795e-05
-1.99863e-05
-3.92662e-06
-1.60794e-05
-8.62762e-06
-4.10726e-06
1.25185e-05
-1.20316e-05
2.36747e-05
-2.05709e-05
2.78804e-05
-2.94192e-05
2.7787e-05
-3.77414e-05
2.71426e-05
-4.57963e-05
2.55559e-05
-5.31572e-05
2.38125e-05
-5.99714e-05
2.17506e-05
-6.60105e-05
1.94118e-05
-7.12617e-05
1.68881e-05
-7.56732e-05
1.41693e-05
-7.91847e-05
1.12886e-05
-8.17585e-05
8.28082e-06
-8.33684e-05
5.17944e-06
-8.39939e-05
2.01649e-06
-8.36197e-05
-1.18219e-06
-8.22465e-05
-4.38854e-06
-7.98852e-05
-7.56713e-06
-7.65539e-05
-1.0681e-05
-7.22767e-05
-1.37025e-05
-6.71125e-05
-1.65887e-05
-6.11187e-05
-1.92811e-05
-5.42749e-05
-2.1813e-05
-4.6856e-05
-2.40723e-05
-3.86649e-05
-2.59803e-05
-3.02194e-05
-2.77786e-05
-2.11634e-05
-2.84648e-05
-1.24446e-05
-2.87052e-05
-4.25174e-06
-2.42722e-05
-1.28794e-05
-4.38822e-06
1.69068e-05
-1.26626e-05
3.19491e-05
-2.16187e-05
3.68366e-05
-3.0838e-05
3.70063e-05
-3.95284e-05
3.5833e-05
-4.7922e-05
3.39496e-05
-5.56091e-05
3.14996e-05
-6.26982e-05
2.88397e-05
-6.89929e-05
2.57065e-05
-7.44663e-05
2.23616e-05
-7.90615e-05
1.87644e-05
-8.27192e-05
1.49463e-05
-8.54043e-05
1.0966e-05
-8.70892e-05
6.86432e-06
-8.77503e-05
2.67757e-06
-8.73745e-05
-1.558e-06
-8.59613e-05
-5.80169e-06
-8.35217e-05
-1.00068e-05
-8.00703e-05
-1.41324e-05
-7.56331e-05
-1.81397e-05
-7.02642e-05
-2.19576e-05
-6.40162e-05
-2.55291e-05
-5.68893e-05
-2.89398e-05
-4.91281e-05
-3.18335e-05
-4.05677e-05
-3.45407e-05
-3.16995e-05
-3.66468e-05
-2.22096e-05
-3.79547e-05
-1.30325e-05
-3.78822e-05
-4.50201e-06
-3.28028e-05
-1.73814e-05
-4.64738e-06
2.15541e-05
-1.32831e-05
4.05848e-05
-2.27419e-05
4.62954e-05
-3.24098e-05
4.66742e-05
-4.15625e-05
4.49856e-05
-5.03488e-05
4.27358e-05
-5.84132e-05
3.9564e-05
-6.58298e-05
3.62563e-05
-7.24242e-05
3.23008e-05
-7.81506e-05
2.8088e-05
-8.29529e-05
2.35668e-05
-8.67805e-05
1.87739e-05
-8.95952e-05
1.37807e-05
-9.13662e-05
8.6353e-06
-9.2072e-05
3.38336e-06
-9.17005e-05
-1.92947e-06
-9.02511e-05
-7.25108e-06
-8.77282e-05
-1.25297e-05
-8.41466e-05
-1.7714e-05
-7.95315e-05
-2.27548e-05
-7.3931e-05
-2.7558e-05
-6.73932e-05
-3.20669e-05
-5.99375e-05
-3.63956e-05
-5.17742e-05
-3.99967e-05
-4.27837e-05
-4.35312e-05
-3.34015e-05
-4.60291e-05
-2.34106e-05
-4.79455e-05
-1.36691e-05
-4.76238e-05
-4.76044e-06
-4.17114e-05
-2.21418e-05
-4.92514e-06
2.64793e-05
-1.40321e-05
4.96918e-05
-2.41059e-05
5.63691e-05
-3.43333e-05
5.69017e-05
-4.40499e-05
5.47022e-05
-5.33324e-05
5.20184e-05
-6.18671e-05
4.80986e-05
-6.96905e-05
4.40797e-05
-7.66468e-05
3.9257e-05
-8.26783e-05
3.41196e-05
-8.77352e-05
2.86237e-05
-9.17681e-05
2.28068e-05
-9.47383e-05
1.67509e-05
-9.66161e-05
1.05131e-05
-9.7379e-05
4.14617e-06
-9.70168e-05
-2.29165e-06
-9.5525e-05
-8.74289e-06
-9.29061e-05
-1.51486e-05
-8.91702e-05
-2.14499e-05
-8.43425e-05
-2.75825e-05
-7.8465e-05
-3.34356e-05
-7.15785e-05
-3.89534e-05
-6.37191e-05
-4.42551e-05
-5.50662e-05
-4.86496e-05
-4.55449e-05
-5.30525e-05
-3.55393e-05
-5.60346e-05
-2.49268e-05
-5.85581e-05
-1.4499e-05
-5.80516e-05
-5.07057e-06
-5.11399e-05
-2.72124e-05
-5.24526e-06
3.17245e-05
-1.49431e-05
5.93896e-05
-2.57485e-05
6.71745e-05
-3.66725e-05
6.78257e-05
-4.70748e-05
6.51044e-05
-5.69695e-05
6.19131e-05
-6.60706e-05
5.71998e-05
-7.43818e-05
5.23909e-05
-8.17686e-05
4.66438e-05
-8.81658e-05
4.05169e-05
-9.35261e-05
3.3984e-05
-9.78016e-05
2.70823e-05
-0.000100956
1.99053e-05
-0.000102961
1.25179e-05
-0.000103795
4.9803e-06
-0.000103446
-2.64043e-06
-0.000101909
-1.02804e-05
-9.91805e-05
-1.78767e-05
-9.52681e-05
-2.53622e-05
-9.01929e-05
-3.26576e-05
-8.39889e-05
-3.96396e-05
-7.66903e-05
-4.6252e-05
-6.83466e-05
-5.25988e-05
-5.91102e-05
-5.7886e-05
-4.89453e-05
-6.32174e-05
-3.8195e-05
-6.67849e-05
-2.68188e-05
-6.99342e-05
-1.5568e-05
-6.93023e-05
-5.45768e-06
-6.12502e-05
-3.26701e-05
-5.62861e-06
3.73532e-05
-1.60524e-05
6.98134e-05
-2.77239e-05
7.8846e-05
-3.94912e-05
7.95931e-05
-5.07068e-05
7.632e-05
-6.13279e-05
7.25342e-05
-7.10914e-05
6.69633e-05
-7.9976e-05
6.12754e-05
-8.78652e-05
5.4533e-05
-9.46869e-05
4.73386e-05
-0.000100396
3.96936e-05
-0.000104951
3.16369e-05
-0.000108317
2.32716e-05
-0.00011047
1.46705e-05
-0.000111389
5.89943e-06
-0.000111061
-2.96836e-06
-0.000109477
-1.18646e-05
-0.00010663
-2.07233e-05
-0.000102524
-2.94691e-05
-9.71704e-05
-3.80108e-05
-9.0594e-05
-4.62159e-05
-8.28212e-05
-5.40248e-05
-7.39099e-05
-6.15101e-05
-6.39894e-05
-6.78065e-05
-5.30581e-05
-7.41487e-05
-4.14285e-05
-7.84145e-05
-2.91293e-05
-8.22334e-05
-1.68979e-05
-8.15338e-05
-5.93509e-06
-7.2213e-05
-3.86051e-05
-6.10007e-06
4.34532e-05
-1.74066e-05
8.11199e-05
-3.00972e-05
9.15366e-05
-4.28572e-05
9.23531e-05
-5.50162e-05
8.84789e-05
-6.64832e-05
8.40013e-05
-7.70104e-05
7.74904e-05
-8.65549e-05
7.082e-05
-9.50157e-05
6.29937e-05
-0.000102316
5.46388e-05
-0.000108417
4.57952e-05
-0.000113285
3.65044e-05
-0.00011689
2.68765e-05
-0.00011921
1.69908e-05
-0.000120229
6.91794e-06
-0.000119931
-3.26596e-06
-0.000118304
-1.34921e-05
-0.000115335
-2.36921e-05
-0.000111021
-3.37828e-05
-0.000105365
-4.36664e-05
-9.83781e-05
-5.32033e-05
-9.00738e-05
-6.23291e-05
-8.05138e-05
-7.10701e-05
-6.9804e-05
-7.85163e-05
-5.79716e-05
-8.59811e-05
-4.53089e-05
-9.10772e-05
-3.19041e-05
-9.56383e-05
-1.85089e-05
-9.4929e-05
-6.51062e-06
-8.42112e-05
-4.51158e-05
-6.67452e-06
5.01277e-05
-1.90385e-05
9.34839e-05
-3.29217e-05
0.00010542
-4.68405e-05
0.000106272
-6.00867e-05
0.000101725
-7.25281e-05
9.64427e-05
-8.39238e-05
8.88861e-05
-9.42129e-05
8.11092e-05
-0.00010331
7.20907e-05
-0.000111139
6.24675e-05
-0.00011767
5.23265e-05
-0.000122879
4.17133e-05
-0.000126744
3.0742e-05
-0.00012925
1.94966e-05
-0.000130383
8.05083e-06
-0.000130129
-3.52008e-06
-0.000128469
-1.51522e-05
-0.000125384
-2.6777e-05
-0.00012086
-3.83071e-05
-0.000114885
-4.9641e-05
-0.000107455
-6.06332e-05
-9.85685e-05
-7.12157e-05
-8.82827e-05
-8.1356e-05
-7.66769e-05
-9.01221e-05
-6.37985e-05
-9.88594e-05
-4.99286e-05
-0.000104947
-3.52081e-05
-0.000110359
-2.04337e-05
-0.000109703
-7.19468e-06
-9.74502e-05
-5.23104e-05
-7.36215e-06
5.74899e-05
-2.09819e-05
0.000107104
-3.62603e-05
0.000120698
-5.15284e-05
0.00012154
-6.60235e-05
0.00011622
-7.95756e-05
0.000109995
-9.19458e-05
0.000101256
-0.000103061
9.2224e-05
-0.000112853
8.18827e-05
-0.000121253
7.08679e-05
-0.000128244
5.93176e-05
-0.000133815
4.72847e-05
-0.000137958
3.48848e-05
-0.000140665
2.2203e-05
-0.000141927
9.31263e-06
-0.000141731
-3.71528e-06
-0.000140055
-1.68286e-05
-0.00013687
-2.99622e-05
-0.000132146
-4.30304e-05
-0.000125854
-5.59329e-05
-0.000117966
-6.85215e-05
-0.000108457
-8.07251e-05
-9.73724e-05
-9.24404e-05
-8.47624e-05
-0.000102732
-7.0684e-05
-0.000112938
-5.54122e-05
-0.000120219
-3.91355e-05
-0.000126635
-2.27266e-05
-0.000126112
-8.00644e-06
-0.00011217
-6.03169e-05
-8.17937e-06
6.56693e-05
-2.32862e-05
0.00012221
-4.01983e-05
0.00013761
-5.70338e-05
0.000138376
-7.29579e-05
0.000132144
-8.7765e-05
0.000124802
-0.000101216
0.000114708
-0.000113232
0.000104239
-0.000123767
9.24181e-05
-0.000132769
7.987e-05
-0.000140237
6.67853e-05
-0.00014618
5.32276e-05
-0.000150607
3.9312e-05
-0.000153525
2.51204e-05
-0.000154932
1.07199e-05
-0.000154817
-3.83043e-06
-0.000153151
-1.84944e-05
-0.000149895
-3.32181e-05
-0.000145
-4.79251e-05
-0.000138411
-6.2522e-05
-0.00013007
-7.68625e-05
-0.000119919
-9.0876e-05
-0.000107979
-0.000104381
-9.42601e-05
-0.000116451
-7.88197e-05
-0.000128378
-6.1928e-05
-0.000137111
-4.38178e-05
-0.000144746
-2.54688e-05
-0.000144461
-8.97628e-06
-0.000128663
-6.92932e-05
-9.15026e-06
7.48195e-05
-2.60187e-05
0.000139079
-4.48464e-05
0.000156438
-6.35005e-05
0.00015703
-8.10544e-05
0.000149698
-9.72691e-05
0.000141017
-0.000111906
0.000129345
-0.000124887
0.00011722
-0.000136198
0.000103729
-0.000145812
8.94844e-05
-0.000153755
7.47276e-05
-0.000160062
5.95353e-05
-0.000164769
4.40188e-05
-0.000167899
2.82509e-05
-0.000169466
1.22859e-05
-0.000169457
-3.83924e-06
-0.00016784
-2.01109e-05
-0.000164563
-3.64954e-05
-0.00015955
-5.29379e-05
-0.000152713
-6.93592e-05
-0.000143954
-8.56218e-05
-0.000133172
-0.000101658
-0.000120343
-0.00011721
-0.000105424
-0.000131369
-8.84568e-05
-0.000145346
-6.97017e-05
-0.000155866
-4.94339e-05
-0.000165014
-2.87729e-05
-0.000165122
-1.01467e-05
-0.000147289
-7.94399e-05
-1.03079e-05
8.51275e-05
-2.92709e-05
0.000158042
-5.03526e-05
0.00017752
-7.11183e-05
0.000177795
-9.05264e-05
0.000169106
-0.000108307
0.000158797
-0.000124226
0.000145264
-0.000138217
0.000131212
-0.000150311
0.000115822
-0.00016052
9.96936e-05
-0.000168908
8.3115e-05
-0.00017555
6.61773e-05
-0.000180513
4.89822e-05
-0.000183848
3.15858e-05
-0.000185583
1.40207e-05
-0.000185712
-3.70979e-06
-0.000184198
-2.1625e-05
-0.000180971
-3.97223e-05
-0.000175927
-5.79824e-05
-0.000168932
-7.63538e-05
-0.000159834
-9.47198e-05
-0.000148475
-0.000113017
-0.000134763
-0.000130921
-0.000118579
-0.000147553
-9.99231e-05
-0.000164002
-7.90349e-05
-0.000176754
-5.62262e-05
-0.000187822
-3.27926e-05
-0.000188556
-1.15746e-05
-0.000168507
-9.10145e-05
-1.17004e-05
9.68278e-05
-3.31719e-05
0.000179513
-5.69211e-05
0.000201269
-8.01435e-05
0.000201018
-0.000101655
0.000190618
-0.000121158
0.0001783
-0.000138435
0.000162541
-0.000153452
0.000146228
-0.000166297
0.000128668
-0.000177043
0.00011044
-0.000185809
9.18804e-05
-0.000192722
7.30907e-05
-0.000197894
5.41545e-05
-0.00020141
3.51011e-05
-0.000203318
1.59289e-05
-0.000203623
-3.40426e-06
-0.000202283
-2.29658e-05
-0.000199208
-4.27973e-05
-0.000194258
-6.29316e-05
-0.00018725
-8.33628e-05
-0.000177955
-0.000104014
-0.000166138
-0.000124835
-0.000151611
-0.000145448
-0.00013414
-0.000165024
-0.000113652
-0.00018449
-9.03364e-05
-0.00020007
-6.45283e-05
-0.00021363
-3.77407e-05
-0.000215344
-1.33381e-05
-0.00019291
-0.000104353
-1.33977e-05
0.000110226
-3.79069e-05
0.000204023
-6.48363e-05
0.000228198
-9.09228e-05
0.000227104
-0.000114811
0.000214506
-0.000136185
0.000199674
-0.000154862
0.000181218
-0.000170865
0.000162231
-0.000184374
0.000142177
-0.000195543
0.000121609
-0.000204568
0.000100905
-0.000211647
8.01698e-05
-0.000216947
5.94552e-05
-0.000220598
3.87513e-05
-0.000222675
1.80065e-05
-0.000223199
-2.88076e-06
-0.000222122
-2.40421e-05
-0.000219337
-4.5583e-05
-0.000214662
-6.76059e-05
-0.000207851
-9.01743e-05
-0.000198587
-0.000113278
-0.000186525
-0.000136897
-0.000171344
-0.000160629
-0.000152645
-0.000183723
-0.000130225
-0.00020691
-0.000104171
-0.000226124
-7.48131e-05
-0.000242988
-4.39247e-05
-0.000246232
-1.55506e-05
-0.000221284
-0.000119903
-1.55029e-05
0.000125728
-4.37417e-05
0.000232261
-7.4498e-05
0.000258955
-0.00010393
0.000256536
-0.000130483
0.000241059
-0.000153845
0.000223035
-0.000173905
0.000201278
-0.000190783
0.00017911
-0.000204786
0.000156179
-0.000216186
0.000133009
-0.000225284
0.000110003
-0.000232367
8.72528e-05
-0.000237672
6.47611e-05
-0.000241383
4.2462e-05
-0.000243613
2.02364e-05
-0.0002444
-2.09426e-06
-0.000243699
-2.4743e-05
-0.000241381
-4.79006e-05
-0.000237225
-7.17621e-05
-0.000230911
-9.64884e-05
-0.000222017
-0.000122171
-0.000210058
-0.000148856
-0.000194524
-0.000176163
-0.000174786
-0.000203461
-0.000150426
-0.00023127
-0.000121335
-0.000255216
-8.77724e-05
-0.00027655
-5.18083e-05
-0.000282196
-1.83874e-05
-0.000254705
-0.000138291
-1.81704e-05
0.000143899
-5.10665e-05
0.000265158
-8.64766e-05
0.000294365
-0.000119821
0.000289881
-0.000149327
0.000270565
-0.00017473
0.000248439
-0.00019606
0.000222608
-0.000213589
0.000196639
-0.000227803
0.000170393
-0.000239139
0.000144345
-0.000248034
0.000118898
-0.000254887
9.41056e-05
-0.000260021
6.98952e-05
-0.000263682
4.61231e-05
-0.000266028
2.25821e-05
-0.000267123
-9.99528e-07
-0.000266928
-2.49377e-05
-0.000265301
-4.95271e-05
-0.000261981
-7.50829e-05
-0.000256571
-0.000101898
-0.000248533
-0.00013021
-0.000237204
-0.000160185
-0.00022183
-0.000191537
-0.000201457
-0.000223834
-0.000175326
-0.0002574
-0.00014297
-0.000287572
-0.000104444
-0.000315076
-6.21152e-05
-0.000324525
-2.21323e-05
-0.000294688
-0.000160423
-2.16437e-05
0.000165542
-6.04711e-05
0.000303985
-0.000101603
0.000335497
-0.000139517
0.000327795
-0.000172228
0.000303276
-0.000199608
0.000275819
-0.000221934
0.000244933
-0.000239723
0.000214428
-0.000253709
0.000184379
-0.000264551
0.000155187
-0.000272857
0.000127204
-0.000279158
0.000100407
-0.000283879
7.46156e-05
-0.000287336
4.95801e-05
-0.000289736
2.4982e-05
-0.000291179
4.43864e-07
-0.000291637
-2.44792e-05
-0.000290968
-5.01969e-05
-0.000288877
-7.71738e-05
-0.000284903
-0.000105871
-0.000278384
-0.000136729
-0.000268458
-0.00017011
-0.000254058
-0.000205936
-0.000233796
-0.000244097
-0.000206387
-0.000284809
-0.000170737
-0.000323223
-0.000126428
-0.000359385
-7.60199e-05
-0.000374933
-2.72726e-05
-0.000343435
-0.000187695
-2.63242e-05
0.000191867
-7.28775e-05
0.000350538
-0.000121113
0.000383732
-0.000164321
0.000371003
-0.00020038
0.000339335
-0.000229462
0.000304901
-0.000252262
0.000267733
-0.000269679
0.000231845
-0.000282786
0.000197486
-0.000292532
0.000164933
-0.000299729
0.000134401
-0.000305056
0.000105734
-0.000309047
7.86063e-05
-0.000312093
5.26263e-05
-0.000314455
2.73437e-05
-0.000316264
2.25294e-06
-0.000317532
-2.3211e-05
-0.000318121
-4.96086e-05
-0.000317729
-7.75655e-05
-0.000315852
-0.000107748
-0.000311724
-0.000140857
-0.000304285
-0.00017755
-0.000292099
-0.000218122
-0.000273224
-0.000262972
-0.000245601
-0.000312432
-0.000207078
-0.000361746
-0.000156252
-0.00041021
-9.55232e-05
-0.000435662
-3.47095e-05
-0.000404249
-0.000222405
-3.29083e-05
0.000224775
-8.97741e-05
0.000407404
-0.000146881
0.000440838
-0.000196092
0.000420214
-0.000235385
0.000378628
-0.000265526
0.000335042
-0.000287901
0.000290107
-0.000303975
0.000247919
-0.000315279
0.000208791
-0.000323113
0.000172766
-0.000328522
0.000139811
-0.000332341
0.000109553
-0.000335206
8.14711e-05
-0.000337578
5.4998e-05
-0.000339765
2.95312e-05
-0.000341943
4.43047e-06
-0.000344163
-2.09906e-05
-0.000346324
-4.74474e-05
-0.000348154
-7.57363e-05
-0.000349151
-0.000106751
-0.000348504
-0.000141504
-0.000345
-0.000181054
-0.000336836
-0.000226287
-0.000321414
-0.000278394
-0.000295613
-0.000338232
-0.000255589
-0.000401771
-0.000198017
-0.000467782
-0.000124195
-0.000509484
-4.62418e-05
-0.000482202
-0.000268647
-4.26739e-05
0.000267449
-0.000113639
0.000478369
-0.000181789
0.000508988
-0.000237482
0.000475908
-0.000279353
0.000420499
-0.000309288
0.000364977
-0.000329764
0.000310584
-0.000343057
0.000261212
-0.000351286
0.000217019
-0.000356143
0.000177623
-0.000358916
0.000142585
-0.000360578
0.000111215
-0.000361843
8.27363e-05
-0.000363219
5.63738e-05
-0.000365051
3.1363e-05
-0.000367555
6.93406e-06
-0.000370834
-1.77115e-05
-0.000374857
-4.34245e-05
-0.000379432
-7.1161e-05
-0.000384145
-0.000102038
-0.000388248
-0.0001374
-0.000390503
-0.000178799
-0.000388852
-0.000227938
-0.000380059
-0.000287186
-0.000359702
-0.00035859
-0.000321419
-0.000440054
-0.000258367
-0.000530833
-0.000168568
-0.000599283
-6.56578e-05
-0.000585112
-0.000334305
-5.81026e-05
0.000325552
-0.000148703
0.00056897
-0.000230242
0.000590526
-0.000292134
0.0005378
-0.000334856
0.000463221
-0.000362262
0.000392383
-0.000378498
0.00032682
-0.000386934
0.000269648
-0.000390374
0.000220459
-0.000390905
0.000178154
-0.000390015
0.000141695
-0.00038876
0.000109959
-0.000387876
8.18528e-05
-0.000387876
5.63738e-05
-0.000389113
3.25996e-05
-0.000391829
9.65037e-06
-0.00039619
-1.33511e-05
-0.000402267
-3.73477e-05
-0.000410018
-6.34091e-05
-0.000419229
-9.28276e-05
-0.000429389
-0.00012724
-0.000439478
-0.000168711
-0.000447497
-0.000219918
-0.000449876
-0.000284808
-0.000440937
-0.000367529
-0.000411014
-0.000469976
-0.00034738
-0.000594468
-0.000240251
-0.000706411
-0.00010094
-0.000724424
-0.000435245
-8.41633e-05
0.000409715
-0.000202098
0.000686904
-0.000298457
0.000686885
-0.000364152
0.000603496
-0.000403795
0.000502863
-0.000424492
0.000413081
-0.000432766
0.000335094
-0.000433334
0.000270216
-0.000429675
0.0002168
-0.000424168
0.000172648
-0.000418373
0.0001359
-0.000413307
0.000104893
-0.00040963
7.81764e-05
-0.000407787
5.45306e-05
-0.000408086
3.28985e-05
-0.000410769
1.23329e-05
-0.000416051
-8.06855e-06
-0.000424143
-2.92562e-05
-0.000435216
-5.23362e-05
-0.000449377
-7.86658e-05
-0.000466579
-0.000110039
-0.000486389
-0.0001489
-0.000507442
-0.000198866
-0.000526648
-0.000265602
-0.000537862
-0.000356314
-0.000528101
-0.000479737
-0.000476196
-0.000646374
-0.000356683
-0.000825924
-0.00016709
-0.000914016
-0.000602335
-0.000130578
0.000540293
-0.000284245
0.000840571
-0.000391751
0.000794392
-0.000452965
0.000664709
-0.00048059
0.000530488
-0.000486684
0.000419175
-0.000480735
0.000329145
-0.000468797
0.000258279
-0.000454722
0.000202725
-0.000440848
0.000158773
-0.000428512
0.000123565
-0.000418471
9.48521e-05
-0.000411137
7.08422e-05
-0.000406769
5.01627e-05
-0.000405548
3.16776e-05
-0.000407659
1.44435e-05
-0.00041331
-2.41721e-06
-0.000422886
-1.96807e-05
-0.000436773
-3.84486e-05
-0.000455484
-5.99551e-05
-0.000479618
-8.59044e-05
-0.000509751
-0.000118767
-0.000545895
-0.000162722
-0.00058681
-0.000224686
-0.000627876
-0.000315248
-0.000655039
-0.000452575
-0.000638471
-0.000662942
-0.000528133
-0.000936261
-0.000283296
-0.00115885
-0.000885631
-0.000214199
0.000754492
-0.000399889
0.00102626
-0.000494569
0.000889072
-0.000525919
0.000696059
-0.00052032
0.000524889
-0.000495862
0.000394717
-0.000464421
0.000297704
-0.000432314
0.000226172
-0.000402696
0.000173106
-0.000377008
0.000133085
-0.000355755
0.000102311
-0.000339038
7.81355e-05
-0.00032671
5.85141e-05
-0.0003187
4.21523e-05
-0.000314895
2.78732e-05
-0.000315351
1.4899e-05
-0.000320116
2.34776e-06
-0.00032977
-1.00264e-05
-0.000344787
-2.34317e-05
-0.000366021
-3.87212e-05
-0.000394688
-5.72368e-05
-0.000432595
-8.086e-05
-0.000481535
-0.000113782
-0.000543426
-0.000162795
-0.00061806
-0.000240615
-0.000696006
-0.000374628
-0.000746438
-0.000612511
-0.000695832
-0.000986868
-0.000441315
-0.00141337
-0.00132695
-0.000345628
0.00110012
-0.000479473
0.00116011
-0.000474879
0.000884478
-0.000409571
0.00063075
-0.000326032
0.00044135
-0.00024295
0.000311636
-0.000168847
0.0002236
-0.000106225
0.00016355
-5.48464e-05
0.000121728
-1.35266e-05
9.17655e-05
1.90794e-05
6.97054e-05
4.42823e-05
5.29326e-05
6.29757e-05
3.98207e-05
7.60352e-05
2.90928e-05
8.38412e-05
2.00672e-05
8.6668e-05
1.20722e-05
8.44517e-05
4.56403e-06
7.71199e-05
-2.69462e-06
6.40065e-05
-1.03183e-05
4.41431e-05
-1.88579e-05
1.59908e-05
-2.90844e-05
-2.23937e-05
-4.24755e-05
-7.49613e-05
-6.12146e-05
-0.000146616
-9.11407e-05
-0.000243285
-0.000143945
-0.000368306
-0.000249607
-0.000508722
-0.000472094
-0.000595115
-0.000900475
-0.000496174
-0.00151231
-0.00182312
-0.000295558
0.00139568
-9.25245e-05
0.000957072
0.000219141
0.000572813
0.000482001
0.00036789
0.000688765
0.000234587
0.000848472
0.000151929
0.000970061
0.00010201
0.00106248
7.11346e-05
0.00113291
5.12912e-05
0.00118677
3.79129e-05
0.00122799
2.84801e-05
0.00125937
2.15576e-05
0.0012829
1.62873e-05
0.00129991
1.20798e-05
0.00131137
8.61446e-06
0.00131781
5.63148e-06
0.00131945
2.92385e-06
0.00131637
3.84712e-07
0.00130833
-2.27914e-06
0.00129455
-5.0816e-06
0.00127386
-8.39238e-06
0.00124403
-1.2643e-05
0.0012015
-1.86867e-05
0.00113941
-2.90551e-05
0.00104567
-5.02043e-05
0.000897231
-0.000101165
0.00066089
-0.000235754
0.000316296
-0.000555881
2.2799e-05
-0.00121881
-0.00180032
0.00139568
0.00235275
0.00292556
0.00329345
0.00352804
0.00367997
0.00378198
0.00385311
0.0039044
0.00394232
0.0039708
0.00399236
0.00400864
0.00402072
0.00402934
0.00403497
0.00403789
0.00403828
0.004036
0.00403092
0.00402252
0.00400988
0.00399119
0.00396214
0.00391193
0.00381077
0.00357502
0.00301913
0.00180032
)
;

boundaryField
{
    movingWall
    {
        type            calculated;
        value           uniform 0;
    }
    fixedWalls
    {
        type            calculated;
        value           uniform 0;
    }
    frontAndBack
    {
        type            empty;
        value           nonuniform 0();
    }
}


// ************************************************************************* //
