/*--------------------------------*- C++ -*----------------------------------*\
  =========                 |
  \\      /  F ield         | OpenFOAM: The Open Source CFD Toolbox
   \\    /   O peration     | Website:  https://openfoam.org
    \\  /    A nd           | Version:  7
     \\/     M anipulation  |
\*---------------------------------------------------------------------------*/
FoamFile
{
    version     2.0;
    format      ascii;
    class       volVectorField;
    location    "0.4";
    object      U;
}
// * * * * * * * * * * * * * * * * * * * * * * * * * * * * * * * * * * * * * //

dimensions      [0 1 -1 0 0 0 0];

internalField   nonuniform List<vector> 
900
(
(0.000264097 8.55594e-05 0)
(-0.000787285 0.000135423 0)
(-0.000643465 0.000275574 0)
(-0.00201291 0.000213792 0)
(-0.00202233 0.00026337 0)
(-0.00314162 0.000209306 0)
(-0.00334513 0.000223569 0)
(-0.00410265 0.000187122 0)
(-0.00447142 0.000176273 0)
(-0.00491255 0.000154056 0)
(-0.00528635 0.00012702 0)
(-0.00557763 0.000102113 0)
(-0.00580532 7.62004e-05 0)
(-0.00596353 4.81859e-05 0)
(-0.00604986 1.97672e-05 0)
(-0.00606241 -8.31762e-06 0)
(-0.0059998 -3.70845e-05 0)
(-0.00586294 -6.62319e-05 0)
(-0.00565519 -9.37123e-05 0)
(-0.00538505 -0.000119488 0)
(-0.00502441 -0.000149078 0)
(-0.00456796 -0.000175322 0)
(-0.00424586 -0.000184655 0)
(-0.00341504 -0.000230397 0)
(-0.00329236 -0.000213084 0)
(-0.00203511 -0.000284366 0)
(-0.00212652 -0.000225299 0)
(-0.00058252 -0.000299651 0)
(-0.000842241 -0.000130025 0)
(0.000330715 -8.19317e-05 0)
(0.000780684 0.000464643 0)
(-0.00188998 0.000815399 0)
(-0.00118205 0.00119997 0)
(-0.00405627 0.00107558 0)
(-0.00380072 0.00115735 0)
(-0.00604916 0.00101127 0)
(-0.0062959 0.000995857 0)
(-0.00775885 0.000875304 0)
(-0.00840895 0.000798461 0)
(-0.00921633 0.000695215 0)
(-0.00990315 0.000579739 0)
(-0.010435 0.000463149 0)
(-0.0108496 0.000341706 0)
(-0.0111358 0.000214804 0)
(-0.0112898 8.51758e-05 0)
(-0.0113079 -4.4846e-05 0)
(-0.0111873 -0.000175634 0)
(-0.0109312 -0.00030641 0)
(-0.0105459 -0.000433332 0)
(-0.0100465 -0.000555074 0)
(-0.00937668 -0.000679589 0)
(-0.00853594 -0.00079435 0)
(-0.00797929 -0.000873094 0)
(-0.00636552 -0.0010159 0)
(-0.0063013 -0.00102942 0)
(-0.0037767 -0.00121245 0)
(-0.00430109 -0.00111046 0)
(-0.00105604 -0.00126134 0)
(-0.00209067 -0.00081111 0)
(0.000962167 -0.000462842 0)
(0.0010688 0.00107451 0)
(-0.00238798 0.00198396 0)
(-0.00138579 0.00252897 0)
(-0.00486638 0.00243277 0)
(-0.00447162 0.00245738 0)
(-0.00714082 0.00225488 0)
(-0.00738527 0.00213913 0)
(-0.00910164 0.00192866 0)
(-0.00984607 0.00173282 0)
(-0.0107823 0.00150702 0)
(-0.0115768 0.00126289 0)
(-0.0121921 0.0010072 0)
(-0.012671 0.000739581 0)
(-0.0130016 0.000462854 0)
(-0.0131794 0.000180761 0)
(-0.0131986 -0.000103569 0)
(-0.013057 -0.000388732 0)
(-0.0127594 -0.000672487 0)
(-0.0123122 -0.0009502 0)
(-0.0117325 -0.00121833 0)
(-0.0109558 -0.00147878 0)
(-0.00997952 -0.00172207 0)
(-0.00934431 -0.00193092 0)
(-0.0074508 -0.00216921 0)
(-0.00742855 -0.00229342 0)
(-0.00443657 -0.00253503 0)
(-0.00517587 -0.00249713 0)
(-0.001246 -0.00262331 0)
(-0.00267653 -0.00201696 0)
(0.00130727 -0.00109687 0)
(0.00114469 0.00173619 0)
(-0.0025861 0.00327493 0)
(-0.00150687 0.00392333 0)
(-0.00520581 0.00388137 0)
(-0.00477867 0.00381958 0)
(-0.00760203 0.00357748 0)
(-0.00785957 0.00334637 0)
(-0.00967234 0.00304797 0)
(-0.010461 0.00272404 0)
(-0.0114496 0.00237013 0)
(-0.0122874 0.00198848 0)
(-0.0129383 0.00158455 0)
(-0.0134452 0.00116216 0)
(-0.0137941 0.000726619 0)
(-0.0139816 0.000282971 0)
(-0.0140027 -0.000165354 0)
(-0.0138551 -0.000615342 0)
(-0.0135422 -0.00106188 0)
(-0.0130702 -0.00149891 0)
(-0.012458 -0.00192195 0)
(-0.0116385 -0.00232717 0)
(-0.0106092 -0.00270575 0)
(-0.00993511 -0.00305565 0)
(-0.0079364 -0.00338426 0)
(-0.0079107 -0.00363543 0)
(-0.00474504 -0.00391393 0)
(-0.00553431 -0.00397541 0)
(-0.00135359 -0.00404448 0)
(-0.00289157 -0.00335269 0)
(0.00140461 -0.00178499 0)
(0.00113721 0.002444 0)
(-0.00267996 0.00462376 0)
(-0.00162399 0.00537705 0)
(-0.00543335 0.00538481 0)
(-0.00502901 0.00523405 0)
(-0.00794114 0.00494586 0)
(-0.00823532 0.00459756 0)
(-0.0101077 0.00420522 0)
(-0.0109388 0.00375094 0)
(-0.0119648 0.00326362 0)
(-0.0128383 0.00273828 0)
(-0.0135175 0.00218089 0)
(-0.0140451 0.00159983 0)
(-0.0144085 0.00100124 0)
(-0.0146053 0.000390246 0)
(-0.0146303 -0.000228099 0)
(-0.0144797 -0.000847903 0)
(-0.0141564 -0.00146185 0)
(-0.0136677 -0.00206344 0)
(-0.0130319 -0.00264753 0)
(-0.0121799 -0.00320467 0)
(-0.0111159 -0.00372528 0)
(-0.0103992 -0.00421902 0)
(-0.0083365 -0.00464652 0)
(-0.00827518 -0.00502881 0)
(-0.00500741 -0.00535232 0)
(-0.00577079 -0.00551764 0)
(-0.00146125 -0.00553144 0)
(-0.00298042 -0.00474534 0)
(0.00140247 -0.00251422 0)
(0.00111529 0.00319702 0)
(-0.00275198 0.0060306 0)
(-0.00175949 0.00690922 0)
(-0.005668 0.00695565 0)
(-0.00532298 0.00671784 0)
(-0.00831932 0.00637406 0)
(-0.00867128 0.00590739 0)
(-0.0106015 0.00541245 0)
(-0.011491 0.00482326 0)
(-0.0125574 0.00419455 0)
(-0.0134711 0.00351937 0)
(-0.0141823 0.00280367 0)
(-0.0147338 0.00205776 0)
(-0.0151149 0.00128889 0)
(-0.0153234 0.000503729 0)
(-0.0153531 -0.00029058 0)
(-0.0151994 -0.00108615 0)
(-0.0148655 -0.00187447 0)
(-0.0143598 -0.00264827 0)
(-0.0136978 -0.00340063 0)
(-0.0128084 -0.00411741 0)
(-0.0117095 -0.00478887 0)
(-0.0109341 -0.00543175 0)
(-0.0088115 -0.00597068 0)
(-0.00868828 -0.00648846 0)
(-0.00532587 -0.00687031 0)
(-0.00602515 -0.00713784 0)
(-0.00160233 -0.00710471 0)
(-0.0030525 -0.00619439 0)
(0.00138052 -0.00328518 0)
(0.00109626 0.00399409 0)
(-0.00283366 0.00750604 0)
(-0.00192839 0.00853333 0)
(-0.00594925 0.00860868 0)
(-0.00568773 0.00828574 0)
(-0.00877802 0.00787693 0)
(-0.00921185 0.00728815 0)
(-0.0112078 0.00667946 0)
(-0.0121726 0.00594951 0)
(-0.0132861 0.0051721 0)
(-0.0142477 0.00433972 0)
(-0.0149983 0.00345788 0)
(-0.0155796 0.00253898 0)
(-0.0159826 0.00159211 0)
(-0.0162051 0.000625624 0)
(-0.0162405 -0.000351763 0)
(-0.0160835 -0.00133089 0)
(-0.015738 -0.00230236 0)
(-0.0152125 -0.00325737 0)
(-0.0145187 -0.00418644 0)
(-0.0135845 -0.00507214 0)
(-0.0124461 -0.00590523 0)
(-0.0115941 -0.00670509 0)
(-0.00940642 -0.00736873 0)
(-0.00919641 -0.00802777 0)
(-0.00573083 -0.00848235 0)
(-0.00633863 -0.00885089 0)
(-0.00178876 -0.00878103 0)
(-0.00314411 -0.00771725 0)
(0.00135956 -0.00410247 0)
(0.00108031 0.00483967 0)
(-0.00293357 0.00906764 0)
(-0.00213309 0.0102678 0)
(-0.00628742 0.0103668 0)
(-0.00613427 0.00995831 0)
(-0.00933397 0.00947127 0)
(-0.00987284 0.00875401 0)
(-0.0119438 0.00802053 0)
(-0.0130005 0.00714226 0)
(-0.01417 0.00620632 0)
(-0.0151883 0.00520666 0)
(-0.0159861 0.00414903 0)
(-0.0166027 0.00304824 0)
(-0.0170315 0.00191483 0)
(-0.0172705 0.000758327 0)
(-0.0173128 -0.000411027 0)
(-0.0171531 -0.001583 0)
(-0.0167951 -0.00274758 0)
(-0.0162468 -0.0038942 0)
(-0.0155153 -0.0050106 0)
(-0.0145296 -0.00607716 0)
(-0.0133455 -0.00708502 0)
(-0.0123989 -0.00805253 0)
(-0.0101386 -0.00885599 0)
(-0.00981779 -0.00966426 0)
(-0.00623513 -0.0102074 0)
(-0.00672592 -0.0106783 0)
(-0.00202588 -0.0105825 0)
(-0.00326505 -0.00934007 0)
(0.00134038 -0.00497732 0)
(0.00106476 0.00574352 0)
(-0.00305663 0.0107398 0)
(-0.00238069 0.0121361 0)
(-0.0066932 0.0122532 0)
(-0.00667338 0.0117554 0)
(-0.00999937 0.0111765 0)
(-0.0106649 0.0103223 0)
(-0.0128213 0.00945079 0)
(-0.0139867 0.00841331 0)
(-0.0152222 0.00730629 0)
(-0.0163055 0.00612762 0)
(-0.0171572 0.00488361 0)
(-0.0178143 0.00359084 0)
(-0.018273 0.00226085 0)
(-0.0185314 0.000904127 0)
(-0.0185822 -0.000467543 0)
(-0.0184205 -0.00184304 0)
(-0.0180496 -0.00321186 0)
(-0.017476 -0.00456189 0)
(-0.0167019 -0.00587843 0)
(-0.0156591 -0.00714034 0)
(-0.0144226 -0.00833857 0)
(-0.0133645 -0.00948766 0)
(-0.011022 -0.0104491 0)
(-0.0105662 -0.0114181 0)
(-0.00684921 -0.0120673 0)
(-0.00719659 -0.0126456 0)
(-0.00231822 -0.0125335 0)
(-0.00341789 -0.0110905 0)
(0.00132065 -0.00592397 0)
(0.00104644 0.00671822 0)
(-0.00320856 0.0125456 0)
(-0.00268098 0.0141609 0)
(-0.0071782 0.0142916 0)
(-0.00731614 0.0136983 0)
(-0.0107865 0.013013 0)
(-0.0116007 0.01201 0)
(-0.0138544 0.0109842 0)
(-0.0151445 0.00977378 0)
(-0.0164558 0.00848131 0)
(-0.0176112 0.00711037 0)
(-0.018523 0.00566769 0)
(-0.0192255 0.00417115 0)
(-0.0197183 0.00263326 0)
(-0.019999 0.00106533 0)
(-0.0200601 -0.000519862 0)
(-0.0198975 -0.00211074 0)
(-0.019514 -0.00369627 0)
(-0.0189135 -0.00526319 0)
(-0.0180936 -0.00679513 0)
(-0.0169896 -0.00826937 0)
(-0.0156938 -0.00967612 0)
(-0.0145085 -0.0110238 0)
(-0.0120737 -0.0121645 0)
(-0.011458 -0.0133105 0)
(-0.00758603 -0.0140862 0)
(-0.00776064 -0.0147811 0)
(-0.00267109 -0.0146623 0)
(-0.00360386 -0.0129977 0)
(0.0012986 -0.0069581 0)
(0.00102348 0.00777952 0)
(-0.00339285 0.0145118 0)
(-0.00304129 0.0163687 0)
(-0.00775287 0.0165087 0)
(-0.00807534 0.0158103 0)
(-0.0117104 0.0150013 0)
(-0.0126962 0.0138337 0)
(-0.0150593 0.0126344 0)
(-0.0164889 0.011235 0)
(-0.0178856 0.00974069 0)
(-0.0191193 0.00816221 0)
(-0.0200965 0.00650676 0)
(-0.0208487 0.00479315 0)
(-0.0213788 0.00303496 0)
(-0.0216846 0.00124415 0)
(-0.0217583 -0.000566332 0)
(-0.0215969 -0.0023852 0)
(-0.0212022 -0.00420088 0)
(-0.0205749 -0.00599926 0)
(-0.0197079 -0.00776366 0)
(-0.0185401 -0.00947001 0)
(-0.0171782 -0.0111072 0)
(-0.0158518 -0.012675 0)
(-0.0133143 -0.0140201 0)
(-0.0125135 -0.0153645 0)
(-0.00846285 -0.0162908 0)
(-0.0084315 -0.0171172 0)
(-0.00309265 -0.0170017 0)
(-0.0038255 -0.0150936 0)
(0.0012729 -0.00809678 0)
(0.000995034 0.00894556 0)
(-0.00361242 0.0166699 0)
(-0.00346973 0.0187914 0)
(-0.00842996 0.0189344 0)
(-0.00896737 0.0181165 0)
(-0.0127898 0.0171629 0)
(-0.0139704 0.0158106 0)
(-0.0164552 0.0144154 0)
(-0.0180376 0.0128072 0)
(-0.0195285 0.0110921 0)
(-0.0208453 0.00928862 0)
(-0.0218921 0.00740491 0)
(-0.0226973 0.00546021 0)
(-0.0232673 0.00346892 0)
(-0.0236003 0.00144336 0)
(-0.0236894 -0.000604214 0)
(-0.0235321 -0.00266392 0)
(-0.0231282 -0.00472415 0)
(-0.0224763 -0.00677015 0)
(-0.0215641 -0.0087855 0)
(-0.0203332 -0.0107458 0)
(-0.0189 -0.0126391 0)
(-0.0174202 -0.0144538 0)
(-0.0147699 -0.0160344 0)
(-0.0137579 -0.0176053 0)
(-0.00950256 -0.0187119 0)
(-0.00922777 -0.0196914 0)
(-0.00359549 -0.0195907 0)
(-0.00408813 -0.0174149 0)
(0.00124195 -0.0093594 0)
(0.000959986 0.0102365 0)
(-0.00387209 0.0190558 0)
(-0.00397776 0.0214655 0)
(-0.00922632 0.021602 0)
(-0.0100129 0.0206451 0)
(-0.0140474 0.0195212 0)
(-0.0154468 0.0179589 0)
(-0.0180651 0.0163406 0)
(-0.0198116 0.0144998 0)
(-0.021404 0.0125416 0)
(-0.0228066 0.0104934 0)
(-0.0239249 0.00836469 0)
(-0.0247846 0.0061746 0)
(-0.0253957 0.00393749 0)
(-0.0257578 0.0016655 0)
(-0.0258656 -0.00063046 0)
(-0.0257169 -0.00294296 0)
(-0.0253085 -0.00526196 0)
(-0.0246363 -0.00757311 0)
(-0.0236833 -0.00986009 0)
(-0.0223938 -0.0120986 0)
(-0.0208875 -0.0142768 0)
(-0.0192456 -0.0163707 0)
(-0.0164737 -0.0182248 0)
(-0.0152242 -0.0200594 0)
(-0.0107358 -0.0213841 0)
(-0.0101749 -0.0225467 0)
(-0.00419768 -0.0224758 0)
(-0.00440054 -0.0200055 0)
(0.00120357 -0.0107694 0)
(0.000916773 0.0116755 0)
(-0.00417896 0.0217106 0)
(-0.00458054 0.0244334 0)
(-0.0101636 0.0245503 0)
(-0.0112384 0.0234278 0)
(-0.0155118 0.0221014 0)
(-0.0171545 0.0202966 0)
(-0.0199171 0.0184224 0)
(-0.021836 0.0163202 0)
(-0.0235346 0.0140934 0)
(-0.0250224 0.0117782 0)
(-0.026211 0.00938642 0)
(-0.0271245 0.0069366 0)
(-0.0277764 0.00444186 0)
(-0.0281683 0.00191291 0)
(-0.0282979 -0.000641767 0)
(-0.0281636 -0.00321774 0)
(-0.0277584 -0.0058079 0)
(-0.0270745 -0.00840079 0)
(-0.0260894 -0.0109813 0)
(-0.0247503 -0.0135254 0)
(-0.0231735 -0.0160219 0)
(-0.0213666 -0.0184338 0)
(-0.0184678 -0.0206081 0)
(-0.0169549 -0.0227542 0)
(-0.0122033 -0.0243458 0)
(-0.0113072 -0.025733 0)
(-0.00492404 -0.0257128 0)
(-0.00477523 -0.0229189 0)
(0.00115496 -0.0123563 0)
(0.000863262 0.0132908 0)
(-0.00454282 0.0246843 0)
(-0.00529836 0.0277465 0)
(-0.0112705 0.0278246 0)
(-0.0126781 0.0265001 0)
(-0.0172194 0.0249292 0)
(-0.0191296 0.0228403 0)
(-0.0220447 0.0206695 0)
(-0.0241401 0.0182716 0)
(-0.0259457 0.0157471 0)
(-0.0275137 0.0131408 0)
(-0.0287666 0.0104671 0)
(-0.0297292 0.00774378 0)
(-0.0304195 0.00498158 0)
(-0.0308414 0.00218802 0)
(-0.0309963 -0.000632822 0)
(-0.0308831 -0.00348076 0)
(-0.0304916 -0.00635267 0)
(-0.0298096 -0.00924206 0)
(-0.0288078 -0.0121374 0)
(-0.027435 -0.0150169 0)
(-0.0257972 -0.0178695 0)
(-0.0238299 -0.0206462 0)
(-0.0208048 -0.0231978 0)
(-0.019005 -0.0257172 0)
(-0.0139591 -0.0276396 0)
(-0.0126711 -0.0293086 0)
(-0.00580828 -0.0293701 0)
(-0.00522924 -0.0262225 0)
(0.00109256 -0.0141578 0)
(0.000796343 0.0151168 0)
(-0.00497781 0.0280387 0)
(-0.00615964 0.0314671 0)
(-0.0125863 0.0314781 0)
(-0.014378 0.0299018 0)
(-0.0192178 0.0280316 0)
(-0.0214182 0.0256049 0)
(-0.0244894 0.0230873 0)
(-0.0267581 0.0203521 0)
(-0.0286651 0.0174968 0)
(-0.0303025 0.0145738 0)
(-0.0316081 0.0115997 0)
(-0.0326101 0.00859062 0)
(-0.0333322 0.00555381 0)
(-0.0337828 0.00249196 0)
(-0.0339668 -0.00059765 0)
(-0.0338836 -0.00372133 0)
(-0.0335198 -0.00688193 0)
(-0.0328592 -0.0100799 0)
(-0.0318642 -0.0133099 0)
(-0.0304831 -0.0165552 0)
(-0.028804 -0.0198058 0)
(-0.0266928 -0.0230024 0)
(-0.0235515 -0.0260022 0)
(-0.0214459 -0.0289745 0)
(-0.0160753 -0.0313126 0)
(-0.01433 -0.0333429 0)
(-0.00689705 -0.0335332 0)
(-0.00578614 -0.0300021 0)
(0.00101168 -0.0162225 0)
(0.000711411 0.0171979 0)
(-0.00550456 0.0318511 0)
(-0.00720461 0.0356717 0)
(-0.014165 0.035573 0)
(-0.0163995 0.0336765 0)
(-0.0215687 0.0314344 0)
(-0.0240782 0.0286013 0)
(-0.0273016 0.025675 0)
(-0.0297306 0.0225526 0)
(-0.0317236 0.0193285 0)
(-0.0334109 0.0160621 0)
(-0.0347499 0.0127709 0)
(-0.0357753 0.00946713 0)
(-0.0365183 0.00615301 0)
(-0.036993 0.00282453 0)
(-0.0372097 -0.000529965 0)
(-0.0371675 -0.00392604 0)
(-0.0368502 -0.00737564 0)
(-0.0362376 -0.0108889 0)
(-0.0352831 -0.0144698 0)
(-0.0339317 -0.0181104 0)
(-0.0322455 -0.0218041 0)
(-0.0300242 -0.0254847 0)
(-0.0267918 -0.0290194 0)
(-0.0243716 -0.0325474 0)
(-0.0186505 -0.0354157 0)
(-0.0163728 -0.0379194 0)
(-0.0082573 -0.038311 0)
(-0.00648025 -0.0343706 0)
(0.00090551 -0.0186145 0)
(0.000601599 0.0195922 0)
(-0.00615314 0.0362214 0)
(-0.00849057 0.0404551 0)
(-0.0160815 0.0401827 0)
(-0.0188252 0.0378708 0)
(-0.024352 0.0351603 0)
(-0.0271822 0.0318329 0)
(-0.0305425 0.0284219 0)
(-0.0331048 0.0248534 0)
(-0.0351552 0.0212178 0)
(-0.0368603 0.0175806 0)
(-0.0382033 0.0139584 0)
(-0.0392282 0.0103565 0)
(-0.039975 0.00676953 0)
(-0.0404659 0.00318412 0)
(-0.0407175 -0.000422665 0)
(-0.0407294 -0.00407835 0)
(-0.0404827 -0.00780752 0)
(-0.0399535 -0.0116339 0)
(-0.0390858 -0.0155751 0)
(-0.0378184 -0.0196367 0)
(-0.0361791 -0.0238196 0)
(-0.0339058 -0.0280565 0)
(-0.0306317 -0.0322307 0)
(-0.0279066 -0.0364465 0)
(-0.0218207 -0.0400005 0)
(-0.0189277 -0.043138 0)
(-0.00998878 -0.0438445 0)
(-0.00736415 -0.0394795 0)
(0.000763218 -0.0214208 0)
(0.000456204 0.0223787 0)
(-0.00696828 0.0412818 0)
(-0.0101006 0.0459389 0)
(-0.0184415 0.0453949 0)
(-0.0217675 0.0425343 0)
(-0.0276732 0.039225 0)
(-0.0308213 0.0352897 0)
(-0.0342857 0.031301 0)
(-0.0369353 0.0272181 0)
(-0.0389961 0.0231252 0)
(-0.0406705 0.0190913 0)
(-0.0419743 0.0151291 0)
(-0.0429643 0.0112336 0)
(-0.0436908 0.00738829 0)
(-0.0441854 0.00356683 0)
(-0.0444724 -0.000267773 0)
(-0.0445526 -0.00415799 0)
(-0.0444059 -0.00814446 0)
(-0.0440053 -0.0122688 0)
(-0.0432861 -0.0165675 0)
(-0.0421774 -0.0210666 0)
(-0.0406657 -0.0257812 0)
(-0.0384332 -0.0306525 0)
(-0.0352027 -0.0355898 0)
(-0.0322157 -0.0406616 0)
(-0.025776 -0.0451135 0)
(-0.0221825 -0.0491168 0)
(-0.0122446 -0.0503193 0)
(-0.00852177 -0.0455387 0)
(0.000566366 -0.0247652 0)
(0.000257477 0.0256683 0)
(-0.00801926 0.047212 0)
(-0.0121581 0.0522791 0)
(-0.0213958 0.0513126 0)
(-0.0253814 0.0477148 0)
(-0.0316715 0.0436309 0)
(-0.0351107 0.0389419 0)
(-0.0386189 0.0342626 0)
(-0.0412817 0.0295877 0)
(-0.0432818 0.0249918 0)
(-0.0448566 0.0205404 0)
(-0.0460612 0.0162377 0)
(-0.0469692 0.0120639 0)
(-0.0476419 0.00798714 0)
(-0.0481221 0.00396447 0)
(-0.0484426 -5.85876e-05 0)
(-0.0486063 -0.00414171 0)
(-0.0485937 -0.00834598 0)
(-0.0483767 -0.0127348 0)
(-0.047884 -0.0173699 0)
(-0.0470332 -0.0223056 0)
(-0.0457648 -0.0275825 0)
(-0.0437127 -0.0331655 0)
(-0.0406656 -0.0390056 0)
(-0.0375165 -0.0451437 0)
(-0.0307848 -0.0507815 0)
(-0.026419 -0.0559895 0)
(-0.0152675 -0.0579814 0)
(-0.0100939 -0.0528476 0)
(0.000281125 -0.0288316 0)
(-2.57577e-05 0.0296232 0)
(-0.00941774 0.0542618 0)
(-0.0148516 0.059678 0)
(-0.0251637 0.0580523 0)
(-0.0298805 0.0534489 0)
(-0.0365302 0.0483547 0)
(-0.0401941 0.0427283 0)
(-0.0436447 0.0372246 0)
(-0.0462074 0.0318733 0)
(-0.0480432 0.0267325 0)
(-0.0494245 0.021853 0)
(-0.0504508 0.0172227 0)
(-0.051215 0.0128011 0)
(-0.0517902 0.00853611 0)
(-0.052231 0.00436426 0)
(-0.0525786 0.000210964 0)
(-0.0528399 -0.00400387 0)
(-0.0529989 -0.00836444 0)
(-0.0530292 -0.0129598 0)
(-0.052857 -0.0178828 0)
(-0.0523907 -0.0232262 0)
(-0.0515246 -0.0290708 0)
(-0.0498553 -0.0354287 0)
(-0.04721 -0.0423173 0)
(-0.0440926 -0.0497731 0)
(-0.0372261 -0.0569824 0)
(-0.0320667 -0.063892 0)
(-0.0194564 -0.0671558 0)
(-0.0123328 -0.0618475 0)
(-0.000160462 -0.0339117 0)
(-0.000451678 0.0344927 0)
(-0.0113515 0.0627876 0)
(-0.0184766 0.0683976 0)
(-0.0300683 0.0657384 0)
(-0.0355596 0.0597455 0)
(-0.0424864 0.0533265 0)
(-0.0462441 0.0465363 0)
(-0.0494773 0.0400582 0)
(-0.0517743 0.0339457 0)
(-0.0533005 0.0282297 0)
(-0.0543647 0.0229295 0)
(-0.0551114 0.0180044 0)
(-0.0556539 0.0133862 0)
(-0.0560767 0.00899642 0)
(-0.0564451 0.00474759 0)
(-0.0568086 0.000543398 0)
(-0.0571793 -0.00371899 0)
(-0.0575471 -0.00814767 0)
(-0.0578926 -0.0128602 0)
(-0.0581479 -0.0179856 0)
(-0.0582188 -0.023665 0)
(-0.0579628 -0.0300374 0)
(-0.0569566 -0.037194 0)
(-0.0550411 -0.0452571 0)
(-0.0522981 -0.0543075 0)
(-0.0456291 -0.0635858 0)
(-0.0397881 -0.0729207 0)
(-0.0254905 -0.0782607 0)
(-0.0157202 -0.0732066 0)
(-0.000906781 -0.0405022 0)
(-0.00113632 0.0406807 0)
(-0.0141515 0.0733074 0)
(-0.0235056 0.0787705 0)
(-0.036588 0.0744835 0)
(-0.0428223 0.0665547 0)
(-0.049839 0.0583978 0)
(-0.0534568 0.0501756 0)
(-0.056228 0.0425673 0)
(-0.0580255 0.0356248 0)
(-0.0590456 0.0293279 0)
(-0.0596348 0.0236426 0)
(-0.0599782 0.0184841 0)
(-0.0602062 0.0137467 0)
(-0.0604111 0.00931934 0)
(-0.0606656 0.00508805 0)
(-0.061026 0.000934445 0)
(-0.0615108 -0.00326559 0)
(-0.062119 -0.00764373 0)
(-0.0628452 -0.0123461 0)
(-0.0636388 -0.0175406 0)
(-0.064418 -0.0234236 0)
(-0.0650254 -0.0302102 0)
(-0.0650489 -0.0381078 0)
(-0.064332 -0.0473999 0)
(-0.0625314 -0.0582983 0)
(-0.0566974 -0.0702434 0)
(-0.0505901 -0.0830318 0)
(-0.0345404 -0.0917901 0)
(-0.0212178 -0.0879618 0)
(-0.00229877 -0.0495255 0)
(-0.00232473 0.0488833 0)
(-0.0184274 0.0865826 0)
(-0.0307025 0.0911904 0)
(-0.0454156 0.0843345 0)
(-0.05219 0.0737056 0)
(-0.0589226 0.0632897 0)
(-0.0620023 0.05334 0)
(-0.0639439 0.0444654 0)
(-0.0649198 0.0366649 0)
(-0.0651788 0.0298271 0)
(-0.0650975 0.0238359 0)
(-0.0648907 0.0185439 0)
(-0.0646967 0.0137969 0)
(-0.0646082 0.00944642 0)
(-0.0646982 0.00535104 0)
(-0.0650258 0.00137248 0)
(-0.0656159 -0.00263074 0)
(-0.0664805 -0.00680899 0)
(-0.0676366 -0.0113333 0)
(-0.0690653 -0.0164074 0)
(-0.0707188 -0.022282 0)
(-0.0724637 -0.0292583 0)
(-0.0739541 -0.0376958 0)
(-0.0750583 -0.0481084 0)
(-0.0750727 -0.0609726 0)
(-0.0712023 -0.0761931 0)
(-0.0658569 -0.0938019 0)
(-0.048528 -0.108183 0)
(-0.0307211 -0.107732 0)
(-0.00511167 -0.0628231 0)
(-0.00454715 0.060391 0)
(-0.0253213 0.103729 0)
(-0.0412525 0.106043 0)
(-0.0574328 0.0951437 0)
(-0.0641532 0.0807856 0)
(-0.0698814 0.0674995 0)
(-0.0717525 0.0555469 0)
(-0.0723097 0.0453396 0)
(-0.0720193 0.0367357 0)
(-0.0711855 0.0294746 0)
(-0.0701927 0.0233216 0)
(-0.0692613 0.0180468 0)
(-0.0685205 0.0134379 0)
(-0.0680489 0.00930764 0)
(-0.0679082 0.00548965 0)
(-0.0681535 0.00183062 0)
(-0.0688139 -0.00182167 0)
(-0.0699172 -0.00562519 0)
(-0.0715097 -0.00976712 0)
(-0.0736178 -0.0144732 0)
(-0.0762534 -0.0200339 0)
(-0.0793623 -0.0268301 0)
(-0.0827481 -0.0353909 0)
(-0.0863813 -0.0465151 0)
(-0.0893897 -0.061107 0)
(-0.0892602 -0.0799468 0)
(-0.0867661 -0.103901 0)
(-0.0699528 -0.127279 0)
(-0.0474707 -0.134694 0)
(-0.0109015 -0.0839994 0)
(-0.00891726 0.0777866 0)
(-0.0368554 0.126285 0)
(-0.0565769 0.123429 0)
(-0.0730258 0.106235 0)
(-0.078146 0.086864 0)
(-0.0814262 0.0701007 0)
(-0.0809045 0.0560054 0)
(-0.079189 0.0445723 0)
(-0.0769791 0.035377 0)
(-0.0745927 0.0279379 0)
(-0.0723678 0.0218627 0)
(-0.0704858 0.0168232 0)
(-0.0690343 0.0125452 0)
(-0.0680541 0.00880973 0)
(-0.0675793 0.00543051 0)
(-0.0676497 0.00224843 0)
(-0.06829 -0.000889949 0)
(-0.0695423 -0.00413403 0)
(-0.0714839 -0.00766882 0)
(-0.0741897 -0.0117181 0)
(-0.0777522 -0.0165815 0)
(-0.0822536 -0.0226827 0)
(-0.0877359 -0.0306927 0)
(-0.0943997 -0.0416762 0)
(-0.101571 -0.0570951 0)
(-0.107382 -0.0790972 0)
(-0.111121 -0.110403 0)
(-0.0990293 -0.147085 0)
(-0.0745237 -0.170383 0)
(-0.0217588 -0.119417 0)
(-0.0174766 0.105895 0)
(-0.055664 0.155145 0)
(-0.0758423 0.141811 0)
(-0.0879962 0.115239 0)
(-0.0875086 0.0896456 0)
(-0.0852551 0.0691936 0)
(-0.0801183 0.0532784 0)
(-0.074608 0.041138 0)
(-0.0694474 0.0318769 0)
(-0.064819 0.0247262 0)
(-0.0608957 0.0191172 0)
(-0.057736 0.0146294 0)
(-0.0553279 0.0109346 0)
(-0.0536391 0.00780441 0)
(-0.0526518 0.00504108 0)
(-0.0523713 0.00249844 0)
(-0.0528009 3.78325e-05 0)
(-0.0539847 -0.0024839 0)
(-0.0560177 -0.00520558 0)
(-0.0590112 -0.00832253 0)
(-0.0631299 -0.0121027 0)
(-0.0686114 -0.0169321 0)
(-0.0757604 -0.0235439 0)
(-0.0851097 -0.0331327 0)
(-0.0966449 -0.0477187 0)
(-0.109706 -0.0711686 0)
(-0.12327 -0.109364 0)
(-0.12266 -0.163392 0)
(-0.106021 -0.214281 0)
(-0.0367494 -0.180731 0)
(-0.0318814 0.150474 0)
(-0.0785515 0.184143 0)
(-0.0816013 0.152593 0)
(-0.0759716 0.114478 0)
(-0.0608365 0.0833023 0)
(-0.0472072 0.0607601 0)
(-0.0338986 0.0447074 0)
(-0.0224334 0.0333163 0)
(-0.0130188 0.0251291 0)
(-0.00535786 0.0191168 0)
(0.00076457 0.014599 0)
(0.0055411 0.0111134 0)
(0.00916486 0.00833969 0)
(0.0117874 0.00605433 0)
(0.0135058 0.00409808 0)
(0.0143837 0.00234666 0)
(0.0144364 0.000693545 0)
(0.0136571 -0.000968288 0)
(0.0119794 -0.00273094 0)
(0.00927044 -0.00472041 0)
(0.00535948 -0.00712631 0)
(-0.000100489 -0.0102467 0)
(-0.00757149 -0.0146564 0)
(-0.0178446 -0.0215066 0)
(-0.0318304 -0.0330984 0)
(-0.0504626 -0.0547892 0)
(-0.0748132 -0.0966622 0)
(-0.0925866 -0.168805 0)
(-0.108493 -0.260198 0)
(-0.0408473 -0.279752 0)
(-0.0336281 0.242797 0)
(-0.0501839 0.196258 0)
(0.0140333 0.13055 0)
(0.059989 0.0874708 0)
(0.100092 0.0580459 0)
(0.129816 0.039178 0)
(0.152763 0.0272195 0)
(0.170339 0.0194633 0)
(0.183648 0.0142683 0)
(0.193818 0.0106531 0)
(0.201623 0.00804918 0)
(0.207589 0.00610783 0)
(0.212102 0.00461476 0)
(0.215439 0.00341145 0)
(0.217787 0.00241538 0)
(0.219261 0.00155124 0)
(0.219926 0.000759408 0)
(0.21981 -2.01332e-06 0)
(0.218897 -0.000777875 0)
(0.2171 -0.00162843 0)
(0.21427 -0.00263222 0)
(0.210127 -0.00393454 0)
(0.204219 -0.00577992 0)
(0.195676 -0.00889553 0)
(0.182819 -0.0149214 0)
(0.163173 -0.0285658 0)
(0.130808 -0.0618427 0)
(0.091318 -0.136195 0)
(0.000151236 -0.265129 0)
(0.0166882 -0.350635 0)
(0.236427 0.162885 0)
(0.297539 0.117691 0)
(0.441348 0.0717417 0)
(0.524131 0.0440352 0)
(0.572629 0.0266567 0)
(0.603056 0.0161019 0)
(0.623262 0.0100186 0)
(0.637185 0.00652509 0)
(0.647068 0.0044622 0)
(0.654301 0.00318053 0)
(0.659714 0.00233591 0)
(0.663808 0.001749 0)
(0.66691 0.00132276 0)
(0.669239 0.000995957 0)
(0.670942 0.000735528 0)
(0.672116 0.000519971 0)
(0.672818 0.00033211 0)
(0.673088 0.000162099 0)
(0.672932 7.6769e-06 0)
(0.672321 -0.000152828 0)
(0.671205 -0.000331788 0)
(0.669464 -0.000550377 0)
(0.666836 -0.000841198 0)
(0.662884 -0.00133517 0)
(0.655972 -0.00247897 0)
(0.643879 -0.00512873 0)
(0.614853 -0.0131597 0)
(0.564511 -0.0353475 0)
(0.39714 -0.100168 0)
(0.294131 -0.169905 0)
)
;

boundaryField
{
    movingWall
    {
        type            fixedValue;
        value           uniform (1 0 0);
    }
    fixedWalls
    {
        type            noSlip;
    }
    frontAndBack
    {
        type            empty;
    }
}


// ************************************************************************* //
