/*--------------------------------*- C++ -*----------------------------------*\
  =========                 |
  \\      /  F ield         | OpenFOAM: The Open Source CFD Toolbox
   \\    /   O peration     | Website:  https://openfoam.org
    \\  /    A nd           | Version:  7
     \\/     M anipulation  |
\*---------------------------------------------------------------------------*/
FoamFile
{
    version     2.0;
    format      ascii;
    class       volScalarField;
    location    "1.4";
    object      p;
}
// * * * * * * * * * * * * * * * * * * * * * * * * * * * * * * * * * * * * * //

dimensions      [0 2 -2 0 0 0 0];

internalField   nonuniform List<scalar> 
900
(
-2.29577e-08
-0.000138752
-0.000229318
-0.000262053
-0.000215815
-8.53939e-05
0.000126146
0.000413784
0.00077241
0.00119688
0.00168174
0.00222088
0.00280739
0.00343339
0.00408995
0.00476712
0.00545395
0.00613855
0.0068083
0.00744995
0.00804996
0.00859468
0.00907069
0.00946507
0.00976582
0.00996283
0.0100508
0.0100365
0.0099463
0.00979511
0.000137521
-2.45019e-06
-6.47204e-05
-6.98326e-05
-9.67899e-06
0.000122487
0.000327017
0.00060174
0.000943449
0.00134811
0.00181087
0.00232602
0.00288694
0.00348601
0.00411459
0.00476302
0.00542066
0.00607601
0.00671682
0.00733033
0.0079035
0.00842339
0.00887754
0.00925456
0.00954481
0.00974146
0.00984293
0.00985773
0.00979834
0.00964659
0.000230575
5.65778e-05
-7.83205e-06
-8.22544e-06
5.46437e-05
0.000186379
0.000387544
0.000656557
0.000990889
0.00138706
0.00184066
0.00234629
0.00289759
0.00348715
0.0041065
0.00474613
0.00539564
0.00604348
0.00667749
0.00728492
0.00785279
0.00836818
0.00881876
0.00919336
0.00948273
0.00968036
0.00978478
0.00980352
0.00974026
0.00955146
0.000267005
5.48232e-05
-2.0089e-05
-2.31418e-05
3.858e-05
0.000169135
0.000368478
0.000634982
0.000966394
0.0013596
0.00181051
0.00231404
0.00286408
0.00345339
0.00407365
0.00471538
0.00536835
0.00602076
0.00666034
0.00727413
0.0078488
0.00837111
0.00882832
0.0092089
0.00950318
0.00970403
0.00980908
0.00982451
0.00974839
0.00951815
0.00022183
-2.03659e-05
-0.000106013
-0.000113698
-5.42583e-05
7.53359e-05
0.000274449
0.00054129
0.000873734
0.00126891
0.00172301
0.00223121
0.00278759
0.00338511
0.00401553
0.00466942
0.00533619
0.00600411
0.00666047
0.00729182
0.00788423
0.0084237
0.00889669
0.00929085
0.00959559
0.00980286
0.00990928
0.00992028
0.00983118
0.00956741
8.47733e-05
-0.000181193
-0.000276842
-0.00028956
-0.000232306
-0.000102605
9.84678e-05
0.00036896
0.000706819
0.00110936
0.00157299
0.00209311
0.002664
0.00327875
0.00392916
0.00460567
0.00529759
0.00599272
0.00667788
0.00733884
0.00796075
0.00852846
0.00902722
0.00944334
0.00976497
0.00998283
0.0100927
0.0100997
0.00999839
0.00970632
-0.000147237
-0.000434283
-0.000539393
-0.000556838
-0.000500956
-0.000369538
-0.000163965
0.00011369
0.000461443
0.000876781
0.00135632
0.00189567
0.0024893
0.0031304
0.00381082
0.00452093
0.00524945
0.00598399
0.00671057
0.00741395
0.00807796
0.00868596
0.00922144
0.00966893
0.0100148
0.0102484
0.0103645
0.0103687
0.0102554
0.00993602
-0.000476504
-0.000784911
-0.000899435
-0.000921106
-0.000865489
-0.000730506
-0.000517766
-0.000229426
0.000132628
0.000566073
0.00106776
0.00163352
0.002258
0.00293454
0.00365498
0.00440958
0.00518682
0.00597361
0.00675504
0.00751464
0.00823459
0.00889626
0.00948087
0.00997054
0.0103494
0.0106049
0.0107308
0.0107334
0.0106076
0.0102582
-0.000906817
-0.00123898
-0.00136345
-0.00138897
-0.0013325
-0.00119208
-0.000969533
-0.000667079
-0.000286471
0.000170197
0.00070005
0.0012992
0.00196254
0.00268357
0.0034542
0.00426458
0.00510298
0.00595554
0.00680629
0.00763727
0.00842867
0.00915931
0.0098075
0.0103522
0.0107745
0.0110592
0.0111992
0.0112015
0.0110617
0.0106768
-0.00144396
-0.00180366
-0.00193915
-0.00196836
-0.00191003
-0.00176239
-0.00152752
-0.00120771
-0.000804533
-0.000319802
0.00024395
0.000883189
0.00159315
0.00236761
0.00319863
0.00407638
0.00498881
0.00592145
0.00685723
0.00777644
0.0086569
0.00947432
0.0102032
0.0108184
0.011297
0.0116203
0.0117795
0.0117827
0.0116265
0.0111985
-0.00209581
-0.00248785
-0.00263581
-0.00266877
-0.00260774
-0.00245124
-0.00220173
-0.00186155
-0.00143211
-0.000914835
-0.000311848
0.000373789
0.00113777
0.0019743
0.00287577
0.00383249
0.00483228
0.00586019
0.00689803
0.00792427
0.00891397
0.00983906
0.0106693
0.0113742
0.0119251
0.0122987
0.0124836
0.0124892
0.0123132
0.0118321
-0.00287232
-0.0033024
-0.00346466
-0.00350163
-0.00343718
-0.00327033
-0.00300403
-0.00264078
-0.00218172
-0.00162788
-0.000980825
-0.000243027
0.000581837
0.00148858
0.00247017
0.00351732
0.00461801
0.00575704
0.00691531
0.00806945
0.0091915
0.010249
0.0112057
0.0120241
0.0126679
0.0131071
0.0133262
0.0133359
0.0131358
0.0125887
-0.00378568
-0.0042605
-0.00443924
-0.00448059
-0.00441205
-0.00423343
-0.00394839
-0.00355962
-0.00306802
-0.00247409
-0.00177875
-0.000983736
-9.18988e-05
0.000892436
0.0019631
0.00311161
0.0043265
0.00559284
0.00689095
0.00819592
0.00947667
0.0106957
0.0118097
0.0127717
0.0135352
0.0140604
0.0143254
0.0143418
0.0141115
0.0134813
-0.00485053
-0.00537805
-0.00557577
-0.00562187
-0.00554851
-0.00535668
-0.00505102
-0.00463453
-0.00410784
-0.00347086
-0.00272375
-0.00186734
-0.000903461
0.000164704
0.00133223
0.0025919
0.00393345
0.0053429
0.00680075
0.00828112
0.00975017
0.011165
0.0124739
0.013618
0.0145366
0.0151757
0.0155032
0.0155301
0.0152617
0.0145251
-0.00608436
-0.00667423
-0.00689375
-0.00694481
-0.00686559
-0.00665885
-0.0063306
-0.0058843
-0.00532029
-0.00463786
-0.00383627
-0.00291533
-0.00187564
-0.000718962
0.000551436
0.00193019
0.00340899
0.00497592
0.00661272
0.00829377
0.0099834
0.0116337
0.0131832
0.0145586
0.0156799
0.016472
0.0168864
0.0169307
0.0166133
0.0157366
-0.0075082
-0.00817239
-0.00841676
-0.00847251
-0.0083857
-0.00816173
-0.00780853
-0.0073302
-0.00672681
-0.00599695
-0.00513895
-0.00415147
-0.00303375
-0.00178588
-0.00040907
0.00109378
0.00271713
0.00445289
0.00628532
0.0081911
0.0101348
0.0120646
0.0139097
0.0155791
0.0169673
0.0179687
0.0185078
0.0185819
0.018201
0.0171333
-0.00914764
-0.00990136
-0.0101737
-0.0102328
-0.0101353
-0.0098906
-0.00950919
-0.00899607
-0.00835107
-0.00757201
-0.00665626
-0.00560132
-0.00440504
-0.0030657
-0.00158215
4.57161e-05
0.00181572
0.0037265
0.00576573
0.00791575
0.0101447
0.0124006
0.0146045
0.0166467
0.0183892
0.0196823
0.020406
0.0205345
0.0200722
0.0187332
-0.0110345
-0.0118975
-0.0122005
-0.0122595
-0.0121459
-0.0118748
-0.0114602
-0.0109084
-0.0102188
-0.00938851
-0.00841389
-0.00729141
-0.00601765
-0.00458918
-0.00300239
-0.00125345
0.00066169
0.00274188
0.00498886
0.00739272
0.0099302
0.0125549
0.0151858
0.0176962
0.0199103
0.0216167
0.0226244
0.0228578
0.0222955
0.0205552
-0.0132093
-0.0142079
-0.0145428
-0.0145943
-0.0144549
-0.0141482
-0.0136928
-0.0130963
-0.0123577
-0.011473
-0.0104378
-0.00924793
-0.00789893
-0.00638617
-0.00470403
-0.0028454
-0.000801528
0.00143616
0.00387779
0.00652764
0.00937857
0.0124
0.0155204
0.0186062
0.0214441
0.0237438
0.0252026
0.0256463
0.0249781
0.0226272
-0.0157264
-0.0168955
-0.0172597
-0.0172891
-0.0171074
-0.0167502
-0.016242
-0.0155914
-0.0147963
-0.0138519
-0.012753
-0.0114948
-0.0100728
-0.00848215
-0.00671606
-0.00476512
-0.00261605
-0.000251685
0.00234934
0.0052094
0.00834544
0.0117565
0.0154009
0.0191624
0.0228076
0.0259591
0.0281511
0.0290242
0.0282951
0.0250118
-0.0186618
-0.0200476
-0.0204297
-0.0204094
-0.0201571
-0.0197258
-0.0191463
-0.0184269
-0.0175638
-0.0165504
-0.0153807
-0.0140504
-0.012556
-0.0108934
-0.00905666
-0.00703599
-0.00481577
-0.00237256
0.000325909
0.00332179
0.00666249
0.0103912
0.0145251
0.0190105
0.0236464
0.027995
0.0313834
0.0331289
0.0325323
0.0278801
-0.0221295
-0.0237896
-0.0241585
-0.0240369
-0.0236673
-0.0231252
-0.0224462
-0.0216359
-0.0206862
-0.019588
-0.0183347
-0.0169229
-0.0153513
-0.013619
-0.0117232
-0.00965687
-0.00740604
-0.00494608
-0.00223759
0.000774736
0.00417096
0.00804576
0.0125063
0.0176279
0.0233486
0.0292822
0.034572
0.0380348
0.0381189
0.0316793
-0.0263142
-0.028308
-0.0285894
-0.028272
-0.0277084
-0.0269992
-0.0261788
-0.0252442
-0.0241793
-0.0229706
-0.0216108
-0.0200983
-0.0184358
-0.0166275
-0.0146767
-0.012583
-0.0103395
-0.0079282
-0.00531294
-0.00243352
0.000803233
0.00453612
0.00897882
0.014406
0.0210565
0.0288476
0.0369573
0.0435875
0.0456041
0.0374711
-0.0315414
-0.0338875
-0.0339132
-0.0332282
-0.0323456
-0.031384
-0.0303602
-0.0292512
-0.0280272
-0.0266678
-0.0251643
-0.0235183
-0.0217375
-0.0198335
-0.0178179
-0.0157006
-0.0134866
-0.0111736
-0.00874191
-0.00614197
-0.003294
-6.02217e-05
0.00387594
0.00901537
0.0160606
0.0256165
0.0374282
0.0493086
0.0556433
0.0475349
-0.0384291
-0.0409663
-0.0403663
-0.039004
-0.0376002
-0.0362557
-0.0349354
-0.0335771
-0.0321286
-0.0305594
-0.0288591
-0.0270322
-0.0250926
-0.0230596
-0.0209546
-0.0187989
-0.0166122
-0.0144109
-0.0122061
-0.00998316
-0.00766375
-0.00521384
-0.00221706
0.00201798
0.00872917
0.019561
0.0355478
0.0549807
0.069406
0.066099
-0.0482415
-0.0502012
-0.0481616
-0.0455764
-0.0433272
-0.0413994
-0.0396432
-0.0379297
-0.0361716
-0.0343229
-0.0323686
-0.0303144
-0.0281787
-0.0259866
-0.023767
-0.0215508
-0.0193704
-0.0172602
-0.0152564
-0.0133931
-0.0116857
-0.00992543
-0.00787361
-0.00465789
0.00144909
0.0131646
0.0334334
0.0623919
0.0897866
0.0994131
-0.0639235
-0.0625079
-0.0572624
-0.0525228
-0.0489224
-0.0461197
-0.0437458
-0.0415677
-0.0394385
-0.0372806
-0.0350637
-0.032788
-0.0304695
-0.0281344
-0.025814
-0.023543
-0.0213595
-0.0193054
-0.0174245
-0.0157547
-0.0142996
-0.0129348
-0.0112067
-0.00813113
-0.00158754
0.0118595
0.0370933
0.0773936
0.122587
0.15611
-0.0928712
-0.0785678
-0.0671016
-0.0586904
-0.0529926
-0.0490054
-0.0458974
-0.0432699
-0.040855
-0.0385064
-0.036158
-0.0337906
-0.0314111
-0.029041
-0.0267097
-0.0244511
-0.0223018
-0.0202986
-0.0184711
-0.0168249
-0.0153012
-0.0136819
-0.0113209
-0.00686043
0.00229086
0.0205386
0.0539385
0.108431
0.175904
0.255056
-0.14582
-0.0938264
-0.0748351
-0.0608714
-0.0524832
-0.0474748
-0.0441307
-0.0415642
-0.0393278
-0.0371974
-0.0350695
-0.0329083
-0.0307155
-0.028513
-0.0263325
-0.0242096
-0.0221794
-0.0202699
-0.0184866
-0.0167765
-0.0149591
-0.0126172
-0.00888622
-0.00191039
0.0115886
0.0372211
0.0826506
0.15789
0.261999
0.433508
-0.316962
-0.102868
-0.0564341
-0.0415975
-0.0350214
-0.0326009
-0.0320693
-0.0319848
-0.0317413
-0.0311719
-0.0302647
-0.0290597
-0.0276181
-0.0260092
-0.0243007
-0.0225543
-0.0208217
-0.0191362
-0.0174964
-0.0158299
-0.013926
-0.0113038
-0.00695212
0.00127431
0.0169807
0.0468953
0.101636
0.203833
0.37462
0.719811
)
;

boundaryField
{
    movingWall
    {
        type            zeroGradient;
    }
    fixedWalls
    {
        type            zeroGradient;
    }
    frontAndBack
    {
        type            empty;
    }
}


// ************************************************************************* //
