/*--------------------------------*- C++ -*----------------------------------*\
  =========                 |
  \\      /  F ield         | OpenFOAM: The Open Source CFD Toolbox
   \\    /   O peration     | Website:  https://openfoam.org
    \\  /    A nd           | Version:  7
     \\/     M anipulation  |
\*---------------------------------------------------------------------------*/
FoamFile
{
    version     2.0;
    format      ascii;
    class       surfaceScalarField;
    location    "1.4";
    object      phi;
}
// * * * * * * * * * * * * * * * * * * * * * * * * * * * * * * * * * * * * * //

dimensions      [0 3 -1 0 0 0 0];

internalField   nonuniform List<scalar> 
1740
(
-8.33137e-08
8.33345e-08
-1.82187e-06
1.73856e-06
-4.90634e-06
3.08447e-06
-8.70225e-06
3.79591e-06
-1.27481e-05
4.04581e-06
-1.67682e-05
4.02017e-06
-2.06137e-05
3.84544e-06
-2.4203e-05
3.58931e-06
-2.7484e-05
3.281e-06
-3.04148e-05
2.93083e-06
-3.29569e-05
2.54207e-06
-3.50732e-05
2.11631e-06
-3.67285e-05
1.65532e-06
-3.78902e-05
1.16163e-06
-3.85289e-05
6.38727e-07
-3.862e-05
9.11403e-08
-3.81444e-05
-4.75645e-07
-3.70898e-05
-1.0546e-06
-3.54522e-05
-1.63759e-06
-3.32369e-05
-2.21526e-06
-3.046e-05
-2.77689e-06
-2.71502e-05
-3.30982e-06
-2.33529e-05
-3.79734e-06
-1.91399e-05
-4.21302e-06
-1.46309e-05
-4.50894e-06
-1.00331e-05
-4.59777e-06
-5.69632e-06
-4.33682e-06
-2.16311e-06
-3.5332e-06
-1.44844e-07
-2.01827e-06
-1.44842e-07
-1.74094e-06
1.82427e-06
-6.87007e-06
6.86769e-06
-1.43875e-05
1.06019e-05
-2.32585e-05
1.26669e-05
-3.26551e-05
1.34424e-05
-4.20196e-05
1.33847e-05
-5.10069e-05
1.28327e-05
-5.94033e-05
1.19857e-05
-6.70642e-05
1.09419e-05
-7.38778e-05
9.7445e-06
-7.97487e-05
8.41294e-06
-8.45909e-05
6.95852e-06
-8.83268e-05
5.39119e-06
-9.08873e-05
3.72209e-06
-9.22131e-05
1.9646e-06
-9.22572e-05
1.35232e-07
-9.0985e-05
-1.74792e-06
-8.83787e-05
-3.66087e-06
-8.44392e-05
-5.57708e-06
-7.91886e-05
-7.46581e-06
-7.26742e-05
-9.29132e-06
-6.49738e-05
-1.10102e-05
-5.62066e-05
-1.25645e-05
-4.65545e-05
-1.38651e-05
-3.63019e-05
-1.47616e-05
-2.58979e-05
-1.50018e-05
-1.603e-05
-1.42047e-05
-7.66477e-06
-1.18984e-05
-1.9597e-06
-7.72334e-06
-2.10454e-06
-3.17123e-06
4.9955e-06
-1.08813e-05
1.45777e-05
-2.156e-05
2.12806e-05
-3.38666e-05
2.49735e-05
-4.67807e-05
2.63565e-05
-5.96074e-05
2.62114e-05
-7.19011e-05
2.51264e-05
-8.33734e-05
2.34579e-05
-9.38226e-05
2.13911e-05
-0.000103093
1.90145e-05
-0.000111052
1.63722e-05
-0.000117585
1.34915e-05
-0.00012259
1.03959e-05
-0.000125977
7.10983e-06
-0.000127674
3.66092e-06
-0.000127622
8.32864e-08
-0.00012578
-3.58992e-06
-0.000122131
-7.30964e-06
-0.000116682
-1.1026e-05
-0.000109468
-1.46797e-05
-0.000100558
-1.82011e-05
-9.00627e-05
-2.15058e-05
-7.8147e-05
-2.44803e-05
-6.50575e-05
-2.69545e-05
-5.11678e-05
-2.86513e-05
-3.70474e-05
-2.91222e-05
-2.35457e-05
-2.77064e-05
-1.18476e-05
-2.35965e-05
-3.43985e-06
-1.61311e-05
-5.54439e-06
-4.06857e-06
9.06407e-06
-1.35652e-05
2.40743e-05
-2.64213e-05
3.41368e-05
-4.10349e-05
3.9587e-05
-5.62519e-05
4.15736e-05
-7.13046e-05
4.1264e-05
-8.57e-05
3.95219e-05
-9.91141e-05
3.6872e-05
-0.000111316
3.35933e-05
-0.000122126
2.98243e-05
-0.000131392
2.56379e-05
-0.000138981
2.1081e-05
-0.000144779
1.61934e-05
-0.000148684
1.10154e-05
-0.000150615
5.59173e-06
-0.000150507
-2.50758e-08
-0.000148315
-5.78146e-06
-0.000144021
-1.16035e-05
-0.000137634
-1.74136e-05
-0.000129194
-2.31198e-05
-0.000118781
-2.86141e-05
-0.000106522
-3.37642e-05
-9.26084e-05
-3.83942e-05
-7.73199e-05
-4.22431e-05
-6.1076e-05
-4.48952e-05
-4.45099e-05
-4.56882e-05
-2.85653e-05
-4.3651e-05
-1.45839e-05
-3.75779e-05
-4.33508e-06
-2.638e-05
-9.87947e-06
-4.60494e-06
1.3669e-05
-1.53073e-05
3.47767e-05
-2.96798e-05
4.85093e-05
-4.59016e-05
5.58089e-05
-6.27089e-05
5.83809e-05
-7.92817e-05
5.78368e-05
-9.51007e-05
5.53409e-05
-0.000109825
5.15962e-05
-0.00012321
4.69784e-05
-0.000135064
4.1678e-05
-0.000145223
3.57977e-05
-0.000153548
2.94053e-05
-0.000159913
2.25582e-05
-0.000164211
1.53133e-05
-0.000166352
7.73285e-06
-0.000166265
-1.11305e-07
-0.000163901
-8.14624e-06
-0.000159233
-1.62712e-05
-0.000152267
-2.43797e-05
-0.000143041
-3.23454e-05
-0.000131637
-4.00186e-05
-0.000118186
-4.72149e-05
-0.000102891
-5.36893e-05
-8.60515e-05
-5.90826e-05
-6.81175e-05
-6.28292e-05
-4.97707e-05
-6.40349e-05
-3.20363e-05
-6.13855e-05
-1.63984e-05
-5.32158e-05
-4.87191e-06
-3.79065e-05
-1.47514e-05
-4.96363e-06
1.86326e-05
-1.65603e-05
4.63734e-05
-3.21058e-05
6.40548e-05
-4.95965e-05
7.32996e-05
-6.76669e-05
7.64513e-05
-8.54482e-05
7.56181e-05
-0.000102399
7.22914e-05
-0.000118166
6.73639e-05
-0.0001325
6.13118e-05
-0.0001452
5.43785e-05
-0.0001561
4.66975e-05
-0.000165052
3.83572e-05
-0.000171926
2.9432e-05
-0.000176608
1.99951e-05
-0.000178999
1.01248e-05
-0.000179023
-8.72977e-08
-0.000176616
-1.05539e-05
-0.000171743
-2.11444e-05
-0.000164397
-3.17255e-05
-0.000154607
-4.21351e-05
-0.000142447
-5.21791e-05
-0.000128045
-6.16164e-05
-0.000111608
-7.01262e-05
-9.34508e-05
-7.724e-05
-7.40532e-05
-8.22268e-05
-5.41516e-05
-8.39365e-05
-3.48632e-05
-8.06739e-05
-1.7821e-05
-7.0258e-05
-5.26209e-06
-5.04654e-05
-2.00135e-05
-5.27353e-06
2.39062e-05
-1.76687e-05
5.87685e-05
-3.429e-05
8.0676e-05
-5.29677e-05
9.19773e-05
-7.22351e-05
9.57187e-05
-9.11701e-05
9.45531e-05
-0.000109206
9.03277e-05
-0.000125981
8.41383e-05
-0.000141236
7.65675e-05
-0.000154772
6.79136e-05
-0.000166415
5.83407e-05
-0.000176015
4.79576e-05
-0.000183438
3.68545e-05
-0.000188561
2.51187e-05
-0.000191278
1.28419e-05
-0.000191503
1.36945e-07
-0.00018915
-1.29066e-05
-0.000184173
-2.61215e-05
-0.000176545
-3.9353e-05
-0.000166278
-5.24027e-05
-0.000153427
-6.50298e-05
-0.000138113
-7.69309e-05
-0.000120539
-8.76993e-05
-0.000101037
-9.67426e-05
-8.01223e-05
-0.000103141
-5.86011e-05
-0.000105458
-3.77037e-05
-0.000101571
-1.9231e-05
-8.87307e-05
-5.64425e-06
-6.40521e-05
-2.56577e-05
-5.60904e-06
2.95152e-05
-1.88476e-05
7.2007e-05
-3.66091e-05
9.84376e-05
-5.65554e-05
0.000111924
-7.71114e-05
0.000116275
-9.72952e-05
0.000114737
-0.000116511
0.000109544
-0.000134384
0.000102011
-0.000150651
9.28344e-05
-0.000165108
8.23708e-05
-0.000177583
7.08152e-05
-0.000187921
5.82961e-05
-0.000195984
4.49178e-05
-0.000201644
3.07788e-05
-0.000204784
1.59816e-05
-0.000205294
6.47152e-07
-0.000203085
-1.51164e-05
-0.000198076
-3.113e-05
-0.000190218
-4.72117e-05
-0.000179491
-6.31288e-05
-0.00016593
-7.85916e-05
-0.000149633
-9.3228e-05
-0.000130799
-0.000106533
-0.000109774
-0.000117768
-8.71199e-05
-0.000125796
-6.37306e-05
-0.000128847
-4.09777e-05
-0.000124324
-2.08618e-05
-0.000108847
-6.09546e-06
-7.88185e-05
-3.17532e-05
-6.00792e-06
3.55231e-05
-2.02171e-05
8.62162e-05
-3.92809e-05
0.000117501
-6.06742e-05
0.000133317
-8.27005e-05
0.000138301
-0.00010431
0.000136346
-0.000124873
0.000130107
-0.000143999
0.000121137
-0.000161422
0.000110258
-0.000176937
9.78857e-05
-0.000190371
8.42492e-05
-0.000201571
6.94954e-05
-0.000210393
5.37403e-05
-0.000216704
3.709e-05
-0.000220375
1.96523e-05
-0.000221279
1.55081e-06
-0.000219301
-1.70943e-05
-0.000214332
-3.60987e-05
-0.000206285
-5.52591e-05
-0.000195102
-7.43111e-05
-0.000180779
-9.2915e-05
-0.000163384
-0.000110623
-0.000143103
-0.000126814
-0.000120293
-0.000140578
-9.55716e-05
-0.000150517
-6.99427e-05
-0.000154476
-4.49548e-05
-0.000149312
-2.28547e-05
-0.000130947
-6.65649e-06
-9.50167e-05
-3.84097e-05
-6.48958e-06
4.20127e-05
-2.18453e-05
0.000101572
-4.2433e-05
0.000138089
-6.551e-05
0.000156394
-8.92399e-05
0.000162031
-0.000112495
0.000159601
-0.000134608
0.00015222
-0.000155174
0.000141703
-0.000173923
0.000129006
-0.000190651
0.000114614
-0.000205189
9.87876e-05
-0.000217387
8.1693e-05
-0.000227101
6.34547e-05
-0.000234193
4.41817e-05
-0.000238521
2.39806e-05
-0.00023994
2.97009e-06
-0.000238306
-1.87289e-05
-0.00023347
-4.09345e-05
-0.000225298
-6.34313e-05
-0.000213679
-8.59299e-05
-0.000198552
-0.000108042
-0.00017994
-0.000129235
-0.000157998
-0.000148756
-0.00013309
-0.000165486
-0.000105897
-0.00017771
-7.75579e-05
-0.000182815
-4.98449e-05
-0.000177025
-2.53137e-05
-0.000155478
-7.35388e-06
-0.000112976
-4.57636e-05
-7.06699e-06
4.90797e-05
-2.37792e-05
0.000118284
-4.61547e-05
0.000160465
-7.11924e-05
0.000181431
-9.68929e-05
0.000187731
-0.000122039
0.000184747
-0.000145924
0.000176105
-0.000168127
0.000163907
-0.000188378
0.000149257
-0.000206479
0.000132715
-0.000222271
0.000114579
-0.000235609
9.50312e-05
-0.000246356
7.42017e-05
-0.000254371
5.21963e-05
-0.000259502
2.91119e-05
-0.000261584
5.05245e-06
-0.000260439
-1.98748e-05
-0.00025587
-4.55031e-05
-0.000247682
-7.16194e-05
-0.000235692
-9.79202e-05
-0.000219759
-0.000123974
-0.000199833
-0.000149161
-0.000176017
-0.000172572
-0.000148668
-0.000192835
-0.000118531
-0.000207847
-8.69119e-05
-0.000214434
-5.58659e-05
-0.000208071
-2.83448e-05
-0.000182999
-8.21366e-06
-0.000133108
-5.39772e-05
-7.75307e-06
5.68328e-05
-2.60637e-05
0.000136595
-5.05291e-05
0.00018493
-7.78397e-05
0.000208742
-0.000105805
0.000215697
-0.000133107
0.000212049
-0.000158993
0.000201991
-0.000183033
0.000187946
-0.00020496
0.000171184
-0.000224591
0.000152346
-0.00024178
0.000131768
-0.000256399
0.000109651
-0.000268322
8.6125e-05
-0.000277413
6.12868e-05
-0.000283514
3.52126e-05
-0.000286439
7.97782e-06
-0.000285973
-2.03412e-05
-0.000281863
-4.96124e-05
-0.000273837
-7.96456e-05
-0.000261614
-0.000110143
-0.000244944
-0.000140644
-0.000223663
-0.000170442
-0.000197786
-0.000198449
-0.000167635
-0.000222987
-0.000134014
-0.000241468
-9.84291e-05
-0.000250018
-6.32968e-05
-0.000243203
-3.20838e-05
-0.000214212
-9.2694e-06
-0.000155922
-6.32466e-05
-8.56423e-06
6.5397e-05
-2.87526e-05
0.000156783
-5.56529e-05
0.00021183
-8.55859e-05
0.000238675
-0.000116136
0.000246247
-0.000145872
0.000241784
-0.000173994
0.000230113
-0.000200065
0.000214018
-0.000223832
0.000194951
-0.000245133
0.000173647
-0.000263851
0.000150485
-0.000279882
0.000125682
-0.000293123
9.93657e-05
-0.000303449
7.16137e-05
-0.000310707
4.24696e-05
-0.000314692
1.19636e-05
-0.000315152
-1.9881e-05
-0.000311771
-5.29941e-05
-0.000304178
-8.7238e-05
-0.000291969
-0.000122352
-0.00027474
-0.000157873
-0.000252162
-0.000193019
-0.000224101
-0.00022651
-0.000190791
-0.000256296
-0.000153078
-0.000279181
-0.000112698
-0.000290399
-7.25304e-05
-0.000283371
-3.67237e-05
-0.000250019
-1.05686e-05
-0.000182077
-7.38152e-05
-9.52304e-06
7.49201e-05
-3.19172e-05
0.000179177
-6.16507e-05
0.000241564
-9.45997e-05
0.000271624
-0.000128085
0.000279732
-0.000160543
0.000274243
-0.000191132
0.000260703
-0.000219416
0.000242301
-0.000245166
0.000220701
-0.000268255
0.000196736
-0.000288608
0.000170838
-0.000306162
0.000143236
-0.000320849
0.000114053
-0.000332574
8.33383e-05
-0.000341192
5.10879e-05
-0.000346495
1.72667e-05
-0.000348195
-1.81815e-05
-0.000345904
-5.52848e-05
-0.000339143
-9.39993e-05
-0.000327346
-0.000134149
-0.000309903
-0.000175316
-0.000286246
-0.000216676
-0.000256
-0.000256756
-0.000219227
-0.000293069
-0.000176756
-0.000321652
-0.000130573
-0.000336582
-8.41496e-05
-0.000329794
-4.25545e-05
-0.000291614
-1.21818e-05
-0.00021245
-8.5997e-05
-1.06614e-05
8.55814e-05
-3.56553e-05
0.000204171
-6.869e-05
0.000274599
-0.000105103
0.000308037
-0.000141902
0.000316531
-0.000177383
0.000309723
-0.000210661
0.000293981
-0.000241313
0.000272954
-0.000269154
0.000248541
-0.000294111
0.000221693
-0.000316167
0.000192894
-0.000335321
0.00016239
-0.00035156
0.000130292
-0.000364834
9.66117e-05
-0.000375028
6.12827e-05
-0.000381943
2.41817e-05
-0.000385268
-1.48572e-05
-0.000384545
-5.60073e-05
-0.000379173
-9.93713e-05
-0.000368393
-0.000144929
-0.000351326
-0.000192383
-0.000327064
-0.000240938
-0.000294861
-0.000288959
-0.000254454
-0.000333476
-0.000206541
-0.000369565
-0.000153337
-0.000389787
-9.90579e-05
-0.000384073
-5.00342e-05
-0.000340637
-1.42202e-05
-0.000248264
-0.000100217
-1.20251e-05
9.76066e-05
-4.01046e-05
0.000232251
-7.70008e-05
0.000311495
-0.000117392
0.000348428
-0.000157921
0.00035706
-0.000196724
0.000348527
-0.00023289
0.000330147
-0.000266028
0.000306092
-0.000296017
0.000278529
-0.000322863
0.000248539
-0.000346634
0.000216665
-0.000367412
0.000183169
-0.000385264
0.000148144
-0.00040021
0.000111557
-0.000412191
7.32646e-05
-0.00042104
3.30307e-05
-0.000426447
-9.45087e-06
-0.000427898
-5.45564e-05
-0.00042467
-0.000102599
-0.000415788
-0.000153812
-0.000400035
-0.000208136
-0.000376041
-0.000264932
-0.000342498
-0.000322502
-0.000298587
-0.000377388
-0.000244635
-0.000423516
-0.000182977
-0.000451445
-0.000118713
-0.000448337
-5.99274e-05
-0.000399423
-1.68735e-05
-0.000291318
-0.000117091
-1.36815e-05
0.000111288
-4.54619e-05
0.000264031
-8.69035e-05
0.000352937
-0.000131872
0.000393396
-0.000176577
0.000401765
-0.000218998
0.000390947
-0.00025821
0.000369359
-0.000293888
0.000341771
-0.000326006
0.000310648
-0.000354682
0.000277215
-0.000380095
0.000242078
-0.000402442
0.000205516
-0.000421899
0.000167601
-0.000438587
0.000128246
-0.000452537
8.72146e-05
-0.000463647
4.41409e-05
-0.000471652
-1.44601e-06
-0.000476009
-5.0199e-05
-0.000475906
-0.000102702
-0.000470145
-0.000159573
-0.000457121
-0.00022116
-0.000434864
-0.000287189
-0.00040126
-0.000356106
-0.000354559
-0.000424088
-0.000294302
-0.000483774
-0.000222614
-0.000523132
-0.000145536
-0.000525414
-7.35682e-05
-0.000471392
-2.0492e-05
-0.000344394
-0.000137583
-1.57322e-05
0.00012702
-5.20138e-05
0.000300313
-9.885e-05
0.000399773
-0.000149091
0.000443638
-0.000198451
0.000451125
-0.000244753
0.000437249
-0.000287102
0.000411708
-0.000325281
0.00037995
-0.000359403
0.00034477
-0.000389733
0.000307545
-0.000416601
0.000268945
-0.00044035
0.000229265
-0.000461298
0.00018855
-0.000479706
0.000146653
-0.000495735
0.000103244
-0.000509402
5.78076e-05
-0.000520522
9.67382e-06
-0.000528624
-4.20971e-05
-0.000532848
-9.84778e-05
-0.000531824
-0.000160597
-0.00052355
-0.000229434
-0.000505343
-0.000305397
-0.000473984
-0.000387465
-0.000426278
-0.000471795
-0.000360249
-0.000549802
-0.000277101
-0.00060628
-0.000183556
-0.00061896
-9.33303e-05
-0.000561617
-2.57547e-05
-0.00041197
-0.000163337
-1.83352e-05
0.000145355
-6.01863e-05
0.000342164
-0.000113485
0.000453071
-0.000169807
0.00049996
-0.000224306
0.000505624
-0.000274687
0.00048763
-0.000320149
0.00045717
-0.000360649
0.00042045
-0.000396495
0.000380615
-0.000428144
0.000339194
-0.000456117
0.000296918
-0.000480939
0.000254087
-0.000503109
0.00021072
-0.000523063
0.000166608
-0.000541141
0.000121321
-0.000557539
7.4206e-05
-0.00057223
2.43641e-05
-0.000584917
-2.94094e-05
-0.000594813
-8.85819e-05
-0.000600499
-0.000154911
-0.000599663
-0.00023027
-0.000588875
-0.000316185
-0.000563542
-0.000412797
-0.000518361
-0.000516976
-0.000448724
-0.000619439
-0.000353525
-0.000701479
-0.000239202
-0.000733283
-0.000123349
-0.00067747
-3.39831e-05
-0.000501335
-0.00019732
-2.17456e-05
0.000167101
-7.0625e-05
0.000391043
-0.000131733
0.00051418
-0.000195046
0.000563272
-0.000255124
0.000565702
-0.000309642
0.000542148
-0.000358001
0.000505529
-0.000400423
0.000462873
-0.00043748
0.000417671
-0.000469879
0.000371593
-0.000498372
0.000325411
-0.000523704
0.000279419
-0.000546586
0.000233602
-0.000567668
0.000187689
-0.000587512
0.000141166
-0.000606558
9.32516e-05
-0.00062505
4.28565e-05
-0.000642961
-1.14986e-05
-0.000659784
-7.17597e-05
-0.000674277
-0.000140418
-0.000684059
-0.000220488
-0.00068511
-0.000315134
-0.000671343
-0.000426564
-0.000634679
-0.00055364
-0.000566396
-0.000687723
-0.000460781
-0.000807093
-0.000321688
-0.000872376
-0.000170327
-0.000828832
-4.76461e-05
-0.000624016
-0.000244966
-2.63905e-05
0.000193492
-8.43228e-05
0.000448975
-0.000154917
0.000584774
-0.000226168
0.000634523
-0.000292093
0.000631627
-0.000350516
0.000600571
-0.000401209
0.000556223
-0.000444786
0.000506449
-0.000482168
0.000455054
-0.000514376
0.000403801
-0.000542435
0.00035347
-0.000567342
0.000304327
-0.000590047
0.000256307
-0.000611438
0.00020908
-0.000632335
0.000162063
-0.00065347
0.000114387
-0.000675448
6.48346e-05
-0.000698653
1.17055e-05
-0.000723083
-4.73288e-05
-0.000748009
-0.000115492
-0.000771416
-0.000197081
-0.000789143
-0.000297406
-0.000793871
-0.000421837
-0.000774399
-0.000573111
-0.000716375
-0.000745747
-0.000606378
-0.00091709
-0.000441445
-0.00103731
-0.000243689
-0.00102659
-7.10088e-05
-0.000796696
-0.000315975
-3.30105e-05
0.000226502
-0.000102818
0.000518783
-0.000184877
0.000666833
-0.000264838
0.000714485
-0.000336407
0.000703196
-0.000397891
0.000662054
-0.000449688
0.000608021
-0.000492971
0.000549732
-0.000529124
0.000491206
-0.000559543
0.00043422
-0.000585577
0.000379503
-0.000608497
0.000327247
-0.000629502
0.000277312
-0.000649723
0.000229301
-0.000670238
0.000182578
-0.000692088
0.000136236
-0.000716271
8.90175e-05
-0.000743693
3.91279e-05
-0.000775022
-1.59997e-05
-0.000810437
-8.00771e-05
-0.000848858
-0.00015866
-0.000886785
-0.000259479
-0.000916539
-0.000392083
-0.000924331
-0.00056532
-0.000889528
-0.000780551
-0.000788038
-0.00101858
-0.000604068
-0.00122128
-0.000353431
-0.00127722
-0.000110635
-0.00103949
-0.000426611
-4.29274e-05
0.000269429
-0.000128474
0.00060433
-0.000224001
0.00076236
-0.000312685
0.000803169
-0.000388529
0.00077904
-0.0004509
0.000724425
-0.000501205
0.000658325
-0.0005414
0.000589927
-0.00057347
0.000523276
-0.000599279
0.000460029
-0.000620539
0.000400763
-0.000638814
0.000345522
-0.000655539
0.000294037
-0.000672053
0.000245816
-0.000689643
0.000200168
-0.000709592
0.000156186
-0.000733234
0.000112659
-0.000761995
6.78886e-05
-0.000797169
1.91744e-05
-0.000840081
-3.71644e-05
-0.000891161
-0.00010758
-0.000948543
-0.000202097
-0.00100579
-0.000334837
-0.00104856
-0.000522544
-0.0010516
-0.000777516
-0.000979488
-0.00109069
-0.000797746
-0.00140302
-0.000503165
-0.0015718
-0.000174814
-0.00136784
-0.000601424
-5.85511e-05
0.000327981
-0.000164796
0.000710575
-0.000274839
0.000872402
-0.000370038
0.000898368
-0.000446035
0.000855037
-0.000504232
0.000782622
-0.000547604
0.000701698
-0.000579225
0.000621548
-0.000601878
0.00054593
-0.000618006
0.000476157
-0.000629731
0.000412488
-0.000638901
0.000354691
-0.000647133
0.00030227
-0.000655885
0.000254567
-0.000666521
0.000210803
-0.000680401
0.000170066
-0.000698984
0.000131242
-0.000723922
9.28264e-05
-0.000757279
5.25312e-05
-0.000800529
6.0859e-06
-0.000856433
-5.16759e-05
-0.000925311
-0.000133219
-0.00100399
-0.000256157
-0.00108132
-0.000445215
-0.0011327
-0.000726135
-0.00111598
-0.00110741
-0.00097649
-0.00154252
-0.000676484
-0.00187181
-0.0002693
-0.00177503
-0.000870725
-8.43264e-05
0.000412307
-0.000216516
0.000842764
-0.000338347
0.000994233
-0.000432183
0.000992204
-0.000498029
0.000920883
-0.000540952
0.000825545
-0.00056637
0.000727115
-0.000578964
0.000634141
-0.00058258
0.000549546
-0.00058034
0.000473917
-0.000574766
0.000406914
-0.000567894
0.000347819
-0.000561381
0.000295757
-0.000556613
0.000249799
-0.000554806
0.000208996
-0.000557124
0.000172384
-0.0005648
0.000138919
-0.000579286
0.000107312
-0.000602418
7.56628e-05
-0.000636966
4.06339e-05
-0.00068481
-3.83186e-06
-0.000750113
-6.79163e-05
-0.000834143
-0.000172127
-0.000933303
-0.000346054
-0.00103197
-0.000627466
-0.00109293
-0.00104645
-0.00104926
-0.00158618
-0.000819026
-0.00210205
-0.000385168
-0.00220888
-0.00125589
-0.00012849
0.000540797
-0.000288341
0.00100262
-0.00040792
0.00111381
-0.000479199
0.00106348
-0.000511776
0.00095346
-0.000517021
0.000830791
-0.000504042
0.000714136
-0.000479652
0.000609752
-0.000448857
0.000518751
-0.000415292
0.000440352
-0.000381582
0.000373204
-0.000349603
0.00031584
-0.000320692
0.000266846
-0.000295812
0.00022492
-0.000275697
0.000188881
-0.000260971
0.000157659
-0.000252276
0.000130223
-0.000250407
0.000105443
-0.000256516
8.17723e-05
-0.000272505
5.66221e-05
-0.000301353
2.50169e-05
-0.00034711
-2.21602e-05
-0.000416358
-0.000102879
-0.000515433
-0.000246979
-0.000645256
-0.000497643
-0.00078982
-0.000901888
-0.000890478
-0.00148553
-0.000829007
-0.00216352
-0.000481367
-0.00255653
-0.00173726
-0.000206335
0.000747131
-0.000376308
0.00117259
-0.000449275
0.00118678
-0.000448703
0.00106291
-0.000402408
0.000907164
-0.000331316
0.000759699
-0.000248582
0.000631401
-0.000162628
0.000523798
-7.85793e-05
0.000434702
5.32008e-07
0.000361241
7.30023e-05
0.000300734
0.000137982
0.00025086
0.000195163
0.000209665
0.00024456
0.000175523
0.000286355
0.000147086
0.00032079
0.000123224
0.000348075
0.000102938
0.000368289
8.52294e-05
0.00038122
6.88415e-05
0.000386042
5.17997e-05
0.000380521
3.05384e-05
0.000360059
-1.69864e-06
0.000316262
-5.90811e-05
0.000234002
-0.000164719
9.34399e-05
-0.00035708
-0.000115362
-0.000693086
-0.000375348
-0.00122554
-0.000572741
-0.00196612
-0.000482256
-0.00264701
-0.00221952
-0.000330949
0.00107808
-0.000411534
0.00125317
-0.000327819
0.00110306
-0.000162335
0.000897427
3.0547e-05
0.000714283
0.000224569
0.000565677
0.000406801
0.00044917
0.000572108
0.000358491
0.00071899
0.00028782
0.00084773
0.000232501
0.00095948
0.000188984
0.00105577
0.000154571
0.00113823
0.000127205
0.00120845
0.000105306
0.00126787
8.7657e-05
0.0013178
7.32978e-05
0.0013593
6.14343e-05
0.00139322
5.13145e-05
0.00142003
4.20306e-05
0.00143961
3.22251e-05
0.00145052
1.96263e-05
0.00144788
9.35077e-07
0.00142372
-3.49182e-05
0.00135951
-0.000100505
0.00122429
-0.000221862
0.000974059
-0.000442857
0.000575063
-0.000826545
8.4323e-05
-0.00147538
-0.000231231
-0.00233146
-0.00245075
-0.000287829
0.00136591
-1.86436e-05
0.000983988
0.000424806
0.000659615
0.000845928
0.000476305
0.00121421
0.000345996
0.0015272
0.000252691
0.00178922
0.000187155
0.00200686
0.000140842
0.00218715
0.000107538
0.00233643
8.32177e-05
0.00246017
6.52458e-05
0.00256292
5.18231e-05
0.00264843
4.16902e-05
0.00271978
3.39563e-05
0.00277945
2.79838e-05
0.00282945
2.33048e-05
0.00287133
1.9554e-05
0.00290624
1.64014e-05
0.0029348
1.34705e-05
0.0029568
1.02227e-05
0.00297064
5.79213e-06
0.00297311
-1.53909e-06
0.00295419
-1.59976e-05
0.00289605
-4.2366e-05
0.00276518
-9.09909e-05
0.00250564
-0.000183313
0.00203776
-0.000358672
0.00129736
-0.000734984
0.000424682
-0.00145877
-0.00202606
0.00136591
0.0023499
0.00300951
0.00348582
0.00383181
0.0040845
0.00427166
0.0044125
0.00452004
0.00460326
0.0046685
0.00472033
0.00476202
0.00479597
0.00482396
0.00484726
0.00486682
0.00488322
0.00489669
0.00490691
0.0049127
0.00491116
0.00489517
0.0048528
0.00476181
0.0045785
0.00421982
0.00348484
0.00202606
)
;

boundaryField
{
    movingWall
    {
        type            calculated;
        value           uniform 0;
    }
    fixedWalls
    {
        type            calculated;
        value           uniform 0;
    }
    frontAndBack
    {
        type            empty;
        value           nonuniform 0();
    }
}


// ************************************************************************* //
