/*--------------------------------*- C++ -*----------------------------------*\
  =========                 |
  \\      /  F ield         | OpenFOAM: The Open Source CFD Toolbox
   \\    /   O peration     | Website:  https://openfoam.org
    \\  /    A nd           | Version:  7
     \\/     M anipulation  |
\*---------------------------------------------------------------------------*/
FoamFile
{
    version     2.0;
    format      ascii;
    class       volScalarField;
    location    "9.7";
    object      p;
}
// * * * * * * * * * * * * * * * * * * * * * * * * * * * * * * * * * * * * * //

dimensions      [0 2 -2 0 0 0 0];

internalField   nonuniform List<scalar> 
900
(
6.40844e-07
-0.000155436
-0.000365457
-0.000559077
-0.000702921
-0.000775925
-0.000770015
-0.000682948
-0.000513922
-0.00026198
7.38496e-05
0.000493369
0.000993467
0.00156618
0.00219697
0.00286358
0.00353597
0.00417745
0.00474778
0.00520747
0.00552326
0.00567376
0.00565418
0.00547888
0.00518131
0.00480888
0.00442346
0.00409024
0.00387407
0.00383207
0.000154888
-5.67219e-06
-0.000154894
-0.000285387
-0.000375628
-0.000410301
-0.000382672
-0.000289633
-0.000129178
0.000100301
0.000399818
0.000768952
0.00120458
0.00169946
0.00224081
0.00280923
0.00338055
0.0039238
0.00440583
0.00479451
0.00506321
0.00519553
0.00518902
0.00505704
0.00482816
0.00454297
0.00424935
0.00399199
0.00382201
0.0037872
0.00037584
0.000137779
-1.56e-05
-0.000130104
-0.000201712
-0.0002211
-0.000185154
-9.24676e-05
5.85743e-05
0.000269852
0.00054303
0.000878647
0.00127487
0.00172606
0.00222141
0.00274488
0.0032732
0.00377787
0.00422757
0.00459133
0.00484311
0.00496662
0.00495913
0.0048333
0.00461628
0.00434621
0.00406703
0.00382158
0.00364494
0.00358186
0.00058474
0.000255723
7.73581e-05
-3.96299e-05
-0.000106808
-0.000121201
-8.42243e-05
2.95089e-06
0.000141067
0.00033227
0.000579284
0.000884335
0.00124774
0.00166635
0.00213188
0.00262994
0.0031393
0.00363183
0.00407556
0.00443775
0.00468986
0.0048129
0.00480191
0.00466826
0.00443877
0.00415169
0.00385081
0.00357925
0.0033727
0.00325134
0.00073197
0.000308777
9.88702e-05
-2.89381e-05
-9.99623e-05
-0.000116896
-8.55616e-05
-9.70656e-06
0.000110559
0.000277809
0.000496184
0.000770112
0.00110271
0.00149394
0.00193849
0.002424
0.00293132
0.00343167
0.00389111
0.00427311
0.00454409
0.00467971
0.00467053
0.00452522
0.00427022
0.00394544
0.00359763
0.00327424
0.00301219
0.00281485
0.000770702
0.000257144
1.33413e-05
-0.000130503
-0.000211881
-0.000238428
-0.000219901
-0.000162313
-6.63924e-05
7.11046e-05
0.000256069
0.000495606
0.000796268
0.00116192
0.0015909
0.00207336
0.00259374
0.00312146
0.00362
0.00404735
0.00436229
0.00453192
0.00453901
0.00438701
0.00410084
0.00372288
0.00330578
0.00290589
0.00256497
0.00227222
0.000662761
6.61128e-05
-0.000211279
-0.000374201
-0.000471111
-0.000514037
-0.000516161
-0.00048539
-0.000422824
-0.000324335
-0.000182005
1.43954e-05
0.000275521
0.00061004
0.0010209
0.00150121
0.00204624
0.00261866
0.00318052
0.00368365
0.00407649
0.00431353
0.00436492
0.00422436
0.00391237
0.00347337
0.00296846
0.00246796
0.00202386
0.0016126
0.000375338
-0.00029561
-0.000604926
-0.000788931
-0.000906163
-0.000972697
-0.00100478
-0.00101196
-0.000995602
-0.000950629
-0.000866963
-0.000730882
-0.000526921
-0.000240335
0.00014028
0.000619551
0.00118007
0.00180606
0.00245432
0.00306883
0.00358509
0.00393979
0.0040834
0.00399238
0.00367686
0.00318069
0.00257517
0.00195043
0.00137498
0.000810192
-0.000120606
-0.000856161
-0.00119534
-0.00140247
-0.00154545
-0.00164427
-0.0017181
-0.00177813
-0.00182616
-0.00185642
-0.00185685
-0.0018101
-0.00169512
-0.00148943
-0.00117198
-0.000727977
-0.000160293
0.000520051
0.00127307
0.00203825
0.00273662
0.00328123
0.00359318
0.00361982
0.00334995
0.00282002
0.00211127
0.00134051
0.00060089
-0.000164139
-0.000850298
-0.00163984
-0.00200685
-0.00223981
-0.00241528
-0.00255724
-0.00268789
-0.00282041
-0.00295763
-0.00309381
-0.00321553
-0.00330209
-0.00332631
-0.00325613
-0.00305743
-0.00269982
-0.00216743
-0.00145435
-0.000591628
0.000361051
0.00131117
0.00214289
0.00273588
0.00299115
0.00285768
0.00235029
0.00155526
0.000622982
-0.00031756
-0.00134408
-0.00183426
-0.00266607
-0.00305907
-0.00332147
-0.00353774
-0.00373609
-0.00394217
-0.00417192
-0.00443027
-0.00471283
-0.00500615
-0.00528707
-0.0055223
-0.00566874
-0.00567559
-0.00549035
-0.00507033
-0.00437735
-0.00342592
-0.00226343
-0.00098991
0.000247805
0.00127555
0.00192564
0.00207895
0.0017026
0.000873523
-0.000220175
-0.00139896
-0.00276404
-0.00308693
-0.00394819
-0.00436545
-0.0046616
-0.00492822
-0.00519814
-0.00550118
-0.00585719
-0.00627484
-0.00675309
-0.0072805
-0.00783323
-0.00837268
-0.00884394
-0.00917621
-0.00928606
-0.00908629
-0.008522
-0.00754636
-0.00618418
-0.00453164
-0.0027618
-0.00111088
0.000160536
0.000827133
0.000765746
1.28768e-05
-0.00121078
-0.00265852
-0.00445494
-0.00461515
-0.00549215
-0.00593182
-0.00626613
-0.00659286
-0.00695
-0.00737254
-0.00788575
-0.00850418
-0.00923264
-0.0100645
-0.010978
-0.0119309
-0.0128565
-0.0136617
-0.0142286
-0.0144237
-0.0141224
-0.013237
-0.0117376
-0.009693
-0.00728668
-0.00481411
-0.00264708
-0.00115995
-0.000626822
-0.00110782
-0.00237534
-0.00410364
-0.006438
-0.00641677
-0.00729556
-0.00775527
-0.00813113
-0.00852609
-0.00898404
-0.00954632
-0.0102454
-0.011104
-0.0121358
-0.0133422
-0.0147064
-0.0161856
-0.0177025
-0.0191401
-0.0203417
-0.0211172
-0.0212649
-0.0206484
-0.019142
-0.0167634
-0.0136791
-0.0102231
-0.00687907
-0.0042051
-0.00269819
-0.00260245
-0.00374394
-0.00572628
-0.00871411
-0.00847985
-0.00934725
-0.00982364
-0.0102418
-0.0107088
-0.0112755
-0.0119907
-0.0128961
-0.0140249
-0.0154024
-0.0170411
-0.0189327
-0.0210364
-0.0232668
-0.0254837
-0.0274899
-0.029041
-0.0298699
-0.029704
-0.0283743
-0.025804
-0.0221013
-0.0175974
-0.0128579
-0.00863164
-0.00570194
-0.00461032
-0.00534408
-0.00749035
-0.0112471
-0.0107828
-0.011628
-0.0121161
-0.0125724
-0.0131078
-0.0137808
-0.0146497
-0.0157667
-0.0171778
-0.0189218
-0.0210251
-0.0234902
-0.0262811
-0.0293064
-0.0324054
-0.0353431
-0.0378189
-0.0394893
-0.0399942
-0.0390666
-0.0365228
-0.0323788
-0.0269083
-0.0206979
-0.014648
-0.00985258
-0.0072632
-0.00718415
-0.00931239
-0.0139385
-0.0132957
-0.0141127
-0.0146051
-0.0150882
-0.0156767
-0.0164384
-0.017443
-0.018755
-0.0204345
-0.0225352
-0.0250983
-0.0281384
-0.0316255
-0.0354644
-0.0394773
-0.0433962
-0.046871
-0.0494912
-0.0508166
-0.0504959
-0.0482277
-0.0439118
-0.0377122
-0.0301537
-0.0221988
-0.0152102
-0.0106161
-0.00921948
-0.0110335
-0.0165943
-0.0159836
-0.0167738
-0.0172599
-0.0177481
-0.0183584
-0.0191711
-0.0202696
-0.0217328
-0.0236354
-0.0260465
-0.0290213
-0.0325861
-0.0367168
-0.0413153
-0.0461898
-0.0510451
-0.0554914
-0.0590708
-0.0612938
-0.0616955
-0.0599125
-0.055719
-0.049133
-0.0405382
-0.0308384
-0.0215473
-0.0145484
-0.0112934
-0.0123808
-0.0188806
-0.018811
-0.0195873
-0.0200517
-0.020509
-0.0210893
-0.0218903
-0.0230133
-0.0245541
-0.0266023
-0.0292411
-0.0325384
-0.0365296
-0.0411946
-0.0464324
-0.0520398
-0.0577003
-0.0629953
-0.0674341
-0.070497
-0.0716471
-0.0704679
-0.0666309
-0.0600054
-0.0507858
-0.0397019
-0.0282537
-0.0186546
-0.0130554
-0.0129177
-0.0202684
-0.0217494
-0.0225407
-0.0229604
-0.0233312
-0.0238033
-0.0245012
-0.0255506
-0.0270666
-0.0291546
-0.0319098
-0.0354095
-0.0396946
-0.0447463
-0.0504593
-0.0566204
-0.0628968
-0.0688511
-0.0739703
-0.0777102
-0.0795288
-0.0789459
-0.0755679
-0.0691403
-0.0596629
-0.0476222
-0.034344
-0.0221707
-0.0138731
-0.011984
-0.0199606
-0.0247884
-0.0256446
-0.0259829
-0.0261829
-0.0264362
-0.0269079
-0.0277576
-0.0291237
-0.0311267
-0.0338713
-0.0374398
-0.0418743
-0.0471525
-0.0531621
-0.0596853
-0.0663693
-0.0727679
-0.0783551
-0.0825764
-0.0848833
-0.0847626
-0.0817829
-0.0755987
-0.0660459
-0.0533587
-0.0385847
-0.0239837
-0.0127622
-0.00862618
-0.0167952
-0.0279542
-0.0289495
-0.0291425
-0.0290449
-0.0289274
-0.0290167
-0.0295176
-0.0305953
-0.0323834
-0.0349919
-0.0385026
-0.042953
-0.0483118
-0.0544532
-0.0611754
-0.0680745
-0.0747157
-0.0805613
-0.0850586
-0.0876374
-0.0877582
-0.0849679
-0.078859
-0.0691421
-0.0558401
-0.0396966
-0.022737
-0.00838028
-0.00152388
-0.00912054
-0.0313455
-0.0325714
-0.0325009
-0.031913
-0.0312203
-0.0307388
-0.0307278
-0.0313786
-0.0328332
-0.0352
-0.038553
-0.042919
-0.048255
-0.0544242
-0.0611833
-0.068159
-0.0748875
-0.0808235
-0.0853873
-0.0879979
-0.0881112
-0.0852036
-0.0788234
-0.0685716
-0.0543216
-0.0365469
-0.0169887
0.000908955
0.0110911
0.00535858
-0.0352108
-0.0367355
-0.0361726
-0.0347979
-0.0332619
-0.0319938
-0.0313067
-0.0314092
-0.0324403
-0.0344953
-0.0376319
-0.0418566
-0.0471071
-0.0532286
-0.0599571
-0.0669133
-0.073617
-0.0795079
-0.0839815
-0.0864239
-0.0862392
-0.0828407
-0.0756894
-0.0643069
-0.0484261
-0.0282977
-0.0053815
0.0169726
0.0315547
0.0297424
-0.0401201
-0.0418467
-0.04034
-0.0377251
-0.0350035
-0.0327163
-0.0312065
-0.0306741
-0.0312343
-0.0329546
-0.0358626
-0.039937
-0.0450886
-0.051139
-0.0578041
-0.0646882
-0.071293
-0.0770365
-0.0812803
-0.0833566
-0.0825916
-0.0783005
-0.0698247
-0.0565555
-0.0380857
-0.0145348
0.0130946
0.0418359
0.062852
0.0679317
-0.0473727
-0.0486067
-0.0452535
-0.0407216
-0.0363952
-0.0328571
-0.0304139
-0.0292101
-0.0293051
-0.0307167
-0.0334292
-0.0373836
-0.0424572
-0.048443
-0.055033
-0.0618113
-0.0682583
-0.0737641
-0.0776476
-0.0791733
-0.0775667
-0.0719959
-0.0616446
-0.0457068
-0.0235602
0.00488631
0.0387267
0.0770288
0.108042
0.124427
-0.0601728
-0.0582343
-0.0512076
-0.043772
-0.0373415
-0.0323351
-0.0289001
-0.0270521
-0.0267491
-0.027931
-0.0305224
-0.0344165
-0.0394518
-0.0453896
-0.0518965
-0.0585348
-0.0647623
-0.0699392
-0.0733387
-0.0741563
-0.0715063
-0.0643665
-0.0517179
-0.0324753
-0.00567768
0.0292323
0.0720229
0.121757
0.168275
0.20601
-0.0866867
-0.0723026
-0.058516
-0.0467424
-0.0375751
-0.0309225
-0.0265345
-0.0241728
-0.0236276
-0.0247266
-0.0273174
-0.0312391
-0.0362905
-0.0422041
-0.0486245
-0.0550967
-0.0610595
-0.0658458
-0.0686802
-0.0686875
-0.0648886
-0.0561682
-0.0411702
-0.0184514
0.0134673
0.0559986
0.109952
0.175743
0.244029
0.326316
-0.138733
-0.0876261
-0.0651748
-0.0474972
-0.0351853
-0.0271707
-0.0223189
-0.0199064
-0.0194952
-0.0207986
-0.0235998
-0.0276983
-0.0328693
-0.0388315
-0.045223
-0.0515853
-0.0573549
-0.061858
-0.0642994
-0.0637487
-0.0590638
-0.0491969
-0.0325393
-0.0072418
0.0288618
0.0786572
0.145291
0.233984
0.34157
0.511205
-0.311679
-0.0975129
-0.0481834
-0.0290297
-0.0180531
-0.0121753
-0.00968687
-0.0093392
-0.0105465
-0.0130808
-0.0168131
-0.0216119
-0.0273059
-0.0336581
-0.0403441
-0.0469371
-0.0528989
-0.0575754
-0.060194
-0.0598734
-0.0556257
-0.0459349
-0.0293937
-0.00408132
0.032601
0.0849937
0.15977
0.274731
0.44961
0.793322
)
;

boundaryField
{
    movingWall
    {
        type            zeroGradient;
    }
    fixedWalls
    {
        type            zeroGradient;
    }
    frontAndBack
    {
        type            empty;
    }
}


// ************************************************************************* //
