/*--------------------------------*- C++ -*----------------------------------*\
  =========                 |
  \\      /  F ield         | OpenFOAM: The Open Source CFD Toolbox
   \\    /   O peration     | Website:  https://openfoam.org
    \\  /    A nd           | Version:  7
     \\/     M anipulation  |
\*---------------------------------------------------------------------------*/
FoamFile
{
    version     2.0;
    format      ascii;
    class       surfaceScalarField;
    location    "9.7";
    object      phi;
}
// * * * * * * * * * * * * * * * * * * * * * * * * * * * * * * * * * * * * * //

dimensions      [0 3 -1 0 0 0 0];

internalField   nonuniform List<scalar> 
1740
(
7.22655e-07
-7.23255e-07
-2.73818e-07
9.96471e-07
-3.18702e-06
2.9132e-06
-7.65723e-06
4.47021e-06
-1.32011e-05
5.54383e-06
-1.93961e-05
6.19501e-06
-2.59213e-05
6.52519e-06
-3.25367e-05
6.61546e-06
-3.90461e-05
6.50938e-06
-4.52617e-05
6.21562e-06
-5.09793e-05
5.71758e-06
-5.59648e-05
4.98546e-06
-5.99541e-05
3.98934e-06
-6.26664e-05
2.71229e-06
-6.38291e-05
1.1627e-06
-6.32129e-05
-6.16155e-07
-6.06718e-05
-2.5411e-06
-5.61889e-05
-4.48289e-06
-4.99096e-05
-6.27936e-06
-4.2159e-05
-7.75059e-06
-3.34361e-05
-8.72285e-06
-2.43786e-05
-9.05759e-06
-1.5699e-05
-8.67954e-06
-8.1009e-06
-7.59812e-06
-2.18315e-06
-5.91775e-06
1.6593e-06
-3.84245e-06
3.30198e-06
-1.64268e-06
2.945e-06
3.5697e-07
1.35048e-06
1.59451e-06
1.35047e-06
-9.96559e-07
2.73301e-07
-5.86421e-06
5.86412e-06
-1.47735e-05
1.18225e-05
-2.69823e-05
1.6679e-05
-4.16015e-05
2.0163e-05
-5.77786e-05
2.23721e-05
-7.47783e-05
2.35249e-05
-9.19789e-05
2.3816e-05
-0.000108827
2.33577e-05
-0.000124787
2.21751e-05
-0.000139297
2.02278e-05
-0.000151754
1.74424e-05
-0.000161517
1.37522e-05
-0.00016794
9.13564e-06
-0.000170428
3.65029e-06
-0.000168525
-2.51876e-06
-0.000161961
-9.10548e-06
-0.000150776
-1.5668e-05
-0.000135361
-2.16937e-05
-0.000116491
-2.66204e-05
-9.5302e-05
-2.99122e-05
-7.32145e-05
-3.11452e-05
-5.18022e-05
-3.00918e-05
-3.26149e-05
-2.67855e-05
-1.69801e-05
-2.15525e-05
-5.81552e-06
-1.5007e-05
5.60543e-07
-8.01874e-06
2.63859e-06
-1.72106e-06
1.6635e-06
2.56962e-06
3.01397e-06
-3.17295e-06
3.44625e-06
-1.266e-05
1.53511e-05
-2.7685e-05
2.68475e-05
-4.71514e-05
3.61455e-05
-6.98566e-05
4.28681e-05
-9.46654e-05
4.71809e-05
-0.000120569
4.94283e-05
-0.000146673
4.99203e-05
-0.000172152
4.88369e-05
-0.000196193
4.62157e-05
-0.000217951
4.19864e-05
-0.000236538
3.6029e-05
-0.000251031
2.82449e-05
-0.000260524
1.86285e-05
-0.000264209
7.33546e-06
-0.000261451
-5.27606e-06
-0.000251921
-1.8636e-05
-0.00023569
-3.18994e-05
-0.000213307
-4.40767e-05
-0.000185836
-5.40909e-05
-0.000154834
-6.09143e-05
-0.000122252
-6.37272e-05
-9.02681e-05
-6.20758e-05
-6.10532e-05
-5.60004e-05
-3.65021e-05
-4.61036e-05
-1.79622e-05
-3.35469e-05
-5.9908e-06
-1.99902e-05
-1.96544e-07
-7.51533e-06
9.55715e-07
1.41737e-06
3.96969e-06
-5.33522e-06
8.78147e-06
-1.94143e-05
2.94302e-05
-4.0472e-05
4.79051e-05
-6.68475e-05
6.2521e-05
-9.70095e-05
7.30301e-05
-0.000129593
7.97642e-05
-0.000163396
8.32316e-05
-0.000197341
8.38649e-05
-0.00023041
8.19065e-05
-0.000261591
7.73962e-05
-0.000289827
7.02231e-05
-0.000314012
6.02136e-05
-0.000333003
4.72358e-05
-0.000345682
3.13071e-05
-0.000351041
1.2695e-05
-0.000348292
-8.02509e-06
-0.000336982
-2.99462e-05
-0.000317136
-5.17447e-05
-0.000289346
-7.18671e-05
-0.000254824
-8.86132e-05
-0.000215398
-0.00010034
-0.000173421
-0.000105704
-0.00013158
-0.000103917
-9.26203e-05
-9.49598e-05
-5.90148e-05
-7.9709e-05
-3.26121e-05
-5.99497e-05
-1.43313e-05
-3.8271e-05
-3.95121e-06
-1.78955e-05
-5.8283e-08
-2.47555e-06
3.91141e-06
-7.32088e-06
1.61023e-05
-2.5771e-05
4.78804e-05
-5.25869e-05
7.4721e-05
-8.55008e-05
9.54349e-05
-0.000122629
0.000110158
-0.000162397
0.000119532
-0.000203462
0.000124297
-0.000244627
0.00012503
-0.000284756
0.000122036
-0.000322704
0.000115344
-0.000357269
0.000104788
-0.000387176
9.01203e-05
-0.000411097
7.1157e-05
-0.000427711
4.79207e-05
-0.000435792
2.07765e-05
-0.000434341
-9.47654e-06
-0.00042268
-4.16072e-05
-0.000400664
-7.37603e-05
-0.000368779
-0.000103753
-0.00032824
-0.000129152
-0.00028103
-0.000147549
-0.00022983
-0.000156904
-0.000177832
-0.000155916
-0.000128428
-0.000144363
-8.48004e-05
-0.000123337
-4.94696e-05
-9.52804e-05
-2.3895e-05
-6.38455e-05
-8.20438e-06
-3.35861e-05
-1.11141e-06
-9.56851e-06
2.79999e-06
-9.10876e-06
2.52111e-05
-3.16095e-05
7.03811e-05
-6.38137e-05
0.000106925
-0.000102862
0.000134483
-0.000146527
0.000153823
-0.000193046
0.000166052
-0.000240976
0.000172227
-0.000289056
0.00017311
-0.000336095
0.000169074
-0.000380878
0.000160128
-0.000422112
0.000146022
-0.000458394
0.000126402
-0.000488229
0.000100992
-0.000510076
6.97674e-05
-0.00052244
3.31408e-05
-0.000524028
-7.88894e-06
-0.000513784
-5.18508e-05
-0.00049124
-9.63045e-05
-0.000456597
-0.000138396
-0.000410907
-0.000174841
-0.000356176
-0.00020228
-0.000295354
-0.000217726
-0.000232176
-0.000219094
-0.000170819
-0.000205721
-0.0001154
-0.000178755
-6.93865e-05
-0.000141294
-3.50326e-05
-9.81994e-05
-1.29971e-05
-5.56217e-05
-2.21101e-06
-2.03546e-05
5.88973e-07
-1.07111e-05
3.59222e-05
-3.69031e-05
9.65732e-05
-7.40699e-05
0.000144092
-0.000118816
0.00017923
-0.000168603
0.00020361
-0.000221516
0.000218964
-0.000276051
0.000226762
-0.000330936
0.000227996
-0.000384982
0.00022312
-0.000436964
0.00021211
-0.000485546
0.000194604
-0.000529233
0.00017009
-0.000566371
0.00013813
-0.000595176
9.85721e-05
-0.000613802
5.17663e-05
-0.000620616
-1.07478e-06
-0.00061394
-5.85268e-05
-0.000592857
-0.000117387
-0.000557063
-0.00017419
-0.000507236
-0.000224668
-0.000445235
-0.000264282
-0.000374184
-0.000288778
-0.000298378
-0.0002949
-0.000222941
-0.000281157
-0.000153221
-0.000248476
-9.40001e-05
-0.000200515
-4.86983e-05
-0.000143501
-1.87705e-05
-8.55495e-05
-3.48213e-06
-3.56429e-05
-2.89316e-06
-1.21344e-05
4.80566e-05
-4.16343e-05
0.000126073
-8.32929e-05
0.000185751
-0.000133257
0.000229194
-0.00018873
0.000259082
-0.000247685
0.000277919
-0.000308606
0.000287683
-0.00037026
0.000289649
-0.000431514
0.000284373
-0.000491188
0.000271785
-0.000547954
0.00025137
-0.00060026
0.000222397
-0.000646304
0.000184173
-0.000684042
0.00013631
-0.000711267
7.89914e-05
-0.000725622
1.32802e-05
-0.000725125
-5.90234e-05
-0.000707932
-0.00013458
-0.000673049
-0.000209073
-0.000620542
-0.000277175
-0.000551884
-0.000332939
-0.000470195
-0.000370467
-0.00038027
-0.000384824
-0.000288293
-0.000373134
-0.000201157
-0.000335612
-0.000125434
-0.000276238
-6.62181e-05
-0.000202717
-2.61708e-05
-0.000125597
-5.09569e-06
-5.6718e-05
-7.98886e-06
-1.33695e-05
6.14261e-05
-4.5758e-05
0.000158461
-9.13823e-05
0.000231375
-0.000146019
0.000283831
-0.000206676
0.000319738
-0.000271262
0.000342506
-0.000338294
0.000354715
-0.000406624
0.00035798
-0.000475228
0.000352977
-0.000543026
0.000339582
-0.000608743
0.000317086
-0.000670809
0.000284463
-0.000727294
0.000240658
-0.000775892
0.000184908
-0.000813962
0.00011706
-0.000838599
3.79181e-05
-0.000847012
-5.06113e-05
-0.000836509
-0.000145082
-0.000805155
-0.000240427
-0.000752119
-0.000330212
-0.000678172
-0.000406886
-0.000586123
-0.000462516
-0.000481052
-0.000489896
-0.000370184
-0.000484002
-0.000262216
-0.000443581
-0.000166049
-0.000372405
-8.91369e-05
-0.000279629
-3.5971e-05
-0.000178763
-7.27581e-06
-8.54132e-05
-1.52647e-05
-1.43919e-05
7.58181e-05
-4.91958e-05
0.000193265
-9.81837e-05
0.000280363
-0.000156854
0.000342502
-0.000222079
0.000384963
-0.000291753
0.00041218
-0.00036446
0.000427422
-0.000439181
0.000432701
-0.000515045
0.000428841
-0.000591115
0.000415652
-0.000666219
0.000392191
-0.000738814
0.000357058
-0.000806883
0.000308727
-0.000867885
0.00024591
-0.000918769
0.000167945
-0.000956053
7.52021e-05
-0.000976147
-3.05182e-05
-0.000975373
-0.000145856
-0.000950709
-0.000265091
-0.00090016
-0.000380761
-0.000823418
-0.000483628
-0.000722526
-0.000563408
-0.000602412
-0.00061001
-0.000471072
-0.000615342
-0.000339087
-0.000575566
-0.000218202
-0.000493289
-0.000119102
-0.000378729
-4.90221e-05
-0.000248842
-1.02653e-05
-0.00012417
-2.55299e-05
-1.5167e-05
9.09851e-05
-5.18432e-05
0.000229942
-0.000103497
0.000332016
-0.000165438
0.000404443
-0.000234458
0.000453984
-0.00030847
0.000486192
-0.000386157
0.000505108
-0.000466652
0.000513197
-0.000549268
0.000511456
-0.000633247
0.000499631
-0.000717564
0.000476509
-0.000800751
0.000440244
-0.00088076
0.000388736
-0.000954892
0.000320041
-0.00101977
0.000232822
-0.00107139
0.000126824
-0.00110548
3.57301e-06
-0.00111736
-0.000133976
-0.0011029
-0.000279548
-0.00105873
-0.000424934
-0.000983074
-0.000559286
-0.000876626
-0.000669856
-0.000743464
-0.000743172
-0.000591724
-0.000767082
-0.00043358
-0.00073371
-0.000283959
-0.00064291
-0.000157751
-0.000504938
-6.62263e-05
-0.000340367
-1.43273e-05
-0.000176069
-3.98572e-05
-1.56566e-05
0.000106642
-5.35869e-05
0.000267872
-0.000107102
0.000385531
-0.000171407
0.000468748
-0.000243255
0.000525832
-0.000320595
0.000563532
-0.000402216
0.000586729
-0.000487415
0.000598395
-0.000575694
0.000599735
-0.000666497
0.000590435
-0.000758975
0.000568987
-0.000851787
0.000533056
-0.000942939
0.000479888
-0.00102968
0.00040678
-0.00110846
0.000311602
-0.001175
0.000193367
-0.00122426
5.28342e-05
-0.0012512
-0.000107038
-0.00125041
-0.000280337
-0.00121713
-0.000458211
-0.00114783
-0.000628592
-0.00104122
-0.000776463
-0.000899603
-0.000884788
-0.000730182
-0.000936503
-0.000545881
-0.000918011
-0.000364674
-0.000824117
-0.000206559
-0.000663052
-8.85108e-05
-0.000458415
-1.9753e-05
-0.000244827
-5.96102e-05
-1.58282e-05
0.00012247
-5.43294e-05
0.000306373
-0.000108804
0.000440006
-0.000174421
0.000534365
-0.000247919
0.000599329
-0.00032728
0.000642893
-0.000411385
0.000670835
-0.000499676
0.000686686
-0.000591835
0.000691893
-0.000687503
0.000686102
-0.000786026
0.00066751
-0.000886238
0.000633268
-0.000986288
0.000579938
-0.00108352
0.000504014
-0.00117443
0.000402513
-0.00125469
0.000273619
-0.00131916
0.000117313
-0.00136219
-6.40138e-05
-0.00137784
-0.000264685
-0.00136004
-0.000476013
-0.00130335
-0.000685279
-0.00120402
-0.000875799
-0.00106152
-0.00102729
-0.000880665
-0.00111735
-0.00067359
-0.00112509
-0.000460375
-0.00103733
-0.00026657
-0.000856857
-0.000116766
-0.000608219
-2.6863e-05
-0.00033473
-8.64732e-05
-1.56657e-05
0.000138136
-5.40206e-05
0.000344728
-0.000108486
0.000494472
-0.000174242
0.000600122
-0.000248013
0.0006731
-0.000327793
0.000722672
-0.000412517
0.000755559
-0.00050173
0.000775899
-0.000595257
0.000785421
-0.000692917
0.000783762
-0.000794252
0.000768845
-0.000898315
0.000737332
-0.0010035
0.00068512
-0.00110741
0.000607931
-0.00120685
0.000501952
-0.00129778
0.000364548
-0.00137542
0.000194955
-0.00143386
-5.57529e-06
-0.00146741
-0.000231142
-0.00146888
-0.000474535
-0.00143123
-0.000722936
-0.00134795
-0.000959076
-0.00121486
-0.00116038
-0.00103274
-0.00129947
-0.000810717
-0.00134711
-0.000568959
-0.00127909
-0.000337977
-0.00108784
-0.000151723
-0.000794473
-3.59962e-05
-0.000450457
-0.000122469
-1.51812e-05
0.000153317
-5.26929e-05
0.00038224
-0.000106173
0.000547952
-0.000170831
0.000664779
-0.000243352
0.000745621
-0.000321696
0.000801017
-0.000404804
0.000838667
-0.000492265
0.000863359
-0.000583998
0.000877154
-0.00067996
0.000879723
-0.000779886
0.000868772
-0.000883086
0.000840531
-0.000988286
0.000790321
-0.00109354
0.000713188
-0.0011962
0.000604612
-0.00129289
0.000461237
-0.00137946
0.000281524
-0.00145119
6.61544e-05
-0.00150181
-0.000180517
-0.00152465
-0.000451704
-0.00151136
-0.000736218
-0.00145297
-0.00101747
-0.00134118
-0.00127217
-0.00117132
-0.00146933
-0.000947014
-0.00157142
-0.000685335
-0.00154077
-0.000419546
-0.00135363
-0.000193745
-0.00102027
-4.74789e-05
-0.000596723
-0.000169948
-1.44279e-05
0.000167745
-5.04998e-05
0.000418312
-0.000102102
0.000599554
-0.000164443
0.00072712
-0.000234126
0.000815304
-0.000309023
0.000875914
-0.000388017
0.000917661
-0.000470687
0.000946029
-0.000556994
0.000963462
-0.000646998
0.000969728
-0.000740623
0.000962396
-0.000837468
0.000937377
-0.000936695
0.000889547
-0.00103696
0.00081345
-0.00113639
0.000704041
-0.00123258
0.00055743
-0.00132255
0.000371493
-0.00140264
0.000146249
-0.00146768
-0.000115477
-0.0015116
-0.000407786
-0.00152577
-0.000722049
-0.00149944
-0.0010438
-0.0014205
-0.00135111
-0.00127817
-0.00161166
-0.00106825
-0.00178134
-0.000800914
-0.0018081
-0.000508027
-0.00164652
-0.000242574
-0.00128573
-6.15837e-05
-0.000777713
-0.000231532
-1.35128e-05
0.000181257
-4.77546e-05
0.000452553
-9.67872e-05
0.000648587
-0.000155731
0.000786065
-0.000221036
0.000880608
-0.000290431
0.000945309
-0.000362701
0.000989931
-0.000437375
0.0010207
-0.000514422
0.00104051
-0.000593991
0.0010493
-0.000676199
0.0010446
-0.000760984
0.00102216
-0.000848023
0.000976587
-0.000936698
0.000902125
-0.0010261
0.000793439
-0.001115
0.000646333
-0.00120181
0.000458303
-0.0012844
0.000228843
-0.00135906
-4.08199e-05
-0.00142119
-0.000345653
-0.00146274
-0.000680498
-0.0014724
-0.00103414
-0.00143531
-0.00138821
-0.00133488
-0.00171209
-0.00115788
-0.00195833
-0.000903914
-0.00206207
-0.000597785
-0.00195264
-0.000297066
-0.00158645
-7.84927e-05
-0.000996286
-0.000310025
-1.26118e-05
0.000193869
-4.49732e-05
0.000484915
-9.10887e-05
0.000694702
-0.000145821
0.000840797
-0.000205376
0.000940164
-0.000267311
0.00100724
-0.0003303
0.00105292
-0.000393825
0.00108423
-0.000457872
0.00110456
-0.000522697
0.00111412
-0.000588643
0.00111055
-0.000656046
0.00108956
-0.000725173
0.00104571
-0.000796225
0.000973176
-0.000869338
0.000866552
-0.000944568
0.000721563
-0.00102179
0.000535529
-0.00110048
0.000307525
-0.00117917
3.78748e-05
-0.00125436
-0.000270465
-0.00131996
-0.000614899
-0.00136536
-0.000988735
-0.00137462
-0.00137895
-0.00132684
-0.00175987
-0.00120005
-0.00208512
-0.000980844
-0.00228128
-0.00068094
-0.00225255
-0.000355022
-0.00191236
-9.8299e-05
-0.00125301
-0.000408324
-1.19919e-05
0.000205861
-4.29286e-05
0.000515852
-8.6285e-05
0.000738059
-0.000136387
0.000890898
-0.000189101
0.000992878
-0.000241819
0.00105996
-0.000293162
0.00110426
-0.00034263
0.00113369
-0.000390291
0.00115222
-0.000436567
0.0011604
-0.000482101
0.00115608
-0.000527685
0.00113515
-0.000574249
0.00109228
-0.000622859
0.00102179
-0.000674727
0.000918421
-0.00073116
0.000777996
-0.000793444
0.000597813
-0.000862584
0.000376665
-0.000939103
0.000114394
-0.00102121
-0.000188362
-0.00110501
-0.000531091
-0.00118186
-0.000911888
-0.00123662
-0.00132419
-0.00124654
-0.00174996
-0.00118285
-0.0021488
-0.00101883
-0.00244531
-0.000748189
-0.00252319
-0.000413179
-0.00224737
-0.000121079
-0.00154511
-0.000529402
-1.20519e-05
0.000217913
-4.27356e-05
0.000546535
-8.41658e-05
0.000779489
-0.000129718
0.000936451
-0.000174839
0.001038
-0.000216839
0.00110196
-0.000254436
0.00114186
-0.000287296
0.00116655
-0.000315699
0.00118062
-0.000340346
0.00118505
-0.000362263
0.001178
-0.000382776
0.00115566
-0.000403511
0.00111301
-0.00042641
0.00104469
-0.000453725
0.000945735
-0.000487896
0.000812168
-0.000531435
0.000641351
-0.000586694
0.000431923
-0.000655519
0.00018322
-0.000738275
-0.000105607
-0.000833071
-0.000436295
-0.000933971
-0.000810989
-0.00102844
-0.00122972
-0.00109466
-0.00168373
-0.00110048
-0.00214298
-0.00100789
-0.00253789
-0.000790187
-0.00274089
-0.000467432
-0.00257013
-0.000147026
-0.00186552
-0.000676428
-1.3407e-05
0.00023132
-4.59997e-05
0.000579128
-8.71705e-05
0.00082066
-0.000128789
0.000978069
-0.000165864
0.00107507
-0.000195851
0.00113195
-0.000217834
0.00116384
-0.000231891
0.00118061
-0.000238713
0.00118744
-0.000239421
0.00118575
-0.000235526
0.00117411
-0.000228936
0.00114907
-0.000221984
0.00110606
-0.000217415
0.00104012
-0.000218459
0.000946779
-0.000228492
0.0008222
-0.000250979
0.000663839
-0.000289252
0.000470195
-0.000346288
0.000240256
-0.000423951
-2.79437e-05
-0.000522223
-0.000338022
-0.000638127
-0.000695085
-0.000762901
-0.00110495
-0.000878367
-0.00156827
-0.000953056
-0.00206829
-0.000941933
-0.00254902
-0.000798605
-0.00288422
-0.000513079
-0.00285566
-0.000176545
-0.00220205
-0.000852973
-1.70609e-05
0.000248381
-5.50824e-05
0.00061715
-9.85945e-05
0.000864172
-0.000137316
0.00101679
-0.000165992
0.00110375
-0.000182662
0.00114862
-0.000187216
0.0011684
-0.000180492
0.00117389
-0.000163832
0.00117078
-0.000138943
0.00116086
-0.000107896
0.00114306
-7.32126e-05
0.00111439
-3.79157e-05
0.00107076
-5.54398e-06
0.00100774
2.02254e-05
0.00092101
3.51565e-05
0.000807269
3.49585e-05
0.000664037
1.55914e-05
0.000489563
-2.62251e-05
0.000282073
-9.36088e-05
3.944e-05
-0.00018823
-0.000243402
-0.000309706
-0.000573609
-0.000453586
-0.00096107
-0.000607262
-0.00141459
-0.000744114
-0.00193144
-0.000817749
-0.00247538
-0.000766105
-0.00293586
-0.000544704
-0.00307706
-0.000210074
-0.00253668
-0.00106305
-2.47547e-05
0.000273136
-7.35436e-05
0.000665938
-0.00012284
0.000913468
-0.000159702
0.00105365
-0.000179212
0.00112326
-0.000180783
0.00115019
-0.000165744
0.00115336
-0.00013613
0.00114427
-9.42031e-05
0.00112886
-4.23835e-05
0.00110904
1.66495e-05
0.00108403
7.98459e-05
0.00105119
0.000143682
0.00100693
0.000204169
0.000947258
0.000256808
0.000868371
0.00029699
0.000767087
0.000320101
0.000640926
0.000321751
0.000487913
0.000297833
0.000305991
0.00024502
9.22528e-05
0.00016034
-0.000158721
4.20306e-05
-0.000455299
-0.000109462
-0.000809578
-0.00028844
-0.00123561
-0.000476546
-0.00174334
-0.000632304
-0.00231962
-0.000684819
-0.00288335
-0.000555147
-0.00320673
-0.000247246
-0.00284458
-0.00131029
-3.9631e-05
0.000312767
-0.00010677
0.000733077
-0.000165485
0.000972184
-0.000200429
0.0010886
-0.000208478
0.00113131
-0.000191706
0.00113342
-0.00015374
0.00111539
-9.82953e-05
0.00108883
-2.87906e-05
0.00105935
5.1556e-05
0.0010287
0.000139515
0.000996068
0.000231603
0.000959104
0.000323955
0.000914576
0.000412276
0.000858937
0.000491897
0.00078875
0.000557981
0.000701003
0.000605711
0.000593196
0.000630491
0.000463132
0.000628053
0.000308429
0.000594513
0.000125794
0.000525998
-9.02072e-05
0.00041892
-0.000348221
0.00026991
-0.000660569
7.82967e-05
-0.001044
-0.000147924
-0.00151712
-0.000379045
-0.0020885
-0.000543661
-0.00271873
-0.00053325
-0.00321714
-0.000284949
-0.00309288
-0.00159524
-6.73907e-05
0.000380157
-0.00016247
0.000828156
-0.00023221
0.00104192
-0.0002614
0.00111779
-0.000251704
0.00112161
-0.000209816
0.00109153
-0.000142707
0.00104828
-5.62404e-05
0.00100236
4.48551e-05
0.000958255
0.000156615
0.000916937
0.000275393
0.00087729
0.000397518
0.000836979
0.00051907
0.000793023
0.000635791
0.000742216
0.000743105
0.000681435
0.000836255
0.000607853
0.000910468
0.000518983
0.000961092
0.000412509
0.000983634
0.000285887
0.000973678
0.00013575
0.000926447
-4.29767e-05
0.000836722
-0.000258496
0.000698137
-0.000521983
0.000504186
-0.000850047
0.000252452
-0.00126538
-4.20863e-05
-0.00179396
-0.000324277
-0.00243654
-0.000460317
-0.0030811
-0.000314293
-0.00323891
-0.00190954
-0.000118012
0.00049817
-0.00024942
0.000959563
-0.000323046
0.00111555
-0.000332367
0.00112711
-0.00028929
0.00107854
-0.000207828
0.00101007
-9.93728e-05
0.000939828
2.77926e-05
0.000875196
0.000167758
0.00081829
0.000316094
0.000768601
0.000469124
0.000724261
0.000623394
0.000682709
0.00077535
0.000641067
0.000921168
0.000596398
0.00105672
0.000545885
0.00117762
0.000486946
0.00127937
0.000417239
0.00135735
0.000334526
0.00140686
0.000236381
0.00142284
0.000119763
0.00139943
-1.95652e-05
0.00133005
-0.000189115
0.0012057
-0.000397629
0.00101542
-0.000659769
0.000747675
-0.000997638
0.000400339
-0.00144663
1.24969e-05
-0.0020487
-0.000304948
-0.00276365
-0.000321906
-0.00322195
-0.00223144
-0.000207469
0.000705638
-0.00036663
0.00111872
-0.000409244
0.00115816
-0.000359716
0.00107758
-0.000248649
0.000967469
-9.99144e-05
0.000861335
7.06692e-05
0.000769245
0.000253259
0.000692605
0.000441827
0.000629722
0.000632509
0.000577919
0.00082249
0.00053428
0.0010093
0.000495902
0.00119038
0.000459986
0.00136287
0.000423905
0.00152351
0.000385245
0.00166863
0.000341824
0.00179421
0.000291666
0.00189585
0.000232879
0.00196878
0.000163458
0.00200741
8.11325e-05
0.00200473
-1.68849e-05
0.00195311
-0.000137493
0.00184133
-0.000285848
0.0016553
-0.000473748
0.00137708
-0.000719414
0.000988265
-0.00105781
0.0004911
-0.00155153
-9.99462e-06
-0.00226256
-0.000264979
-0.00296696
-0.00249642
-0.000346228
0.00105187
-0.000439986
0.00121248
-0.000348159
0.00106634
-0.000156598
0.000886019
7.94835e-05
0.000731388
0.000331189
0.000609629
0.000583896
0.000516538
0.000830782
0.000445719
0.00106907
0.000391437
0.00129782
0.000349164
0.00151675
0.000315352
0.00172552
0.000287135
0.00192339
0.000262115
0.00210905
0.000238247
0.00228052
0.000213772
0.00243518
0.000187167
0.00256975
0.000157095
0.00268031
0.00012232
0.00276223
8.15381e-05
0.00280998
3.33803e-05
0.00281692
-2.38266e-05
0.00277333
-9.39047e-05
0.00266759
-0.000180106
0.00248376
-0.000289914
0.00219999
-0.000435643
0.00178707
-0.000644894
0.00121352
-0.000977983
0.000521643
-0.00157069
-1.99838e-05
-0.00242534
-0.0025164
-0.000307135
0.001359
-5.94057e-05
0.000964753
0.000365474
0.000641457
0.000785756
0.000465736
0.00117099
0.000346159
0.00151697
0.000263641
0.00182599
0.000207524
0.00210277
0.000168935
0.00235254
0.000141667
0.0025799
0.000121804
0.00278844
0.00010681
0.00298066
9.49202e-05
0.00315795
8.48234e-05
0.00332069
7.55113e-05
0.00346827
6.61846e-05
0.00359924
5.61952e-05
0.00371133
4.50097e-05
0.00380149
3.21571e-05
0.00386573
1.72988e-05
0.00389858
5.30632e-07
0.00389648
-2.17211e-05
0.0038488
-4.6232e-05
0.00374545
-7.67517e-05
0.00357129
-0.000115757
0.00330365
-0.000168
0.00290662
-0.000247863
0.00232021
-0.000391576
0.00148679
-0.000737268
0.000505365
-0.00144391
-0.00201104
0.001359
0.00232375
0.00296521
0.00343095
0.00377711
0.00404075
0.00424827
0.00441721
0.00455887
0.00468068
0.00478749
0.00488241
0.00496723
0.00504274
0.00510893
0.00516512
0.00521013
0.00524229
0.00525959
0.00526012
0.0052384
0.00519217
0.00511541
0.00499966
0.00483166
0.00458379
0.00419222
0.00345495
0.00201104
)
;

boundaryField
{
    movingWall
    {
        type            calculated;
        value           uniform 0;
    }
    fixedWalls
    {
        type            calculated;
        value           uniform 0;
    }
    frontAndBack
    {
        type            empty;
        value           nonuniform 0();
    }
}


// ************************************************************************* //
