/*--------------------------------*- C++ -*----------------------------------*\
  =========                 |
  \\      /  F ield         | OpenFOAM: The Open Source CFD Toolbox
   \\    /   O peration     | Website:  https://openfoam.org
    \\  /    A nd           | Version:  7
     \\/     M anipulation  |
\*---------------------------------------------------------------------------*/
FoamFile
{
    version     2.0;
    format      ascii;
    class       volScalarField;
    location    "1.27";
    object      p;
}
// * * * * * * * * * * * * * * * * * * * * * * * * * * * * * * * * * * * * * //

dimensions      [0 2 -2 0 0 0 0];

internalField   nonuniform List<scalar> 
1936
(
0.000121555
-2924.35
-6577.56
-6860.78
-6490.64
-6768.3
-6672.98
-5797.98
-4765.67
-4334.26
-4391.19
-5293
-7344.13
-7774.4
-5563.02
-3924.04
-3683.52
-4140.17
-6317.07
-8017.14
-6315.74
-4072.47
-3617.56
-3864.83
-5474.04
-7818.66
-7114.66
-4488.48
-3639.52
-3870
-5399.26
-7855.28
-7189.69
-4533.87
-3661.41
-3797.02
-5361.68
-7836.72
-7150.15
-4538.74
-3623.7
-3627.08
-4849.33
-7644.75
-113.333
-2932.61
-6525.76
-6821.91
-6472.78
-6741.08
-6642.62
-5786.65
-4786.37
-4379.84
-4431.86
-5289.9
-7291.6
-7717.58
-5548.4
-3964.34
-3747.71
-4169.78
-6279.99
-7954.66
-6288
-4103.62
-3679.05
-3905.69
-5467.04
-7762.4
-7049.87
-4495.11
-3703.24
-3915.84
-5389.79
-7797.75
-7133.43
-4541.6
-3724.35
-3847.12
-5346.17
-7773.41
-7101.1
-4546.22
-3682.32
-3684.36
-4848.38
-7588.76
-461.881
-2964.27
-6338.62
-6713.97
-6429.16
-6658.44
-6553.26
-5760.27
-4849.26
-4491.51
-4536.49
-5303.37
-7138.74
-7538.11
-5531.11
-4079.75
-3899.14
-4266.64
-6188.39
-7750.68
-6221.58
-4207.98
-3823.7
-4023.24
-5476.99
-7580.58
-6860.73
-4535.49
-3857.38
-4040.58
-5394.11
-7611.95
-6968.2
-4589.21
-3875.48
-3980.32
-5330.67
-7571.83
-6958.04
-4597.84
-3823.28
-3829.03
-4879.32
-7413.5
-938.528
-3037.06
-6075.07
-6549.85
-6361.98
-6538.91
-6423.13
-5724.36
-4941.11
-4644.83
-4684.17
-5333.8
-6915.2
-7265.79
-5512.39
-4249.93
-4108.03
-4412.25
-6061.07
-7437.43
-6119.45
-4362.27
-4027.38
-4196.85
-5488.71
-7295.4
-6594.55
-4611.77
-4072.53
-4219.88
-5403.27
-7324.43
-6727.95
-4672.13
-4085.54
-4170.92
-5319.01
-7266.74
-6741.72
-4683.5
-4022.67
-4033.52
-4932.94
-7144.34
-1485.99
-3156.02
-5782.68
-6343.15
-6263.03
-6390.96
-6270.34
-5685.96
-5047.97
-4814.31
-4847.89
-5373.04
-6658.52
-6946.17
-5493.48
-4447.73
-4339.41
-4579.99
-5919.77
-7068.35
-5994.8
-4538.72
-4257.56
-4398.89
-5495.46
-6953.38
-6301.94
-4711.22
-4309.19
-4422.37
-5411.55
-6984.41
-6455.82
-4775.06
-4316.57
-4384.39
-5311.52
-6911.94
-6488.43
-4787.34
-4247.38
-4261.58
-4997.01
-6827.61
-2064.13
-3321.31
-5495.85
-6108.79
-6130.08
-6223.25
-6109.51
-5648.43
-5158.03
-4980.6
-5007.96
-5413.95
-6397.92
-6615.45
-5475.98
-4651.36
-4569.38
-4750.84
-5780.7
-6686.68
-5858.67
-4716.3
-4491.31
-4605.66
-5492.92
-6594.47
-6022.48
-4822.64
-4540.23
-4624.73
-5416.6
-6630.46
-6184.63
-4886.67
-4543.18
-4595.01
-5309.2
-6549.93
-6226.01
-4897.64
-4473.01
-4487.36
-5064.55
-6499.45
-2640.19
-3529.89
-5240.41
-5862.45
-5968.46
-6045.06
-5951.66
-5612.7
-5259.84
-5129.77
-5150.08
-5451.21
-6154.98
-6302.29
-5460.94
-4843.36
-4781.35
-4910.5
-5657.77
-6326.11
-5723.42
-4879.42
-4710.22
-4799.07
-5478.43
-6253.18
-5784.54
-4935.06
-4748.32
-4810.8
-5416.27
-6293.12
-5939.31
-4996.44
-4749.09
-4786.42
-5312.31
-6212.09
-5976.56
-5003.84
-4682.85
-4694.92
-5130.41
-6187.32
-3183.83
-3772.72
-5037.04
-5622.71
-5789.59
-5865.49
-5804.28
-5578.45
-5343.89
-5252.34
-5265.98
-5479.69
-5942.79
-6027.5
-5448.97
-5011.34
-4964.03
-5050.33
-5558.5
-6011.5
-5600.64
-5019.27
-4900.63
-4966.62
-5452.83
-5954.37
-5602.32
-5039.86
-4924.05
-4970.22
-5409.71
-5995.62
-5734.04
-5096.21
-4924.82
-4949.74
-5318.97
-5920.41
-5757.08
-5097.37
-4866.29
-4875.17
-5189.18
-5912.04
-3664.91
-4033.6
-4901.73
-5410.04
-5609.18
-5694.69
-5671.95
-5542.67
-5403.44
-5343.91
-5353.2
-5493.91
-5767.91
-5804.52
-5438.33
-5148.45
-5111.08
-5166.49
-5482.76
-5758.63
-5499.56
-5132.12
-5054.05
-5101.63
-5419.96
-5713.72
-5475.28
-5131.35
-5063.68
-5099.16
-5396.14
-5752.67
-5575.27
-5179.35
-5065.55
-5081.5
-5324.93
-5687.83
-5579.65
-5172.83
-5016.91
-5022.93
-5236.86
-5686.84
-4060.97
-4288.39
-4840.52
-5243.38
-5444.93
-5542.05
-5557.23
-5503.82
-5436.24
-5403.78
-5410.33
-5492.45
-5632.53
-5637.98
-5427.81
-5252.06
-5221.38
-5253.99
-5428.46
-5573.56
-5425.02
-5216.03
-5167.96
-5201.7
-5386.7
-5537.56
-5395.2
-5204.72
-5166.82
-5196.43
-5377.7
-5570.63
-5463.04
-5241.71
-5170.33
-5181.55
-5326.32
-5518.16
-5450.61
-5226.97
-5132.66
-5137.25
-5269.26
-5518.34
-4367.39
-4511.44
-4842.55
-5133.69
-5313
-5416.14
-5461.64
-5462.01
-5444.29
-5433.78
-5438.88
-5478.1
-5534.86
-5524.74
-5416.94
-5321.18
-5296.87
-5311.79
-5392.05
-5453.04
-5376.66
-5272.13
-5245.41
-5267.33
-5359.21
-5423.43
-5349.96
-5256.89
-5238.15
-5261.52
-5358.46
-5447.9
-5391.47
-5282.36
-5242.12
-5249.74
-5323.4
-5407.63
-5368.58
-5261.65
-5213.31
-5217.24
-5287.68
-5406.02
-4594.72
-4689.71
-4882.41
-5078.38
-5222.67
-5322.74
-5386.31
-5419.54
-5433.28
-5438.71
-5443.39
-5455.84
-5469.1
-5454.82
-5405.58
-5359.26
-5341.54
-5343.57
-5369.65
-5385.52
-5349.94
-5304.91
-5292.06
-5303.84
-5340.56
-5360.37
-5327.91
-5289.41
-5282.52
-5298.43
-5342.17
-5375.77
-5350.71
-5304.9
-5285.52
-5289.45
-5318.68
-5345.66
-5324.66
-5281.57
-5262.51
-5265.77
-5296.3
-5341.65
-4758.11
-4824.16
-4938.6
-5063.37
-5172.89
-5262.25
-5331.22
-5379.98
-5410.51
-5426.3
-5431.02
-5430.72
-5426.83
-5414.44
-5393.99
-5374.02
-5362.13
-5356.6
-5357.16
-5354.09
-5337.85
-5321.02
-5315.86
-5320.13
-5330.1
-5332.17
-5319.57
-5307.07
-5306.38
-5315.05
-5330.69
-5339.8
-5330.29
-5314.93
-5307.53
-5308.15
-5314.62
-5317.27
-5306.3
-5292.56
-5288.09
-5290.28
-5299.51
-5311.35
-4879.55
-4922.54
-4993.06
-5074.09
-5154.24
-5228.85
-5293.81
-5345.67
-5381.97
-5402.3
-5408.71
-5406.09
-5399.27
-5391.16
-5382.89
-5374.76
-5366.78
-5358.57
-5350.28
-5342.06
-5333.25
-5327.32
-5325.26
-5325.24
-5325.09
-5322.74
-5318
-5315.39
-5316.78
-5320.2
-5323.79
-5324.68
-5321.59
-5318.04
-5315.98
-5314.59
-5312.31
-5307.74
-5301.66
-5298.37
-5299
-5299.92
-5300.27
-5300.58
-4973.39
-4998.8
-5042.26
-5095.43
-5154.19
-5213.47
-5269.25
-5316.8
-5352.34
-5374.01
-5383.02
-5383.31
-5379.68
-5375.71
-5372.4
-5368.72
-5363.26
-5355.35
-5346.47
-5338.29
-5332.3
-5329.02
-5327.4
-5325.73
-5323.26
-5320.56
-5318.83
-5318.76
-5319.81
-5320.52
-5320.19
-5319.31
-5318.47
-5318.09
-5317.78
-5315.69
-5311.47
-5306.27
-5302.33
-5301.52
-5302.53
-5302.43
-5300.55
-5298.3
-5047.72
-5061.44
-5087.41
-5122.04
-5163.24
-5208.52
-5253.18
-5293.18
-5324.81
-5346.17
-5357.82
-5362.38
-5363.19
-5362.75
-5361.85
-5359.9
-5356
-5350.04
-5343.08
-5336.72
-5332.05
-5329.09
-5327.03
-5325.02
-5322.73
-5320.81
-5319.84
-5319.8
-5319.98
-5319.56
-5318.57
-5317.57
-5317.18
-5317.11
-5316.58
-5314.59
-5311.14
-5307.25
-5304.43
-5303.41
-5303.34
-5302.64
-5300.94
-5299.3
-5105.9
-5113.13
-5128.28
-5150.3
-5178.25
-5210.35
-5243.96
-5275.44
-5301.92
-5321.75
-5334.97
-5342.88
-5347.31
-5349.68
-5350.61
-5350.01
-5347.69
-5343.87
-5339.28
-5334.85
-5331.2
-5328.44
-5326.21
-5324.22
-5322.43
-5321.08
-5320.2
-5319.71
-5319.25
-5318.55
-5317.66
-5316.86
-5316.35
-5315.9
-5315.02
-5313.34
-5310.9
-5308.24
-5306.08
-5304.72
-5303.83
-5302.83
-5301.62
-5300.66
-5150.18
-5154.26
-5163.33
-5177.25
-5195.69
-5217.61
-5241.31
-5264.56
-5285.42
-5302.58
-5315.68
-5325.16
-5331.73
-5336.09
-5338.64
-5339.53
-5338.92
-5337.12
-5334.62
-5331.93
-5329.4
-5327.15
-5325.18
-5323.46
-5322.02
-5320.89
-5320.02
-5319.3
-5318.56
-5317.75
-5316.94
-5316.21
-5315.55
-5314.82
-5313.81
-5312.4
-5310.65
-5308.8
-5307.11
-5305.72
-5304.58
-5303.56
-5302.69
-5302.12
-5183.25
-5185.85
-5191.61
-5200.59
-5212.67
-5227.25
-5243.35
-5259.83
-5275.43
-5289.26
-5300.89
-5310.24
-5317.51
-5322.91
-5326.66
-5328.91
-5329.87
-5329.81
-5329.04
-5327.85
-5326.48
-5325.06
-5323.68
-5322.4
-5321.28
-5320.33
-5319.5
-5318.72
-5317.94
-5317.14
-5316.36
-5315.61
-5314.86
-5314.02
-5313.03
-5311.86
-5310.56
-5309.2
-5307.9
-5306.71
-5305.67
-5304.8
-5304.15
-5303.77
-5207.79
-5209.58
-5213.44
-5219.41
-5227.39
-5237.06
-5247.91
-5259.3
-5270.54
-5281.11
-5290.61
-5298.85
-5305.76
-5311.36
-5315.7
-5318.87
-5321
-5322.26
-5322.84
-5322.91
-5322.63
-5322.12
-5321.48
-5320.78
-5320.08
-5319.4
-5318.73
-5318.06
-5317.37
-5316.66
-5315.94
-5315.21
-5314.46
-5313.66
-5312.78
-5311.82
-5310.82
-5309.8
-5308.81
-5307.89
-5307.07
-5306.4
-5305.92
-5305.65
-5225.89
-5227.16
-5229.8
-5233.83
-5239.18
-5245.65
-5252.97
-5260.8
-5268.82
-5276.65
-5284.06
-5290.85
-5296.89
-5302.13
-5306.53
-5310.11
-5312.92
-5315.04
-5316.57
-5317.61
-5318.25
-5318.58
-5318.67
-5318.59
-5318.38
-5318.08
-5317.7
-5317.27
-5316.77
-5316.23
-5315.65
-5315.04
-5314.39
-5313.7
-5312.97
-5312.22
-5311.45
-5310.69
-5309.95
-5309.28
-5308.69
-5308.21
-5307.87
-5307.68
-5239.04
-5239.93
-5241.76
-5244.52
-5248.17
-5252.58
-5257.6
-5263.06
-5268.76
-5274.55
-5280.22
-5285.64
-5290.71
-5295.33
-5299.45
-5303.06
-5306.14
-5308.72
-5310.84
-5312.54
-5313.86
-5314.86
-5315.58
-5316.07
-5316.36
-5316.49
-5316.48
-5316.35
-5316.13
-5315.82
-5315.44
-5315
-5314.52
-5313.99
-5313.45
-5312.88
-5312.31
-5311.76
-5311.24
-5310.76
-5310.35
-5310.02
-5309.79
-5309.66
-5247.62
-5248.27
-5249.59
-5251.59
-5254.22
-5257.41
-5261.08
-5265.11
-5269.4
-5273.84
-5278.32
-5282.74
-5287
-5291.04
-5294.8
-5298.24
-5301.34
-5304.09
-5306.48
-5308.54
-5310.28
-5311.71
-5312.87
-5313.78
-5314.47
-5314.97
-5315.29
-5315.46
-5315.49
-5315.42
-5315.25
-5315
-5314.69
-5314.33
-5313.94
-5313.53
-5313.12
-5312.71
-5312.33
-5311.99
-5311.7
-5311.47
-5311.31
-5311.22
-5252.42
-5252.94
-5253.99
-5255.57
-5257.67
-5260.23
-5263.18
-5266.45
-5269.98
-5273.68
-5277.48
-5281.3
-5285.06
-5288.71
-5292.2
-5295.48
-5298.53
-5301.31
-5303.81
-5306.04
-5307.99
-5309.66
-5311.08
-5312.25
-5313.19
-5313.92
-5314.47
-5314.84
-5315.06
-5315.16
-5315.14
-5315.02
-5314.84
-5314.59
-5314.31
-5314
-5313.68
-5313.36
-5313.06
-5312.79
-5312.56
-5312.38
-5312.26
-5312.2
-5254.81
-5255.27
-5256.17
-5257.55
-5259.38
-5261.62
-5264.22
-5267.12
-5270.26
-5273.59
-5277.04
-5280.54
-5284.04
-5287.48
-5290.82
-5294.01
-5297.01
-5299.8
-5302.36
-5304.67
-5306.74
-5308.54
-5310.1
-5311.42
-5312.51
-5313.39
-5314.06
-5314.56
-5314.89
-5315.08
-5315.15
-5315.11
-5315
-5314.81
-5314.58
-5314.32
-5314.05
-5313.77
-5313.51
-5313.28
-5313.08
-5312.92
-5312.81
-5312.76
-5255.8
-5256.22
-5257.06
-5258.34
-5260.04
-5262.13
-5264.57
-5267.29
-5270.26
-5273.42
-5276.7
-5280.07
-5283.45
-5286.81
-5290.08
-5293.24
-5296.23
-5299.05
-5301.65
-5304.02
-5306.16
-5308.05
-5309.69
-5311.1
-5312.27
-5313.23
-5313.98
-5314.54
-5314.93
-5315.17
-5315.28
-5315.28
-5315.2
-5315.04
-5314.83
-5314.58
-5314.32
-5314.06
-5313.81
-5313.59
-5313.39
-5313.25
-5313.14
-5313.09
-5255.96
-5256.37
-5257.18
-5258.42
-5260.08
-5262.12
-5264.49
-5267.15
-5270.06
-5273.16
-5276.41
-5279.73
-5283.09
-5286.43
-5289.7
-5292.87
-5295.89
-5298.74
-5301.39
-5303.81
-5306
-5307.94
-5309.64
-5311.1
-5312.33
-5313.32
-5314.11
-5314.7
-5315.12
-5315.38
-5315.5
-5315.5
-5315.42
-5315.26
-5315.04
-5314.79
-5314.53
-5314.26
-5314.01
-5313.78
-5313.59
-5313.44
-5313.34
-5313.28
-5255.69
-5256.1
-5256.9
-5258.14
-5259.8
-5261.83
-5264.21
-5266.87
-5269.79
-5272.9
-5276.16
-5279.5
-5282.88
-5286.25
-5289.56
-5292.77
-5295.83
-5298.72
-5301.41
-5303.87
-5306.1
-5308.09
-5309.82
-5311.3
-5312.55
-5313.56
-5314.36
-5314.95
-5315.36
-5315.62
-5315.73
-5315.72
-5315.61
-5315.44
-5315.2
-5314.94
-5314.65
-5314.37
-5314.1
-5313.86
-5313.66
-5313.51
-5313.4
-5313.35
-5255.26
-5255.67
-5256.48
-5257.73
-5259.41
-5261.47
-5263.88
-5266.58
-5269.54
-5272.7
-5276
-5279.4
-5282.84
-5286.26
-5289.62
-5292.87
-5295.98
-5298.91
-5301.63
-5304.13
-5306.38
-5308.38
-5310.12
-5311.61
-5312.85
-5313.86
-5314.64
-5315.21
-5315.6
-5315.82
-5315.9
-5315.86
-5315.73
-5315.51
-5315.25
-5314.95
-5314.65
-5314.34
-5314.05
-5313.8
-5313.59
-5313.42
-5313.32
-5313.26
-5254.84
-5255.26
-5256.08
-5257.35
-5259.07
-5261.17
-5263.63
-5266.39
-5269.41
-5272.63
-5276
-5279.46
-5282.95
-5286.43
-5289.84
-5293.14
-5296.29
-5299.25
-5302
-5304.51
-5306.77
-5308.76
-5310.5
-5311.97
-5313.18
-5314.15
-5314.9
-5315.43
-5315.77
-5315.94
-5315.97
-5315.88
-5315.7
-5315.44
-5315.13
-5314.8
-5314.46
-5314.12
-5313.82
-5313.54
-5313.32
-5313.15
-5313.04
-5312.98
-5254.55
-5254.97
-5255.8
-5257.11
-5258.86
-5261.01
-5263.53
-5266.36
-5269.44
-5272.73
-5276.16
-5279.68
-5283.24
-5286.77
-5290.22
-5293.56
-5296.73
-5299.71
-5302.47
-5304.97
-5307.22
-5309.2
-5310.9
-5312.34
-5313.51
-5314.42
-5315.11
-5315.58
-5315.85
-5315.96
-5315.92
-5315.76
-5315.51
-5315.19
-5314.83
-5314.45
-5314.06
-5313.69
-5313.36
-5313.07
-5312.83
-5312.65
-5312.54
-5312.49
-5254.46
-5254.88
-5255.72
-5257.06
-5258.85
-5261.06
-5263.63
-5266.51
-5269.66
-5273
-5276.49
-5280.06
-5283.66
-5287.22
-5290.71
-5294.07
-5297.26
-5300.24
-5302.99
-5305.49
-5307.71
-5309.66
-5311.32
-5312.7
-5313.81
-5314.66
-5315.28
-5315.67
-5315.86
-5315.88
-5315.76
-5315.52
-5315.18
-5314.79
-5314.35
-5313.9
-5313.46
-5313.04
-5312.67
-5312.35
-5312.1
-5311.92
-5311.82
-5311.77
-5254.62
-5255.04
-5255.89
-5257.25
-5259.08
-5261.32
-5263.93
-5266.85
-5270.03
-5273.41
-5276.93
-5280.54
-5284.16
-5287.76
-5291.26
-5294.63
-5297.83
-5300.81
-5303.55
-5306.02
-5308.21
-5310.11
-5311.73
-5313.05
-5314.1
-5314.87
-5315.41
-5315.71
-5315.82
-5315.75
-5315.53
-5315.19
-5314.76
-5314.26
-5313.73
-5313.2
-5312.67
-5312.19
-5311.76
-5311.41
-5311.14
-5310.95
-5310.85
-5310.82
-5255.06
-5255.48
-5256.34
-5257.7
-5259.54
-5261.79
-5264.4
-5267.33
-5270.52
-5273.91
-5277.45
-5281.07
-5284.71
-5288.31
-5291.83
-5295.21
-5298.4
-5301.37
-5304.09
-5306.54
-5308.7
-5310.56
-5312.12
-5313.38
-5314.36
-5315.07
-5315.52
-5315.74
-5315.75
-5315.58
-5315.26
-5314.82
-5314.28
-5313.68
-5313.04
-5312.39
-5311.77
-5311.18
-5310.67
-5310.24
-5309.93
-5309.72
-5309.63
-5309.62
-5255.83
-5256.24
-5257.08
-5258.4
-5260.2
-5262.41
-5264.99
-5267.89
-5271.06
-5274.44
-5277.98
-5281.6
-5285.25
-5288.86
-5292.38
-5295.75
-5298.94
-5301.9
-5304.6
-5307.03
-5309.15
-5310.97
-5312.49
-5313.69
-5314.61
-5315.24
-5315.62
-5315.76
-5315.68
-5315.42
-5315
-5314.45
-5313.8
-5313.09
-5312.33
-5311.56
-5310.81
-5310.09
-5309.45
-5308.91
-5308.5
-5308.23
-5308.14
-5308.16
-5257
-5257.35
-5258.12
-5259.31
-5261.01
-5263.13
-5265.63
-5268.47
-5271.6
-5274.96
-5278.48
-5282.09
-5285.74
-5289.35
-5292.87
-5296.25
-5299.43
-5302.38
-5305.07
-5307.47
-5309.57
-5311.35
-5312.82
-5313.98
-5314.84
-5315.41
-5315.72
-5315.78
-5315.62
-5315.28
-5314.76
-5314.12
-5313.36
-5312.53
-5311.66
-5310.75
-5309.86
-5308.99
-5308.19
-5307.48
-5306.91
-5306.49
-5306.36
-5306.36
-5258.69
-5258.83
-5259.44
-5260.38
-5261.9
-5263.86
-5266.26
-5269.02
-5272.09
-5275.42
-5278.92
-5282.52
-5286.17
-5289.78
-5293.31
-5296.68
-5299.86
-5302.81
-5305.48
-5307.87
-5309.94
-5311.69
-5313.13
-5314.24
-5315.05
-5315.57
-5315.82
-5315.81
-5315.59
-5315.16
-5314.57
-5313.83
-5312.98
-5312.05
-5311.06
-5310.03
-5308.98
-5307.95
-5306.96
-5306.02
-5305.23
-5304.54
-5304.28
-5304.12
-5261.02
-5260.64
-5260.95
-5261.5
-5262.78
-5264.56
-5266.83
-5269.5
-5272.51
-5275.8
-5279.28
-5282.88
-5286.52
-5290.14
-5293.67
-5297.04
-5300.22
-5303.16
-5305.83
-5308.2
-5310.26
-5311.99
-5313.39
-5314.47
-5315.24
-5315.71
-5315.91
-5315.85
-5315.57
-5315.08
-5314.42
-5313.61
-5312.68
-5311.65
-5310.55
-5309.41
-5308.23
-5307.03
-5305.84
-5304.65
-5303.57
-5302.47
-5301.95
-5301.31
-5264.13
-5262.67
-5262.54
-5262.57
-5263.57
-5265.15
-5267.29
-5269.88
-5272.84
-5276.09
-5279.56
-5283.15
-5286.8
-5290.42
-5293.95
-5297.33
-5300.51
-5303.45
-5306.12
-5308.48
-5310.52
-5312.23
-5313.61
-5314.66
-5315.4
-5315.84
-5316
-5315.9
-5315.56
-5315.02
-5314.31
-5313.44
-5312.44
-5311.34
-5310.16
-5308.91
-5307.62
-5306.27
-5304.9
-5303.45
-5302.05
-5300.41
-5299.49
-5297.79
-5268.12
-5264.76
-5264.04
-5263.49
-5264.22
-5265.62
-5267.65
-5270.16
-5273.08
-5276.3
-5279.76
-5283.35
-5287
-5290.63
-5294.16
-5297.55
-5300.73
-5303.67
-5306.33
-5308.69
-5310.72
-5312.42
-5313.78
-5314.82
-5315.53
-5315.94
-5316.07
-5315.94
-5315.57
-5314.99
-5314.23
-5313.32
-5312.27
-5311.12
-5309.87
-5308.55
-5307.16
-5305.69
-5304.16
-5302.48
-5300.78
-5298.54
-5297.08
-5293.47
-5272.89
-5266.69
-5265.3
-5264.2
-5264.7
-5265.94
-5267.89
-5270.35
-5273.23
-5276.44
-5279.89
-5283.48
-5287.13
-5290.76
-5294.3
-5297.69
-5300.88
-5303.82
-5306.48
-5308.84
-5310.86
-5312.55
-5313.91
-5314.93
-5315.63
-5316.02
-5316.13
-5315.97
-5315.58
-5314.98
-5314.19
-5313.24
-5312.16
-5310.97
-5309.68
-5308.3
-5306.84
-5305.29
-5303.64
-5301.77
-5299.82
-5297.02
-5294.93
-5288.46
-5278.1
-5268.23
-5266.19
-5264.66
-5265
-5266.14
-5268.03
-5270.46
-5273.32
-5276.52
-5279.97
-5283.56
-5287.21
-5290.84
-5294.39
-5297.78
-5300.97
-5303.92
-5306.58
-5308.93
-5310.95
-5312.63
-5313.98
-5314.99
-5315.68
-5316.07
-5316.16
-5316
-5315.59
-5314.97
-5314.17
-5313.2
-5312.1
-5310.88
-5309.56
-5308.15
-5306.66
-5305.05
-5303.32
-5301.33
-5299.2
-5295.97
-5293.26
-5283.09
-5283.03
-5269.2
-5266.67
-5264.91
-5265.15
-5266.24
-5268.1
-5270.51
-5273.36
-5276.56
-5280
-5283.59
-5287.25
-5290.88
-5294.43
-5297.82
-5301.01
-5303.96
-5306.62
-5308.97
-5310.99
-5312.67
-5314.02
-5315.03
-5315.71
-5316.09
-5316.18
-5316.01
-5315.59
-5314.97
-5314.16
-5313.18
-5312.07
-5310.84
-5309.51
-5308.09
-5306.57
-5304.93
-5303.17
-5301.12
-5298.88
-5295.42
-5292.22
-5278.08
-5286.98
-5269.63
-5266.84
-5264.99
-5265.2
-5266.27
-5268.12
-5270.52
-5273.38
-5276.57
-5280.01
-5283.6
-5287.26
-5290.89
-5294.44
-5297.83
-5301.03
-5303.97
-5306.63
-5308.98
-5311
-5312.68
-5314.03
-5315.03
-5315.72
-5316.1
-5316.19
-5316.01
-5315.6
-5314.97
-5314.15
-5313.18
-5312.06
-5310.83
-5309.5
-5308.07
-5306.54
-5304.9
-5303.12
-5301.05
-5298.78
-5295.24
-5291.78
-5274.11
)
;

boundaryField
{
    movingWall
    {
        type            zeroGradient;
    }
    fixedWalls
    {
        type            zeroGradient;
    }
    frontAndBack
    {
        type            empty;
    }
    defaultFaces
    {
        type            empty;
    }
}


// ************************************************************************* //
