/*--------------------------------*- C++ -*----------------------------------*\
  =========                 |
  \\      /  F ield         | OpenFOAM: The Open Source CFD Toolbox
   \\    /   O peration     | Website:  https://openfoam.org
    \\  /    A nd           | Version:  7
     \\/     M anipulation  |
\*---------------------------------------------------------------------------*/
FoamFile
{
    version     2.0;
    format      ascii;
    class       surfaceScalarField;
    location    "0.34";
    object      phi;
}
// * * * * * * * * * * * * * * * * * * * * * * * * * * * * * * * * * * * * * //

dimensions      [0 3 -1 0 0 0 0];

internalField   nonuniform List<scalar> 
3784
(
-0.00271184
0.00271184
-0.00279088
7.90462e-05
-0.00142418
-0.0013667
-0.000390273
-0.00103391
0.000182866
-0.000573138
0.000825564
-0.000642698
0.00133043
-0.000504866
0.00141102
-8.05877e-05
0.000921441
0.000489578
-9.4327e-05
0.00101577
-0.00111926
0.00102493
-0.0015121
0.000392846
-0.000928157
-0.000583942
0.000348649
-0.00127681
0.00115238
-0.000803735
0.000604643
0.00054774
-0.000903869
0.00150851
-0.00202862
0.00112475
-0.00165587
-0.000372751
-0.000219429
-0.00143644
0.000887253
-0.00110668
0.000707215
0.000180039
-0.000645839
0.00135305
-0.00183213
0.00118629
-0.00141833
-0.0004138
0.000104556
-0.00152289
0.0011324
-0.00102785
0.000950309
0.000182092
-0.000308782
0.00125909
-0.00153054
0.00122176
-0.00139765
-0.000132895
-8.88882e-05
-0.00130876
0.00108838
-0.00117727
0.00103931
4.90715e-05
-0.00020877
0.00124808
-0.00143089
0.00122212
-0.0014288
-2.0925e-06
-0.00016155
-0.00126725
0.00132074
-0.00148229
0.00163319
-0.000312446
0.000535404
0.00109778
-0.000763641
0.00129905
-0.000953154
0.000189513
-0.000953153
-0.00357196
0.0062838
-0.00394374
0.000450816
-0.00169879
-0.00361165
-0.000484743
-0.00224794
4.64947e-05
-0.00110437
0.000892841
-0.00148905
0.00151021
-0.00112223
0.0014724
-4.27824e-05
0.000834518
0.00112746
-8.16338e-05
0.00193192
-0.00103664
0.00197994
-0.00180398
0.00116018
-0.00130599
-0.00108194
0.000573645
-0.00315644
0.00137663
-0.00160672
0.000391765
0.0015326
-0.000869894
0.00277017
-0.00205558
0.00231043
-0.0021138
-0.000314524
-0.000118948
-0.0034313
0.00126159
-0.00248722
0.000533405
0.00090823
-0.000660346
0.0025468
-0.00184704
0.00237298
-0.00180983
-0.000451002
0.00027368
-0.0036064
0.00152487
-0.00227904
0.000787544
0.000919423
-0.00031724
0.00236387
-0.00151014
0.00241466
-0.00180714
0.000164106
-3.39886e-05
-0.00308191
0.00147139
-0.00268264
0.000922758
0.000597701
-0.000240588
0.00241142
-0.00136841
0.00234994
-0.001835
0.000464499
-0.000213321
-0.00288893
0.00168207
-0.00337768
0.00153356
-0.000163938
0.000492181
0.00213916
-0.000698947
0.00249017
-0.00133494
0.00082551
-0.0022881
-0.00338273
0.00966653
-0.00428188
0.00134997
-0.00226635
-0.00562718
-0.000672718
-0.00384158
8.37921e-05
-0.00186088
0.000974507
-0.00237975
0.00166452
-0.00181224
0.00162845
-6.71819e-06
0.000853873
0.00190204
-0.000269021
0.00305482
-0.00141276
0.00312367
-0.00217298
0.0019204
-0.00136128
-0.00189364
0.000874214
-0.00539193
0.00182602
-0.00255853
0.000798492
0.00256013
-0.000714372
0.00428303
-0.00222529
0.00382135
-0.00234137
-0.000198445
-8.22256e-05
-0.00569044
0.00160077
-0.00417022
0.000935992
0.001573
-0.000490626
0.00397342
-0.00200391
0.00388626
-0.00211447
-0.000340446
0.000176417
-0.00589728
0.00177378
-0.00387641
0.00106532
0.00162789
-0.000342511
0.00377171
-0.00179814
0.00387029
-0.00207723
0.000443191
-2.53541e-05
-0.00513379
0.00175842
-0.00446642
0.00123003
0.00112608
-0.00019415
0.00383561
-0.0016104
0.00376619
-0.00207576
0.000929856
-0.000190844
-0.00477384
0.00183897
-0.00540749
0.00147832
0.000196714
7.96108e-05
0.00353787
-0.00123987
0.00380966
-0.00167081
0.00125645
-0.00395891
-0.00266962
0.0123361
-0.00385568
0.00253604
-0.00260275
-0.00688011
-0.0011207
-0.00532363
-0.000161685
-0.00281989
0.000657054
-0.00319849
0.0011966
-0.00235179
0.00110199
8.78976e-05
0.000431108
0.00257292
-0.000429202
0.00391513
-0.00123878
0.00393325
-0.00168957
0.00237119
-0.000958827
-0.00262438
0.000686257
-0.00703701
0.001321
-0.00319327
0.000647909
0.00323323
-0.000346635
0.00527758
-0.00145495
0.00492966
-0.00164966
-3.73196e-06
-0.000119364
-0.00722074
0.0010616
-0.00535118
0.000666363
0.00196824
-0.000221305
0.00486109
-0.00125882
0.00492378
-0.00151437
-8.48939e-05
-1.45485e-05
-0.0073971
0.0011495
-0.00504045
0.000672567
0.00210482
-0.000290829
0.0047351
-0.00125094
0.0048304
-0.0014631
0.000655347
-4.50759e-05
-0.00655181
0.00118238
-0.00569387
0.000820933
0.00148753
-0.000119919
0.00477646
-0.00108454
0.00473081
-0.00142446
0.00126978
-0.000126235
-0.00607206
0.00112644
-0.00666017
0.00065604
0.000667112
-0.000360153
0.00455406
-0.00110503
0.00455453
-0.00122578
0.00137721
-0.00518469
-0.00191366
0.0142498
-0.00331026
0.00393264
-0.00282581
-0.00736457
-0.00160659
-0.00654285
-0.000547512
-0.00387897
0.000147243
-0.00389325
0.000523889
-0.00272844
0.000438382
0.000173408
-4.21456e-05
0.00305344
-0.000550487
0.00442346
-0.00100121
0.00438397
-0.00114257
0.00251255
-0.000521595
-0.00324535
0.000464588
-0.0080232
0.000804846
-0.00353353
0.000433266
0.00360481
-3.45509e-05
0.00574539
-0.000640644
0.00553575
-0.000892916
0.000248539
-0.000128694
-0.00798496
0.000532362
-0.00601224
0.0003525
0.0021481
1.57717e-05
0.00519782
-0.00049295
0.0054325
-0.000840876
0.000263033
-0.000188509
-0.00804947
0.000512566
-0.00574153
0.000266222
0.00235117
-0.000193016
0.00519434
-0.000629143
0.00526653
-0.000787105
0.00081331
-5.13861e-05
-0.00728753
0.000588765
-0.00633402
0.000372599
0.0017037
-3.70415e-05
0.0051861
-0.00050965
0.00520342
-0.000726403
0.00148653
-6.73783e-05
-0.00673109
0.000401429
-0.00712897
-5.20204e-05
0.00112056
-0.000568628
0.00507067
-0.000812813
0.00479872
-0.000746262
0.00131066
-0.00593095
-0.00100165
0.0152515
-0.00252062
0.00545161
-0.00282667
-0.00705852
-0.00202175
-0.00734777
-0.00104687
-0.00485386
-0.000528531
-0.00441159
-0.000315894
-0.00294107
-0.000336971
0.000194486
-0.00050985
0.00322632
-0.000593693
0.0045073
-0.000632853
0.00442313
-0.000508736
0.00238843
-0.000101089
-0.003653
0.000196385
-0.00832067
0.000224911
-0.00356206
0.000161846
0.00366787
0.000171904
0.00573534
9.46872e-05
0.00561297
-0.000141335
0.000484561
-0.000127971
-0.00799832
2.19831e-05
-0.00616219
4.45609e-05
0.00212552
0.000169087
0.00507329
0.000205911
0.00539568
-0.000139664
0.000608608
-0.000314744
-0.00787439
-0.000112153
-0.00594412
-9.02766e-05
0.00232929
-6.24622e-05
0.00516653
-3.47127e-06
0.00520754
-9.14072e-05
0.000901246
-5.09785e-05
-0.00732796
8.59319e-06
-0.00639359
-4.71286e-05
0.00175942
2.39003e-05
0.00511507
4.57996e-05
0.00518152
-2.0934e-05
0.00155326
-2.97326e-05
-0.00672229
-0.000249159
-0.00690955
-0.000521268
0.00139267
-0.000493185
0.00504259
-0.000359749
0.00466528
-0.000217165
0.00116808
-0.00614812
5.95071e-05
0.0151919
-0.00134173
0.00685285
-0.00244204
-0.0059582
-0.00224548
-0.00754432
-0.00155442
-0.00554491
-0.00126468
-0.00470132
-0.00120787
-0.00299789
-0.00112148
0.000108095
-0.000921141
0.00302598
-0.000589508
0.00417567
-0.000242552
0.00407617
9.03984e-05
0.00205548
0.000228196
-0.0037908
-0.000140642
-0.00795183
-0.000398975
-0.00330373
-0.000182883
0.00345178
0.000254768
0.00529768
0.000674541
0.00519319
0.000550042
0.000609059
-0.000137274
-0.00731101
-0.000496224
-0.00580325
-0.000259202
0.0018885
0.000224091
0.00459
0.00074198
0.00487779
0.000519409
0.000831178
-0.000374381
-0.0069806
-0.000696546
-0.00562196
-0.000401178
0.00203392
5.92589e-05
0.00470609
0.000543122
0.00472367
0.000565426
0.000878942
-5.68597e-05
-0.00670567
-0.000553025
-0.00589743
-0.000417208
0.0016236
5.48973e-05
0.00464297
0.00052077
0.00471565
0.000616771
0.00145726
-2.10689e-05
-0.00608445
-0.000803281
-0.00612733
-0.00078742
0.00137681
-0.000273282
0.00452845
0.000173984
0.00421802
0.00033508
0.00100698
-0.00581304
0.00119994
0.013992
0.000282386
0.0077704
-0.00153393
-0.00414189
-0.00210932
-0.00696893
-0.00189486
-0.00575938
-0.00189183
-0.00470435
-0.00196633
-0.00292339
-0.00176001
-9.82212e-05
-0.00120592
0.00247189
-0.000558617
0.00352837
8.17308e-05
0.00343582
0.000598644
0.00153856
0.000418533
-0.00361069
-0.000558177
-0.00697512
-0.00102411
-0.0028378
-0.000559578
0.00298724
0.000235915
0.00450219
0.00105627
0.00437284
0.00106406
0.000601276
-0.000165882
-0.00608107
-0.000947553
-0.00502158
-0.000528335
0.00146929
0.000210098
0.00385157
0.00107901
0.00400888
0.00104095
0.00086923
-0.000375256
-0.00556439
-0.00115909
-0.00483812
-0.000650524
0.00152536
0.000122409
0.00393315
0.00094418
0.0039019
0.00107981
0.000743315
-7.73772e-05
-0.00554849
-0.00101052
-0.00496428
-0.000700687
0.00131376
6.41077e-05
0.00387817
0.00087597
0.00390378
0.00111332
0.00121992
-2.83328e-05
-0.0049428
-0.00118588
-0.00496978
-0.000923672
0.0011146
-7.099e-05
0.00367577
0.000612666
0.00353437
0.000844123
0.000775526
-0.00496892
0.00218773
0.0118043
0.00212568
0.00783246
-0.000106253
-0.00190995
-0.00147456
-0.00560062
-0.00187572
-0.00535822
-0.00219915
-0.00438092
-0.00239674
-0.0027258
-0.00212187
-0.000373084
-0.00136143
0.00171145
-0.000486038
0.00265297
0.000342392
0.00260739
0.00093565
0.000945312
0.000450113
-0.00312515
-0.000968847
-0.00555616
-0.00154693
-0.00225972
-0.000816751
0.00225706
0.000159524
0.00352591
0.00118429
0.00334807
0.00135627
0.000429289
-0.000198131
-0.00452666
-0.0012893
-0.0039304
-0.000719219
0.000899202
0.000143021
0.00298933
0.00116539
0.00298651
0.00131823
0.000716388
-0.000319022
-0.00392713
-0.0014361
-0.00372105
-0.000818406
0.000907665
0.000115014
0.00299973
0.00109997
0.00291695
0.00135666
0.000486626
-0.000113827
-0.00407801
-0.00132225
-0.00375586
-0.000855381
0.000846891
5.33103e-05
0.00296948
0.00101637
0.00294073
0.0013758
0.000860486
-3.57065e-05
-0.0035313
-0.00137205
-0.00363343
-0.000927603
0.000670152
2.63277e-05
0.00272184
0.000908287
0.00265241
0.00119937
0.000484446
-0.00376955
0.00264645
0.00915783
0.00353913
0.00693978
0.00153084
9.83336e-05
-0.000359058
-0.00371072
-0.0013879
-0.00432938
-0.00205321
-0.00371561
-0.00237977
-0.00239924
-0.00212363
-0.000629222
-0.00134036
0.000928186
-0.000397349
0.00170997
0.000508186
0.00170186
0.00105133
0.000402166
0.000361964
-0.00243578
-0.00122559
-0.00396861
-0.00182138
-0.00166393
-0.00101292
0.0014486
5.34133e-05
0.00245958
0.00113523
0.00226625
0.00135014
0.000214381
-0.000211987
-0.00296453
-0.00141171
-0.00273068
-0.00089787
0.000385356
4.1346e-05
0.00205011
0.00104367
0.0019842
0.00128006
0.000480002
-0.000231365
-0.00241571
-0.00145476
-0.00249766
-0.000929724
0.000382633
7.69923e-05
0.00199302
0.00108255
0.00191139
0.00132474
0.000244441
-0.000137286
-0.00261598
-0.00138992
-0.00250323
-0.000951912
0.000408889
1.73577e-05
0.00200021
0.00100278
0.00195531
0.00134224
0.000521022
-1.26075e-05
-0.00217645
-0.00130447
-0.00234157
-0.000896794
0.000262478
7.11212e-05
0.00175393
0.00100827
0.00171526
0.00127783
0.00021489
-0.00249172
0.00251306
0.00664477
0.00396104
0.0054918
0.00274186
0.00131751
0.000873021
-0.00184189
-0.000516446
-0.00293992
-0.00145395
-0.0027781
-0.00192068
-0.00193251
-0.00179078
-0.000759123
-0.00114987
0.000287279
-0.000299708
0.000859801
0.000536907
0.000865243
0.000950506
-1.14327e-05
0.000217064
-0.00170234
-0.00125095
-0.0025006
-0.00178461
-0.00113027
-0.00107298
0.000736964
-7.19527e-05
0.00145856
0.000903028
0.00129127
0.0010774
4.0011e-05
-0.000194886
-0.00169225
-0.00127446
-0.0016511
-0.000933115
4.40127e-05
-4.88449e-05
0.00116584
0.000784885
0.00115047
0.00100367
0.000261219
-0.000135334
-0.00127671
-0.00120295
-0.00143004
-0.00087417
5.3855e-05
2.80438e-05
0.0010908
0.000884969
0.00105446
0.00104799
8.1417e-05
-0.000125568
-0.00144243
-0.00119218
-0.00143662
-0.000889803
0.000106516
-1.94402e-05
0.00112985
0.000819262
0.0011166
0.00108048
0.000259802
4.40175e-05
-0.00113999
-0.00100457
-0.00129298
-0.000743999
1.91243e-06
9.00033e-05
0.000919928
0.000895959
0.000909304
0.00108837
2.24754e-05
-0.00140335
0.00204704
0.00459773
0.00350729
0.00403156
0.00309159
0.00173321
0.00176152
-0.000511819
0.000394315
-0.00157272
-0.000624632
-0.00175916
-0.00119317
-0.00136397
-0.00124397
-0.000708327
-0.000828525
-0.000128162
-0.000191567
0.000222844
0.000454486
0.000219189
0.000700236
-0.000257178
6.75814e-05
-0.00106968
-0.00105563
-0.0013774
-0.00148083
-0.000705069
-0.00098058
0.000236715
-0.000184014
0.000661988
0.000545249
0.000562003
0.000660924
-7.56636e-05
-0.00017264
-0.000858685
-0.000954458
-0.000869287
-0.000792433
-0.000118011
-0.000126573
0.000499986
0.000477321
0.000546579
0.000632167
0.000106374
-6.70841e-05
-0.000577458
-0.00080123
-0.000695893
-0.000652264
-9.51096e-05
1.9116e-06
0.000436627
0.000595607
0.000460762
0.000685411
-8.38685e-06
-8.02138e-05
-0.000676798
-0.000814119
-0.000702719
-0.000665371
-4.22328e-05
-2.87678e-05
0.000493242
0.000562068
0.000525761
0.000723772
9.81007e-05
8.93972e-05
-0.000505613
-0.000598074
-0.000605507
-0.000484031
-0.00011213
0.000102834
0.000333065
0.000653458
0.000358682
0.00074434
-6.84104e-05
-0.000659007
0.00130606
0.00329167
0.00252409
0.00281352
0.00270442
0.00155287
0.0019178
0.000274793
0.000926787
-0.000581709
5.78103e-05
-0.000890183
-0.000492378
-0.000813787
-0.000646443
-0.000554267
-0.000466248
-0.000308355
-6.85599e-05
-0.000174839
0.000323283
-0.000172654
0.000414774
-0.000348668
-4.14687e-05
-0.000613438
-0.000748461
-0.000670406
-0.0010487
-0.000404834
-0.000774978
-3.70096e-05
-0.000258627
0.000145639
0.000196079
0.000107297
0.00026375
-0.000143337
-0.000174976
-0.000419961
-0.000617937
-0.000426323
-0.000571223
-0.000164721
-0.000176626
0.000105391
0.000205015
0.000164939
0.000301499
9.89112e-06
-4.06484e-05
-0.00023531
-0.000430379
-0.000306164
-0.000390794
-0.000134693
-2.53668e-05
7.11999e-05
0.000322182
0.000113212
0.000361596
-4.78011e-05
-4.00231e-05
-0.000275178
-0.000439984
-0.000302762
-0.000393987
-8.82303e-05
-3.11875e-05
0.000130443
0.000323343
0.000171228
0.000410237
1.12071e-05
9.64608e-05
-0.000191837
-0.00025341
-0.000255635
-0.000230873
-0.000134667
8.08759e-05
2.13182e-05
0.000385794
5.37672e-05
0.000405848
-8.8466e-05
-0.000253162
0.000856578
0.0024351
0.00157103
0.00209907
0.00183285
0.00129105
0.00151733
0.000590305
0.000936753
-1.13333e-06
0.000349881
-0.00030331
-5.92209e-05
-0.000404684
-0.000219358
-0.000394136
-0.000164069
-0.000363644
9.22168e-06
-0.000348121
0.000172107
-0.000335535
0.000158763
-0.000335327
-0.000111842
-0.000342835
-0.000471959
-0.000310289
-0.000642039
-0.000234753
-0.000528116
-0.000150936
-0.000273777
-0.000108702
-4.50677e-05
-0.000121413
-8.65416e-06
-0.000179753
-0.000190921
-0.000237694
-0.000383716
-0.000233523
-0.000382678
-0.000165754
-0.000196527
-8.07598e-05
7.45275e-06
-3.90417e-05
7.25685e-05
-5.52242e-05
-5.14611e-05
-0.000111279
-0.000206579
-0.000151045
-0.000207545
-0.000133726
-5.1845e-05
-8.44988e-05
0.000112263
-5.08983e-05
0.000134421
-6.99611e-05
-2.77167e-05
-0.000113039
-0.000198686
-0.000131792
-0.000191112
-9.58047e-05
-2.93283e-05
-3.13397e-05
0.000144674
-2.77573e-06
0.000189337
-3.34579e-05
8.11298e-05
-8.36322e-05
-5.97952e-05
-0.000114708
-7.16014e-05
-0.000122856
4.694e-05
-9.72225e-05
0.000172487
-7.17804e-05
0.00016486
-8.08384e-05
-8.83044e-05
0.000592698
0.0018424
0.000993473
0.00169829
0.00112481
0.00115972
0.00102659
0.000688525
0.000695292
0.000330157
0.000365193
2.67792e-05
0.00011161
-0.000151098
-1.73665e-05
-0.000265153
-4.10254e-05
-0.000339983
-1.64833e-05
-0.00037266
-1.99995e-06
-0.000350015
-4.93686e-05
-0.000287959
-0.000173555
-0.000218652
-0.000308293
-0.00017555
-0.000372882
-0.000170163
-0.000337238
-0.000186582
-0.000243435
-0.000202509
-0.000161294
-0.000203554
-0.000146624
-0.000194419
-0.000200041
-0.000184274
-0.000257975
-0.000175587
-0.000256713
-0.000167015
-0.000190482
-0.000146991
-0.00011
-0.000119525
-6.70292e-05
-9.81923e-05
-7.91195e-05
-9.91851e-05
-0.000116572
-0.000113591
-0.000120178
-0.000130123
-7.64211e-05
-0.000128257
-2.18331e-05
-0.000105486
-9.72492e-06
-8.20689e-05
-4.29525e-05
-7.98092e-05
-8.59362e-05
-8.88067e-05
-8.71055e-05
-9.46365e-05
-3.23551e-05
-8.60931e-05
3.49342e-05
-7.00683e-05
6.39156e-05
-6.24385e-05
4.41135e-05
-6.38279e-05
9.80292e-06
-8.03974e-05
-7.15808e-06
-0.000105895
1.36008e-05
-0.000117981
4.43389e-05
-0.000102522
4.03372e-05
-7.68386e-05
-4.79664e-05
0.000450163
0.00139224
0.000755534
0.00139292
0.000837968
0.00107728
0.000766877
0.000759618
0.000615784
0.000481251
0.00039078
0.000251779
0.000209619
3.00627e-05
7.78522e-05
-0.00013338
-1.25485e-05
-0.000249578
-8.12686e-05
-0.000303943
-0.000137159
-0.000294127
-0.000183543
-0.000241574
-0.00021878
-0.000183414
-0.000238626
-0.000155706
-0.000240863
-0.000167929
-0.000226883
-0.000200563
-0.000205573
-0.000223817
-0.000187927
-0.000221197
-0.000182169
-0.000200173
-0.000187345
-0.000179098
-0.000192165
-0.000170768
-0.000187492
-0.000171688
-0.000167981
-0.000166502
-0.000138934
-0.000148569
-0.000110817
-0.000126307
-9.5374e-05
-0.000114627
-9.02947e-05
-0.000118671
-8.99978e-05
-0.000130422
-8.60211e-05
-0.000132234
-7.44281e-05
-0.000117076
-6.06133e-05
-9.58816e-05
-5.40739e-05
-8.63485e-05
-5.19279e-05
-9.09534e-05
-4.62853e-05
-0.00010028
-3.26036e-05
-9.97756e-05
-1.25441e-05
-9.01306e-05
4.07474e-06
-7.90582e-05
1.37007e-05
-7.3452e-05
1.29023e-05
-7.95991e-05
3.44218e-06
-9.64391e-05
-6.05214e-06
-0.000108487
-7.15732e-06
-0.000101418
-4.14507e-06
-7.98559e-05
-5.21135e-05
0.000340553
0.00105169
0.000615858
0.00111762
0.000736431
0.000956702
0.000732062
0.000763984
0.000648827
0.000564489
0.000530881
0.000369727
0.000369628
0.000191315
0.000220166
1.60829e-05
7.94124e-05
-0.000108824
-4.15397e-05
-0.000182992
-0.000130599
-0.000205069
-0.000180472
-0.0001917
-0.000192256
-0.000171629
-0.000181343
-0.000166623
-0.000166784
-0.00018249
-0.000160082
-0.000207262
-0.000161052
-0.000222842
-0.000162501
-0.000219748
-0.000158959
-0.000203717
-0.00015022
-0.000187837
-0.000140667
-0.000180322
-0.000133969
-0.000178385
-0.00012739
-0.000173078
-0.000116242
-0.000159714
-9.97414e-05
-0.000142807
-8.30922e-05
-0.000131278
-7.23485e-05
-0.000129417
-7.06415e-05
-0.000132129
-7.2921e-05
-0.000129953
-7.05838e-05
-0.000119411
-5.99528e-05
-0.000106511
-4.67325e-05
-9.95698e-05
-3.63387e-05
-0.000101349
-3.06673e-05
-0.000105951
-2.56592e-05
-0.000104781
-1.80077e-05
-9.77831e-05
-8.74961e-06
-8.83211e-05
5.80992e-07
-8.27876e-05
5.40192e-06
-8.44188e-05
7.22603e-07
-9.17605e-05
-1.01969e-05
-9.757e-05
-1.67118e-05
-9.49026e-05
-1.22492e-05
-8.43219e-05
-6.4367e-05
0.000244171
0.000807521
0.000473765
0.000888029
0.000622553
0.000807916
0.000687828
0.000698709
0.000683069
0.000569249
0.000624817
0.000427978
0.00053265
0.000283481
0.000401983
0.000146748
0.000265132
2.80267e-05
0.000136655
-5.45134e-05
3.65875e-05
-0.000105
-2.49003e-05
-0.000130213
-5.27425e-05
-0.00014379
-6.02125e-05
-0.000159154
-6.31098e-05
-0.000179591
-7.07745e-05
-0.000199592
-8.24734e-05
-0.000211142
-9.12997e-05
-0.000210925
-9.22713e-05
-0.000202748
-8.65523e-05
-0.000193555
-7.95405e-05
-0.000187332
-7.51427e-05
-0.000182782
-7.23345e-05
-0.000175885
-6.72907e-05
-0.000164757
-5.81667e-05
-0.000151932
-4.75861e-05
-0.00014186
-4.0407e-05
-0.000136596
-3.88703e-05
-0.000133665
-3.98218e-05
-0.000129
-3.78977e-05
-0.000121335
-3.09517e-05
-0.000113458
-2.14648e-05
-0.000109055
-1.40758e-05
-0.000108737
-1.08365e-05
-0.00010919
-8.92043e-06
-0.000106699
-5.96007e-06
-0.000100747
-6.75917e-07
-9.36079e-05
4.82598e-06
-8.82964e-05
7.22731e-06
-8.6821e-05
4.10955e-06
-8.86379e-05
-3.04756e-06
-9.04139e-05
-8.42986e-06
-8.95247e-05
-6.94736e-06
-8.5808e-05
-7.13159e-05
0.000173065
0.000634456
0.000351647
0.000709451
0.000494163
0.0006654
0.000591987
0.000600886
0.000642459
0.000518776
0.000647166
0.000423269
0.000610757
0.00031989
0.00054045
0.000217056
0.000446924
0.000121555
0.000351646
4.07667e-05
0.000266423
-1.97771e-05
0.000200718
-6.45099e-05
0.000155707
-9.87793e-05
0.000124011
-0.000127456
9.71964e-05
-0.000152772
7.08946e-05
-0.000173289
4.61519e-05
-0.000186402
2.66536e-05
-0.000191428
1.43698e-05
-0.000190461
7.83102e-06
-0.000187014
3.83849e-06
-0.00018334
1.01844e-07
-0.000179046
-3.09025e-06
-0.000172691
-4.04963e-06
-0.000163797
-2.14806e-06
-0.000153836
1.04847e-06
-0.000145057
2.95258e-06
-0.000138499
2.62738e-06
-0.00013334
1.61205e-06
-0.000127985
2.19478e-06
-0.000121917
5.20278e-06
-0.000116466
8.85111e-06
-0.000112702
1.10948e-05
-0.000110979
1.11973e-05
-0.000109292
1.05152e-05
-0.000106019
1.0555e-05
-0.000100793
1.18792e-05
-9.4931e-05
1.36677e-05
-9.00847e-05
1.40117e-05
-8.71695e-05
1.13297e-05
-8.59558e-05
6.40704e-06
-8.54907e-05
1.68991e-06
-8.48113e-05
-4.30762e-07
-8.36918e-05
-7.17466e-05
0.000131344
0.000503114
0.000273631
0.000567166
0.000399456
0.000539575
0.000502124
0.000498217
0.000576583
0.000444317
0.000619701
0.00038015
0.000630792
0.0003088
0.000613593
0.000234255
0.000571205
0.000163943
0.000516752
9.52188e-05
0.000459962
3.70106e-05
0.000406614
-1.1163e-05
0.000359049
-5.12138e-05
0.00031641
-8.48158e-05
0.000276411
-0.000112774
0.000238076
-0.000134959
0.00020254
-0.000150869
0.000171724
-0.00016061
0.000146707
-0.000165441
0.000126691
-0.000166999
0.000109807
-0.00016646
9.49642e-05
-0.000164201
8.23276e-05
-0.000160052
7.26412e-05
-0.000154113
6.59378e-05
-0.000147134
6.10764e-05
-0.000140194
5.66109e-05
-0.000134034
5.18877e-05
-0.000128619
4.74517e-05
-0.000123549
4.41885e-05
-0.000118652
4.19426e-05
-0.000114217
3.9936e-05
-0.000110692
3.67388e-05
-0.000107784
3.26058e-05
-0.000105159
2.85187e-05
-0.000101929
2.53146e-05
-9.75933e-05
2.32786e-05
-9.28968e-05
2.17886e-05
-8.859e-05
1.98163e-05
-8.51975e-05
1.66749e-05
-8.28186e-05
1.24073e-05
-8.12253e-05
7.71629e-06
-8.01208e-05
3.36147e-06
-7.93372e-05
-6.8384e-05
0.000110326
0.000392791
0.000232808
0.000444685
0.000346168
0.000426213
0.000445848
0.00039854
0.000527761
0.000362408
0.000588791
0.000319122
0.000627164
0.000270428
0.000642868
0.000218552
0.000640769
0.000166042
0.000620166
0.000115821
0.000589483
6.76932e-05
0.000553549
2.47724e-05
0.000514799
-1.24622e-05
0.000474573
-4.45894e-05
0.000433571
-7.17726e-05
0.000392612
-9.40016e-05
0.00035303
-0.000111285
0.000316279
-0.000123856
0.000283143
-0.000132304
0.000253564
-0.000137422
0.000227058
-0.000139954
0.000203228
-0.000140368
0.000182111
-0.000138933
0.000163931
-0.000135935
0.000148624
-0.000131827
0.000135612
-0.000127179
0.000124061
-0.000122483
0.000113425
-0.000117983
0.000103589
-0.000113711
9.46266e-05
-0.000109689
8.63231e-05
-0.000105912
7.85399e-05
-0.000102904
7.02126e-05
-9.94584e-05
6.16221e-05
-9.65723e-05
5.31969e-05
-9.35001e-05
4.59475e-05
-9.03427e-05
3.98384e-05
-8.67915e-05
3.44048e-05
-8.31559e-05
2.92071e-05
-7.99968e-05
2.38184e-05
-7.74293e-05
1.80405e-05
-7.54483e-05
1.19101e-05
-7.39905e-05
5.59e-06
-7.30164e-05
-6.27937e-05
9.82269e-05
0.000294566
0.000208679
0.00033423
0.000312992
0.000321899
0.000408059
0.000303475
0.000490985
0.000279483
0.000559375
0.00025073
0.000611582
0.000218218
0.000647004
0.000183128
0.000666311
0.000146733
0.000671267
0.000110863
0.000663255
7.5703e-05
0.000645544
4.24825e-05
0.000621076
1.20055e-05
0.000591057
-1.4572e-05
0.000557249
-3.79663e-05
0.000521132
-5.78847e-05
0.000484136
-7.42878e-05
0.00044756
-8.72794e-05
0.000412366
-9.71113e-05
0.00037909
-0.000104147
0.000347921
-0.000108782
0.000318926
-0.000111372
0.000292213
-0.000112223
0.000267903
-0.000111626
0.00024599
-0.000109911
0.000226214
-0.000107402
0.000208157
-0.000104429
0.000191415
-0.00010124
0.000175699
-9.79897e-05
0.000160791
-9.47828e-05
0.000146547
-9.16695e-05
0.000132478
-8.88301e-05
0.000118854
-8.58322e-05
0.000105368
-8.30914e-05
9.23033e-05
-8.04353e-05
7.96897e-05
-7.7726e-05
6.80242e-05
-7.51267e-05
5.73241e-05
-7.24578e-05
4.71734e-05
-6.98457e-05
3.73731e-05
-6.76273e-05
2.77253e-05
-6.57993e-05
1.80995e-05
-6.43643e-05
8.44166e-06
-6.33588e-05
-5.43533e-05
7.74692e-05
0.000217099
0.000165356
0.000246343
0.000249478
0.00023778
0.000327871
0.000225087
0.000398657
0.000208698
0.000460222
0.000189163
0.000511359
0.00016708
0.000551365
0.000143122
0.000580079
0.00011802
0.000598395
9.25474e-05
0.00060668
6.74185e-05
0.000605846
4.33177e-05
0.000597259
2.05932e-05
0.000583219
-5.29895e-07
0.000563949
-1.86947e-05
0.000541
-3.49331e-05
0.000515502
-4.8787e-05
0.000488481
-6.02578e-05
0.000460804
-6.94337e-05
0.000433133
-7.64731e-05
0.000405934
-8.15783e-05
0.000379531
-8.49684e-05
0.00035417
-8.68631e-05
0.000330026
-8.74816e-05
0.000307162
-8.70417e-05
0.000285559
-8.57985e-05
0.000265088
-8.39616e-05
0.000245576
-8.17271e-05
0.000226844
-7.92532e-05
0.000208721
-7.66602e-05
0.000191087
-7.40394e-05
0.000173715
-7.14549e-05
0.000156811
-6.89258e-05
0.000140199
-6.64809e-05
0.000123896
-6.41338e-05
0.000108035
-6.18635e-05
9.2648e-05
-5.97391e-05
7.78294e-05
-5.764e-05
6.36831e-05
-5.57004e-05
5.00567e-05
-5.40013e-05
3.68176e-05
-5.25602e-05
2.38461e-05
-5.13932e-05
1.10357e-05
-5.05494e-05
-4.33186e-05
5.58696e-05
0.000161229
0.000119671
0.000182538
0.000181303
0.000176147
0.000239501
0.000166889
0.000293051
0.000155144
0.000340964
0.000141245
0.000382491
0.000125551
0.000417127
0.000108485
0.000444634
9.05116e-05
0.000465064
7.2117e-05
0.000478684
5.37986e-05
0.000486001
3.60015e-05
0.000487535
1.90595e-05
0.000483754
3.25185e-06
0.000476048
-1.09869e-05
0.000464783
-2.36661e-05
0.000450686
-3.46892e-05
0.000434433
-4.40055e-05
0.000416635
-5.1635e-05
0.000397812
-5.76484e-05
0.000378391
-6.21536e-05
0.000358705
-6.52831e-05
0.000339024
-6.71833e-05
0.000319553
-6.80108e-05
0.000300443
-6.79281e-05
0.000281745
-6.70999e-05
0.000263476
-6.56957e-05
0.000245617
-6.38684e-05
0.00022812
-6.17538e-05
0.000210915
-5.9455e-05
0.000193971
-5.7099e-05
0.000177238
-5.47217e-05
0.000160712
-5.23972e-05
0.000144384
-5.01526e-05
0.000128272
-4.80221e-05
0.000112428
-4.60197e-05
9.68573e-05
-4.41671e-05
8.16888e-05
-4.24713e-05
6.69348e-05
-4.09473e-05
5.25703e-05
-3.96383e-05
3.85648e-05
-3.85563e-05
2.48802e-05
-3.77101e-05
1.1447e-05
-3.71176e-05
-3.18718e-05
4.25281e-05
0.0001187
9.11497e-05
0.000133915
0.000138207
0.000129093
0.000182824
0.000122274
0.000224219
0.000113746
0.000261784
0.000103679
0.000295037
9.22984e-05
0.000323626
7.98974e-05
0.00034736
6.67798e-05
0.000366171
5.33081e-05
0.000380163
3.9809e-05
0.000389556
2.66109e-05
0.00039462
1.39967e-05
0.000395703
2.1715e-06
0.00039337
-8.65147e-06
0.00038803
-1.83228e-05
0.000380127
-2.67844e-05
0.000370106
-3.39847e-05
0.00035839
-3.99182e-05
0.000345361
-4.4617e-05
0.000331352
-4.81427e-05
0.000316649
-5.05788e-05
0.000301489
-5.20252e-05
0.000286072
-5.25929e-05
0.000270548
-5.24012e-05
0.000255022
-5.15739e-05
0.000239563
-5.02388e-05
0.00022421
-4.85164e-05
0.000208978
-4.65198e-05
0.000193872
-4.43491e-05
0.000178871
-4.20995e-05
0.000163919
-3.977e-05
0.000149054
-3.75304e-05
0.000134297
-3.53947e-05
0.000119662
-3.33872e-05
0.000105174
-3.15316e-05
9.08721e-05
-2.98646e-05
7.68115e-05
-2.84104e-05
6.30193e-05
-2.71555e-05
4.94974e-05
-2.61175e-05
3.62692e-05
-2.53294e-05
2.33502e-05
-2.47925e-05
1.07084e-05
-2.44769e-05
-2.11635e-05
3.27144e-05
8.59823e-05
7.00098e-05
9.66165e-05
0.000106053
9.30501e-05
0.000140235
8.8092e-05
0.00017209
8.1888e-05
0.000201256
7.45119e-05
0.000227391
6.61637e-05
0.000250111
5.7177e-05
0.000269497
4.73939e-05
0.000285334
3.74732e-05
0.000297663
2.74814e-05
0.00030656
1.77149e-05
0.000312175
8.38231e-06
0.000314759
-4.11292e-07
0.000314571
-8.46192e-06
0.000311924
-1.56743e-05
0.000307117
-2.19764e-05
0.000300458
-2.73263e-05
0.000292248
-3.17084e-05
0.000282772
-3.51404e-05
0.000272291
-3.76596e-05
0.000261036
-3.93242e-05
0.000249213
-4.02031e-05
0.000236995
-4.03754e-05
0.000224528
-3.99333e-05
0.000211925
-3.89706e-05
0.000199265
-3.75807e-05
0.000186617
-3.58705e-05
0.000174031
-3.39331e-05
0.000161649
-3.19662e-05
0.000149121
-2.95728e-05
0.000136702
-2.73512e-05
0.000124366
-2.51936e-05
0.000112095
-2.31234e-05
9.99285e-05
-2.12199e-05
8.78898e-05
-1.9493e-05
7.59966e-05
-1.79713e-05
6.42603e-05
-1.66739e-05
5.27159e-05
-1.56112e-05
4.13991e-05
-1.4801e-05
3.03258e-05
-1.42566e-05
1.95173e-05
-1.39846e-05
8.95389e-06
-1.39143e-05
-1.22102e-05
2.46345e-05
6.13463e-05
5.2579e-05
6.86715e-05
7.95502e-05
6.6081e-05
0.000104996
6.26463e-05
0.000128769
5.81129e-05
0.000150696
5.25865e-05
0.000170524
4.63358e-05
0.000188077
3.96235e-05
0.000202962
3.251e-05
0.000215233
2.52044e-05
0.000224821
1.78942e-05
0.000231805
1.07317e-05
0.000236318
3.86859e-06
0.000238461
-2.55347e-06
0.000238408
-8.40818e-06
0.000236448
-1.37134e-05
0.000232767
-1.82947e-05
0.000227589
-2.21491e-05
0.000221158
-2.52784e-05
0.000213697
-2.76793e-05
0.000205405
-2.93675e-05
0.000196482
-3.04015e-05
0.0001871
-3.08229e-05
0.000177404
-3.06808e-05
0.000167527
-3.00554e-05
0.000157585
-2.90294e-05
0.000147638
-2.76358e-05
0.000137748
-2.59819e-05
0.000128087
-2.4272e-05
0.000118249
-2.21268e-05
0.000108718
-2.00419e-05
9.93313e-05
-1.79646e-05
9.00782e-05
-1.59397e-05
8.09963e-05
-1.40404e-05
7.20438e-05
-1.22666e-05
6.32287e-05
-1.06777e-05
5.4559e-05
-9.30175e-06
4.60461e-05
-8.16108e-06
3.77083e-05
-7.27365e-06
2.956e-05
-6.65294e-06
2.16138e-05
-6.31085e-06
1.3884e-05
-6.25525e-06
6.37115e-06
-6.40224e-06
-5.8394e-06
1.76436e-05
4.37013e-05
3.76592e-05
4.8655e-05
5.69915e-05
4.67494e-05
7.54902e-05
4.41459e-05
9.27722e-05
4.08302e-05
0.000108524
3.68355e-05
0.000122566
3.22941e-05
0.000134822
2.7366e-05
0.000145154
2.21783e-05
0.000153487
1.68718e-05
0.000159819
1.15618e-05
0.000164179
6.37077e-06
0.000166643
1.40449e-06
0.000167331
-3.24264e-06
0.000166292
-7.36907e-06
0.000163881
-1.13016e-05
0.000160176
-1.45896e-05
0.00015534
-1.73146e-05
0.00014963
-1.95708e-05
0.000143208
-2.12587e-05
0.000136244
-2.24048e-05
0.000128886
-2.30453e-05
0.000121277
-2.32158e-05
0.000113563
-2.29691e-05
0.00010584
-2.23324e-05
9.81863e-05
-2.13759e-05
9.08558e-05
-2.03063e-05
8.36178e-05
-1.87447e-05
7.65059e-05
-1.71595e-05
6.97995e-05
-1.54192e-05
6.33825e-05
-1.36238e-05
5.72405e-05
-1.18217e-05