/*--------------------------------*- C++ -*----------------------------------*\
  =========                 |
  \\      /  F ield         | OpenFOAM: The Open Source CFD Toolbox
   \\    /   O peration     | Website:  https://openfoam.org
    \\  /    A nd           | Version:  7
     \\/     M anipulation  |
\*---------------------------------------------------------------------------*/
FoamFile
{
    version     2.0;
    format      ascii;
    class       volVectorField;
    location    "1.6";
    object      U;
}
// * * * * * * * * * * * * * * * * * * * * * * * * * * * * * * * * * * * * * //

dimensions      [0 1 -1 0 0 0 0];

internalField   nonuniform List<vector> 
900
(
(4.89767e-05 -4.83899e-05 0)
(-6.01029e-05 4.72371e-05 0)
(-0.000474903 0.000136667 0)
(-0.00104793 0.000184414 0)
(-0.00170474 0.000201847 0)
(-0.00238565 0.000201988 0)
(-0.0030529 0.000193588 0)
(-0.00368584 0.000181207 0)
(-0.00427271 0.000166634 0)
(-0.00480535 0.000150308 0)
(-0.00527682 0.000132183 0)
(-0.00568049 0.000112128 0)
(-0.00600987 9.00583e-05 0)
(-0.00625874 6.59701e-05 0)
(-0.00642122 3.99469e-05 0)
(-0.00649209 1.21578e-05 0)
(-0.00646691 -1.71342e-05 0)
(-0.00634231 -4.75885e-05 0)
(-0.00611626 -7.87587e-05 0)
(-0.00578836 -0.000110112 0)
(-0.00536008 -0.000141025 0)
(-0.00483523 -0.000170747 0)
(-0.00422055 -0.000198241 0)
(-0.00352718 -0.000221785 0)
(-0.00277344 -0.00023814 0)
(-0.00199039 -0.000241314 0)
(-0.00122925 -0.000221509 0)
(-0.000564236 -0.000165528 0)
(-8.28855e-05 -6.26834e-05 0)
(5.03114e-05 4.81057e-05 0)
(-4.61493e-05 5.93313e-05 0)
(-0.00053278 0.000530503 0)
(-0.00161189 0.000921533 0)
(-0.00300225 0.00114908 0)
(-0.004556 0.00124432 0)
(-0.00616201 0.00125235 0)
(-0.00774076 0.00120859 0)
(-0.00924205 0.00113467 0)
(-0.0106339 0.00104145 0)
(-0.0118934 0.000933506 0)
(-0.0130021 0.000812575 0)
(-0.0139435 0.000679363 0)
(-0.0147028 0.000534409 0)
(-0.0152662 0.000378423 0)
(-0.0156214 0.000212419 0)
(-0.0157578 3.77721e-05 0)
(-0.0156669 -0.000143787 0)
(-0.015343 -0.000329948 0)
(-0.0147833 -0.000517979 0)
(-0.0139888 -0.000704611 0)
(-0.0129652 -0.000885908 0)
(-0.0117235 -0.00105692 0)
(-0.010282 -0.00121081 0)
(-0.00866929 -0.00133703 0)
(-0.0069299 -0.00141826 0)
(-0.00513321 -0.00142677 0)
(-0.00338312 -0.00132304 0)
(-0.00181626 -0.00106178 0)
(-0.000603406 -0.000615988 0)
(-5.47132e-05 -8.03589e-05 0)
(-0.000139383 0.000477315 0)
(-0.000950155 0.00161618 0)
(-0.00254392 0.00248435 0)
(-0.00452411 0.00300011 0)
(-0.00669873 0.00322361 0)
(-0.00893114 0.00324322 0)
(-0.0111204 0.00313311 0)
(-0.0131996 0.00294189 0)
(-0.0151244 0.00269639 0)
(-0.0168624 0.0024097 0)
(-0.0183872 0.00208796 0)
(-0.0196763 0.00173441 0)
(-0.0207094 0.0013515 0)
(-0.0214686 0.000941796 0)
(-0.0219379 0.000508414 0)
(-0.0221041 5.52116e-05 0)
(-0.0219569 -0.0004131 0)
(-0.0214896 -0.000890606 0)
(-0.0206997 -0.00137031 0)
(-0.01959 -0.00184384 0)
(-0.018169 -0.00230107 0)
(-0.016453 -0.00272915 0)
(-0.0144679 -0.00311041 0)
(-0.0122534 -0.00341848 0)
(-0.00986901 -0.00361239 0)
(-0.00740494 -0.00363054 0)
(-0.00499164 -0.00339045 0)
(-0.00279626 -0.00280378 0)
(-0.00103855 -0.00182049 0)
(-0.000150671 -0.000542758 0)
(-0.000196148 0.00107633 0)
(-0.00123548 0.00306473 0)
(-0.00320645 0.00449532 0)
(-0.00560677 0.00533356 0)
(-0.00821101 0.00569206 0)
(-0.0108671 0.00571287 0)
(-0.0134631 0.00551383 0)
(-0.0159237 0.00517329 0)
(-0.0181981 0.00473589 0)
(-0.0202485 0.00422467 0)
(-0.0220444 0.00365127 0)
(-0.0235593 0.0030224 0)
(-0.02477 0.00234317 0)
(-0.025656 0.00161867 0)
(-0.0261991 0.000854728 0)
(-0.0263848 5.83027e-05 0)
(-0.0262013 -0.000762205 0)
(-0.0256412 -0.00159663 0)
(-0.0247021 -0.00243284 0)
(-0.0233873 -0.00325635 0)
(-0.0217069 -0.00404955 0)
(-0.01968 -0.00479012 0)
(-0.0173368 -0.0054476 0)
(-0.0147228 -0.00597742 0)
(-0.0119064 -0.00631204 0)
(-0.00898894 -0.00635236 0)
(-0.00611648 -0.00596733 0)
(-0.00347608 -0.00501516 0)
(-0.00132505 -0.00340003 0)
(-0.000205359 -0.00118799 0)
(-0.000227399 0.00179873 0)
(-0.00141998 0.00477006 0)
(-0.00366135 0.00682413 0)
(-0.00636468 0.00800421 0)
(-0.00927645 0.00849596 0)
(-0.0122322 0.0085055 0)
(-0.0151126 0.00819878 0)
(-0.0178381 0.00768564 0)
(-0.0203548 0.00702937 0)
(-0.0226221 0.0062634 0)
(-0.0246073 0.00540538 0)
(-0.0262819 0.00446587 0)
(-0.0276207 0.00345301 0)
(-0.0286015 0.00237471 0)
(-0.0292048 0.00123977 0)
(-0.0294144 5.84986e-05 0)
(-0.0292173 -0.00115681 0)
(-0.0286047 -0.00239141 0)
(-0.027573 -0.00362763 0)
(-0.0261249 -0.0048443 0)
(-0.0242704 -0.00601556 0)
(-0.0220292 -0.00710858 0)
(-0.0194334 -0.00807883 0)
(-0.0165321 -0.00886191 0)
(-0.0133988 -0.00936172 0)
(-0.0101439 -0.00943858 0)
(-0.00692607 -0.00890753 0)
(-0.00395124 -0.00756282 0)
(-0.00151023 -0.00524352 0)
(-0.000233856 -0.00195379 0)
(-0.000245688 0.00260113 0)
(-0.00154784 0.00666263 0)
(-0.00399577 0.00939481 0)
(-0.00693655 0.0109357 0)
(-0.0100919 0.01156 0)
(-0.0132853 0.0115477 0)
(-0.0163911 0.011118 0)
(-0.0193265 0.0104142 0)
(-0.0220358 0.00951912 0)
(-0.0244774 0.00847678 0)
(-0.0266171 0.00731096 0)
(-0.0284254 0.00603617 0)
(-0.0298759 0.00466361 0)
(-0.030945 0.00320401 0)
(-0.0316118 0.00166906 0)
(-0.0318581 7.23018e-05 0)
(-0.031669 -0.0015701 0)
(-0.0310335 -0.00323885 0)
(-0.0299456 -0.00491065 0)
(-0.0284058 -0.00655729 0)
(-0.0264221 -0.00814406 0)
(-0.0240132 -0.00962661 0)
(-0.0212114 -0.0109449 0)
(-0.0180681 -0.0120129 0)
(-0.014662 -0.0127029 0)
(-0.0111123 -0.0128307 0)
(-0.0075927 -0.0121509 0)
(-0.00433007 -0.0103839 0)
(-0.00164811 -0.00728993 0)
(-0.000251018 -0.00280011 0)
(-0.000259815 0.00346195 0)
(-0.00165494 0.00870433 0)
(-0.00428448 0.0121659 0)
(-0.00743931 0.0140883 0)
(-0.0108178 0.0148471 0)
(-0.0142311 0.0148053 0)
(-0.0175465 0.0142401 0)
(-0.0206784 0.0133312 0)
(-0.0235695 0.0121815 0)
(-0.0261775 0.0108461 0)
(-0.0284677 0.00935505 0)
(-0.0304098 0.00772657 0)
(-0.0319765 0.00597476 0)
(-0.033143 0.00411285 0)
(-0.0338865 0.0021551 0)
(-0.0341868 0.000117876 0)
(-0.0340259 -0.00197922 0)
(-0.0333897 -0.00411264 0)
(-0.0322682 -0.0062536 0)
(-0.030658 -0.00836668 0)
(-0.0285635 -0.0104077 0)
(-0.0260007 -0.0123197 0)
(-0.0230009 -0.0140253 0)
(-0.0196172 -0.0154137 0)
(-0.0159338 -0.016322 0)
(-0.0120815 -0.0165158 0)
(-0.00825231 -0.015682 0)
(-0.00469855 -0.0134582 0)
(-0.00177891 -0.00951621 0)
(-0.000266318 -0.00371196 0)
(-0.00027481 0.00437734 0)
(-0.00176479 0.0108872 0)
(-0.00457942 0.0151301 0)
(-0.00795473 0.0174573 0)
(-0.0115654 0.0183552 0)
(-0.0152091 0.0182779 0)
(-0.0187456 0.0175663 0)
(-0.0220856 0.0164388 0)
(-0.0251707 0.0150203 0)
(-0.027958 0.0133772 0)
(-0.0304124 0.0115456 0)
(-0.0325033 0.00954754 0)
(-0.0342027 0.00739953 0)
(-0.0354846 0.00511684 0)
(-0.0363242 0.00271564 0)
(-0.0366985 0.000214435 0)
(-0.036586 -0.00236453 0)
(-0.0359677 -0.00499406 0)
(-0.0348286 -0.00764026 0)
(-0.0331591 -0.0102606 0)
(-0.0309582 -0.0128008 0)
(-0.028237 -0.0151899 0)
(-0.0250244 -0.0173304 0)
(-0.0213746 -0.0190831 0)
(-0.0173787 -0.0202442 0)
(-0.0131819 -0.0205217 0)
(-0.00899963 -0.0195267 0)
(-0.00511525 -0.016805 0)
(-0.0019279 -0.0119335 0)
(-0.000284705 -0.00469339 0)
(-0.000293091 0.00535369 0)
(-0.00189089 0.0132235 0)
(-0.00491254 0.0183038 0)
(-0.00853408 0.021062 0)
(-0.0124043 0.0221052 0)
(-0.0163061 0.0219869 0)
(-0.0200905 0.0211175 0)
(-0.0236645 0.0197578 0)
(-0.0269681 0.0180557 0)
(-0.0299582 0.01609 0)
(-0.0325998 0.0139028 0)
(-0.0348624 0.0115196 0)
(-0.0367175 0.00895892 0)
(-0.038138 0.00623741 0)
(-0.0390971 0.00337221 0)
(-0.0395685 0.000382918 0)
(-0.0395262 -0.0027067 0)
(-0.0389455 -0.00586685 0)
(-0.037804 -0.00905936 0)
(-0.0360841 -0.0122348 0)
(-0.0337763 -0.0153286 0)
(-0.0308846 -0.0182536 0)
(-0.027433 -0.0208893 0)
(-0.0234761 -0.0230625 0)
(-0.0191127 -0.0245208 0)
(-0.0145058 -0.0249056 0)
(-0.00990052 -0.0237415 0)
(-0.00561916 -0.020473 0)
(-0.00211014 -0.0145763 0)
(-0.000308382 -0.00575917 0)
(-0.000315746 0.00640263 0)
(-0.0020408 0.0157373 0)
(-0.005303 0.0217178 0)
(-0.00920871 0.024936 0)
(-0.0133771 0.0261311 0)
(-0.0175745 0.0259655 0)
(-0.0216423 0.0249255 0)
(-0.025483 0.0233178 0)
(-0.0290357 0.0213159 0)
(-0.0322572 0.0190112 0)
(-0.0351134 0.0164523 0)
(-0.0375742 0.013668 0)
(-0.0396113 0.0106781 0)
(-0.0411968 0.00749969 0)
(-0.0423021 0.00414973 0)
(-0.0428974 0.000647442 0)
(-0.0429516 -0.00298347 0)
(-0.0424325 -0.00671228 0)
(-0.0413084 -0.0104979 0)
(-0.0395508 -0.014285 0)
(-0.0371386 -0.017998 0)
(-0.0340644 -0.0215324 0)
(-0.0303443 -0.0247401 0)
(-0.0260308 -0.0274067 0)
(-0.0212308 -0.0292215 0)
(-0.0161291 -0.0297464 0)
(-0.0110083 -0.0284062 0)
(-0.00624045 -0.024533 0)
(-0.00233607 -0.0174953 0)
(-0.000338362 -0.00693008 0)
(-0.000343375 0.00753875 0)
(-0.0022194 0.0184603 0)
(-0.00576369 0.0254119 0)
(-0.00999987 0.0291221 0)
(-0.0145126 0.0304751 0)
(-0.0190491 0.0302534 0)
(-0.0234401 0.0290267 0)
(-0.0275837 0.0271527 0)
(-0.0314183 0.0248319 0)
(-0.0349016 0.02217 0)
(-0.0380009 0.0192223 0)
(-0.0406877 0.0160203 0)
(-0.0429347 0.0125847 0)
(-0.044714 0.00893184 0)
(-0.0459957 0.00507693 0)
(-0.0467466 0.00103692 0)
(-0.0469296 -0.0031668 0)
(-0.046504 -0.00750499 0)
(-0.0454263 -0.011936 0)
(-0.0436535 -0.0164001 0)
(-0.0411481 -0.0208114 0)
(-0.0378863 -0.0250461 0)
(-0.0338706 -0.0289235 0)
(-0.0291474 -0.0321794 0)
(-0.0238307 -0.0344308 0)
(-0.0181311 -0.035143 0)
(-0.0123786 -0.0336232 0)
(-0.00700987 -0.0290762 0)
(-0.0026157 -0.0207559 0)
(-0.000375365 -0.0082315 0)
(-0.000376543 0.00877877 0)
(-0.00243101 0.0214296 0)
(-0.00630578 0.0294334 0)
(-0.0109257 0.0336698 0)
(-0.0158346 0.0351847 0)
(-0.0207579 0.0348942 0)
(-0.0255145 0.0334607 0)
(-0.0299983 0.0312975 0)
(-0.0341477 0.0286357 0)
(-0.0379225 0.0255961 0)
(-0.0412928 0.022241 0)
(-0.044233 0.0186047 0)
(-0.0467183 0.0147079 0)
(-0.048722 0.0105647 0)
(-0.0502138 0.00618691 0)
(-0.0511575 0.00158657 0)
(-0.0515101 -0.00322025 0)
(-0.0512208 -0.00820924 0)
(-0.050232 -0.0133417 0)
(-0.0484819 -0.0185566 0)
(-0.0459105 -0.0237597 0)
(-0.0424698 -0.0288065 0)
(-0.0381406 -0.0334785 0)
(-0.0329558 -0.03745 0)
(-0.0270329 -0.0402476 0)
(-0.0206117 -0.0412166 0)
(-0.0140824 -0.039521 0)
(-0.00796678 -0.0342187 0)
(-0.0029617 -0.0244401 0)
(-0.000420232 -0.00969391 0)
(-0.000416011 0.0101418 0)
(-0.00268071 0.0246882 0)
(-0.00694173 0.0338358 0)
(-0.0120057 0.0386344 0)
(-0.0173681 0.0403119 0)
(-0.0227292 0.0399343 0)
(-0.0278951 0.0382675 0)
(-0.032756 0.0357872 0)
(-0.0372516 0.032758 0)
(-0.0413455 0.0293174 0)
(-0.0450123 0.0255354 0)
(-0.0482313 0.0214488 0)
(-0.0509822 0.0170773 0)
(-0.0532416 0.0124316 0)
(-0.0549802 0.00751743 0)
(-0.0561601 0.00233914 0)
(-0.0567329 -0.00309656 0)
(-0.056637 -0.00877514 0)
(-0.055798 -0.014666 0)
(-0.0541305 -0.0207124 0)
(-0.0515445 -0.026815 0)
(-0.0479573 -0.0328097 0)
(-0.0433151 -0.0384351 0)
(-0.0376252 -0.0432899 0)
(-0.0310002 -0.0467862 0)
(-0.0237105 -0.0481157 0)
(-0.0162212 -0.0462629 0)
(-0.00916821 -0.0401099 0)
(-0.00339245 -0.0286532 0)
(-0.000474119 -0.0113548 0)
(-0.000462899 0.01165 0)
(-0.00297525 0.0282858 0)
(-0.00768754 0.0386807 0)
(-0.0132642 0.0440779 0)
(-0.0191434 0.045913 0)
(-0.0249963 0.045422 0)
(-0.0306155 0.0434876 0)
(-0.0358886 0.0406552 0)
(-0.0407585 0.0372269 0)
(-0.0451945 0.0333588 0)
(-0.0491789 0.0291294 0)
(-0.0526983 0.0245777 0)
(-0.0557395 0.0197217 0)
(-0.0582849 0.0145669 0)
(-0.060309 0.00911072 0)
(-0.0617747 0.00334578 0)
(-0.0626293 -0.00273539 0)
(-0.0628008 -0.00913456 0)
(-0.062196 -0.0158368 0)
(-0.0607014 -0.0227974 0)
(-0.0581877 -0.0299202 0)
(-0.0545236 -0.0370252 0)
(-0.0496025 -0.0438044 0)
(-0.0433853 -0.0497658 0)
(-0.0359632 -0.0541752 0)
(-0.027632 -0.0560231 0)
(-0.0189487 -0.0540603 0)
(-0.0107026 -0.0469485 0)
(-0.00393669 -0.0335356 0)
(-0.000538761 -0.0132622 0)
(-0.000518875 0.0133297 0)
(-0.00332417 0.0322811 0)
(-0.00856497 0.044039 0)
(-0.0147336 0.05007 0)
(-0.0211995 0.0520489 0)
(-0.027601 0.051407 0)
(-0.0337168 0.0491597 0)
(-0.0394335 0.0459311 0)
(-0.0446999 0.0420655 0)
(-0.0494948 0.0377397 0)
(-0.0538106 0.0330414 0)
(-0.0576451 0.028012 0)
(-0.0609957 0.022667 0)
(-0.0638542 0.0170051 0)
(-0.0662028 0.0110125 0)
(-0.0680081 0.00466602 0)
(-0.0692172 -0.00206173 0)
(-0.0697494 -0.00919712 0)
(-0.0694925 -0.016751 0)
(-0.068301 -0.0247036 0)
(-0.0659968 -0.0329743 0)
(-0.0623829 -0.0413776 0)
(-0.0572737 -0.0495609 0)
(-0.050552 -0.056926 0)
(-0.0422549 -0.0625529 0)
(-0.0326862 -0.0651641 0)
(-0.0225072 -0.063193 0)
(-0.0127143 -0.0550085 0)
(-0.00464257 -0.0392836 0)
(-0.000617213 -0.015481 0)
(-0.00058645 0.0152135 0)
(-0.00374114 0.0367456 0)
(-0.00960441 0.049995 0)
(-0.0164577 0.0566898 0)
(-0.0235883 0.0587855 0)
(-0.0305973 0.0579394 0)
(-0.0372502 0.0553194 0)
(-0.0434358 0.051639 0)
(-0.0491127 0.0472895 0)
(-0.0542729 0.0424711 0)
(-0.0589236 0.0372815 0)
(-0.0630776 0.0317647 0)
(-0.0667473 0.0259331 0)
(-0.0699389 0.0197773 0)
(-0.072647 0.0132693 0)
(-0.0748476 0.00636612 0)
(-0.0764931 -0.000986701 0)
(-0.077499 -0.0088471 0)
(-0.0777369 -0.0172678 0)
(-0.077029 -0.0262708 0)
(-0.0751402 -0.0358121 0)
(-0.0717883 -0.045721 0)
(-0.0666755 -0.0556122 0)
(-0.059557 -0.0647728 0)
(-0.0503598 -0.0720518 0)
(-0.0393497 -0.0758118 0)
(-0.0272892 -0.0740387 0)
(-0.0154482 -0.0646826 0)
(-0.00559559 -0.0461864 0)
(-0.000715994 -0.0181055 0)
(-0.000669491 0.017343 0)
(-0.00424619 0.0417681 0)
(-0.010849 0.0566496 0)
(-0.0184972 0.0640285 0)
(-0.0263792 0.0661937 0)
(-0.0340556 0.0650684 0)
(-0.0412809 0.0619969 0)
(-0.0479508 0.0577939 0)
(-0.0540394 0.0529036 0)
(-0.0595572 0.0475516 0)
(-0.0645308 0.041847 0)
(-0.0689935 0.0358366 0)
(-0.0729778 0.0295295 0)
(-0.0765097 0.0229067 0)
(-0.0796029 0.0159245 0)
(-0.0822509 0.00851619 0)
(-0.0844171 0.000594512 0)
(-0.0860243 -0.00794141 0)
(-0.0869387 -0.0172012 0)
(-0.0869528 -0.0272725 0)
(-0.0857727 -0.038179 0)
(-0.0830142 -0.0498009 0)
(-0.0782267 -0.0617517 0)
(-0.0709696 -0.0732132 0)
(-0.0609654 -0.0827618 0)
(-0.0483466 -0.0882811 0)
(-0.0339303 -0.0871087 0)
(-0.0193255 -0.0765504 0)
(-0.00695314 -0.0546929 0)
(-0.000850456 -0.0212846 0)
(-0.000774167 0.0197728 0)
(-0.00486937 0.0474626 0)
(-0.0123609 0.0641271 0)
(-0.0209363 0.0721912 0)
(-0.0296657 0.0743489 0)
(-0.0380675 0.0728396 0)
(-0.0458904 0.0692125 0)
(-0.053045 0.0643973 0)
(-0.0595281 0.0588963 0)
(-0.0653752 0.0529628 0)
(-0.0706386 0.0467177 0)
(-0.0753773 0.0402111 0)
(-0.0796497 0.0334486 0)
(-0.0835081 0.0264018 0)
(-0.0869927 0.0190104 0)
(-0.0901232 0.0111821 0)
(-0.0928874 0.00279249 0)
(-0.0952294 -0.00631476 0)
(-0.0970251 -0.0163199 0)
(-0.0980548 -0.0274051 0)
(-0.0979751 -0.0397045 0)
(-0.0962924 -0.0532072 0)
(-0.0923648 -0.0675899 0)
(-0.0854683 -0.0819754 0)
(-0.0749785 -0.0946533 0)
(-0.0607179 -0.102891 0)
(-0.0434201 -0.10308 0)
(-0.0250543 -0.0914787 0)
(-0.00900452 -0.0655244 0)
(-0.0010568 -0.0252723 0)
(-0.000910742 0.0225787 0)
(-0.00565682 0.0539792 0)
(-0.0142309 0.0725824 0)
(-0.0238929 0.0813 0)
(-0.0335728 0.083329 0)
(-0.0427499 0.0812901 0)
(-0.0511776 0.076971 0)
(-0.0587932 0.0714305 0)
(-0.0656263 0.0652334 0)
(-0.0717454 0.0586615 0)
(-0.0772349 0.0518477 0)
(-0.0821853 0.0448452 0)
(-0.0866865 0.0376567 0)
(-0.0908235 0.0302451 0)
(-0.0946709 0.0225348 0)
(-0.0982852 0.0144086 0)
(-0.101694 0.00570285 0)
(-0.104882 -0.00379839 0)
(-0.10776 -0.0143614 0)
(-0.110127 -0.0262921 0)
(-0.111621 -0.0398885 0)
(-0.111653 -0.0553318 0)
(-0.10937 -0.0724733 0)
(-0.103672 -0.0904912 0)
(-0.0933972 -0.107442 0)
(-0.0777742 -0.119861 0)
(-0.0571542 -0.122787 0)
(-0.0337456 -0.110737 0)
(-0.0122612 -0.07985 0)
(-0.00141631 -0.0305214 0)
(-0.00109715 0.0258687 0)
(-0.00668128 0.0615206 0)
(-0.0165927 0.0822101 0)
(-0.0275307 0.0914933 0)
(-0.0382639 0.0932079 0)
(-0.048245 0.0904388 0)
(-0.0572518 0.0852507 0)
(-0.0652654 0.0788437 0)
(-0.0723613 0.0718469 0)
(-0.0786504 0.0645692 0)
(-0.0842562 0.0571541 0)
(-0.089306 0.0496573 0)
(-0.0939265 0.0420793 0)
(-0.0982403 0.0343763 0)
(-0.102363 0.0264604 0)
(-0.106398 0.018194 0)
(-0.110429 0.00937897 0)
(-0.114501 -0.000257539 0)
(-0.118596 -0.0110754 0)
(-0.122577 -0.0235271 0)
(-0.12612 -0.0381313 0)
(-0.128596 -0.0553686 0)
(-0.12896 -0.0754327 0)
(-0.125675 -0.0977719 0)
(-0.116842 -0.120394 0)
(-0.100708 -0.13909 0)
(-0.0767277 -0.147079 0)
(-0.0469221 -0.136053 0)
(-0.0175641 -0.0995027 0)
(-0.00210078 -0.0378417 0)
(-0.00136627 0.0298047 0)
(-0.00806043 0.0703658 0)
(-0.019644 0.0932539 0)
(-0.0320722 0.102921 0)
(-0.0439402 0.10404 0)
(-0.0547049 0.100268 0)
(-0.0642018 0.0939831 0)
(-0.0724808 0.0865354 0)
(-0.0796799 0.0786145 0)
(-0.0859632 0.0705513 0)
(-0.0915003 0.0624961 0)
(-0.0964601 0.0545053 0)
(-0.101009 0.0465773 0)
(-0.105311 0.0386641 0)
(-0.109525 0.030671 0)
(-0.113807 0.0224485 0)
(-0.118307 0.0137762 0)
(-0.123152 0.004337 0)
(-0.128424 -0.00631551 0)
(-0.134109 -0.0187877 0)
(-0.14 -0.0338584 0)
(-0.145532 -0.0524278 0)
(-0.149558 -0.0752496 0)
(-0.150143 -0.102373 0)
(-0.144518 -0.13214 0)
(-0.12957 -0.159811 0)
(-0.103145 -0.17643 0)
(-0.0661768 -0.169406 0)
(-0.026157 -0.127131 0)
(-0.00345446 -0.0486392 0)
(-0.0017812 0.0346408 0)
(-0.0099891 0.0809032 0)
(-0.0236742 0.106009 0)
(-0.0378042 0.115719 0)
(-0.050815 0.115827 0)
(-0.0622329 0.110681 0)
(-0.0720046 0.103011 0)
(-0.0802843 0.0943114 0)
(-0.0872935 0.0853194 0)
(-0.093262 0.0763776 0)
(-0.0984131 0.0676359 0)
(-0.102962 0.0591472 0)
(-0.107115 0.0509062 0)
(-0.111075 0.0428627 0)
(-0.115045 0.0349212 0)
(-0.119228 0.0269319 0)
(-0.123838 0.0186702 0)
(-0.129091 0.00980069 0)
(-0.135188 -0.000183145 0)
(-0.142271 -0.0120361 0)
(-0.150343 -0.0267843 0)
(-0.159041 -0.0458479 0)
(-0.167311 -0.0707676 0)
(-0.173013 -0.102611 0)
(-0.172624 -0.140648 0)
(-0.161496 -0.180193 0)
(-0.135186 -0.210167 0)
(-0.0921519 -0.212275 0)
(-0.0395903 -0.166024 0)
(-0.00612733 -0.0652306 0)
(-0.00246768 0.0407927 0)
(-0.0127959 0.093671 0)
(-0.0290944 0.1208 0)
(-0.0450488 0.129953 0)
(-0.0590153 0.128432 0)
(-0.0707134 0.121419 0)
(-0.0802859 0.112003 0)
(-0.0880402 0.101799 0)
(-0.0943096 0.0915665 0)
(-0.0994066 0.0816425 0)
(-0.103618 0.0721636 0)
(-0.107209 0.0631708 0)
(-0.110425 0.0546503 0)
(-0.113503 0.0465478 0)
(-0.116675 0.0387706 0)
(-0.120176 0.0311784 0)
(-0.124263 0.0235621 0)
(-0.129218 0.0155997 0)
(-0.135358 0.0067776 0)
(-0.142952 -0.0037362 0)
(-0.152257 -0.0172757 0)
(-0.163273 -0.0356908 0)
(-0.175289 -0.0614787 0)
(-0.186396 -0.0971218 0)
(-0.192824 -0.143534 0)
(-0.188757 -0.197085 0)
(-0.167206 -0.245431 0)
(-0.122657 -0.264048 0)
(-0.0591068 -0.21918 0)
(-0.0111984 -0.0911425 0)
(-0.00368277 0.0489703 0)
(-0.0170415 0.109389 0)
(-0.036446 0.137893 0)
(-0.0540325 0.145452 0)
(-0.0682988 0.141403 0)
(-0.0793821 0.13187 0)
(-0.0877538 0.120268 0)
(-0.0939457 0.108271 0)
(-0.0984451 0.0966219 0)
(-0.101673 0.0856203 0)
(-0.103993 0.0753704 0)
(-0.105723 0.0658857 0)
(-0.107144 0.0571316 0)
(-0.10851 0.0490418 0)
(-0.110062 0.0415219 0)
(-0.112038 0.0344434 0)
(-0.114692 0.0276233 0)
(-0.118312 0.0207782 0)
(-0.123244 0.0134349 0)
(-0.129921 0.00476903 0)
(-0.138729 -0.00669147 0)
(-0.150009 -0.0232262 0)
(-0.163755 -0.0481701 0)
(-0.178853 -0.0855851 0)
(-0.192255 -0.138635 0)
(-0.19811 -0.206044 0)
(-0.187586 -0.276148 0)
(-0.150382 -0.319759 0)
(-0.0838614 -0.286984 0)
(-0.0199396 -0.13095 0)
(-0.00595762 0.0604402 0)
(-0.0236787 0.128933 0)
(-0.0463055 0.157214 0)
(-0.0644638 0.161441 0)
(-0.0773172 0.153575 0)
(-0.0858159 0.140694 0)
(-0.0909682 0.126404 0)
(-0.0936393 0.112338 0)
(-0.0945312 0.0991479 0)
(-0.0942041 0.0870509 0)
(-0.0931077 0.0760826 0)
(-0.0916059 0.0662013 0)
(-0.0899959 0.0573294 0)
(-0.0885246 0.0493701 0)
(-0.0874049 0.0422135 0)
(-0.0868327 0.0357323 0)
(-0.0870057 0.0297656 0)
(-0.0881478 0.024075 0)
(-0.0905424 0.018255 0)
(-0.0945739 0.0115581 0)
(-0.100743 0.00262482 0)
(-0.109658 -0.011039 0)
(-0.121971 -0.0332746 0)
(-0.137921 -0.0693827 0)
(-0.156335 -0.124893 0)
(-0.173154 -0.202085 0)
(-0.179707 -0.292953 0)
(-0.161717 -0.368198 0)
(-0.107823 -0.363352 0)
(-0.0324846 -0.188737 0)
(-0.0103771 0.0776031 0)
(-0.0342684 0.15309 0)
(-0.0587739 0.177673 0)
(-0.0742675 0.175748 0)
(-0.0817628 0.162322 0)
(-0.0836833 0.14516 0)
(-0.0818806 0.127769 0)
(-0.0776846 0.111546 0)
(-0.0720579 0.0969316 0)
(-0.0656931 0.0839757 0)
(-0.0590893 0.0725853 0)
(-0.0526057 0.0626202 0)
(-0.0464995 0.053928 0)
(-0.0409541 0.0463577 0)
(-0.0361025 0.039764 0)
(-0.0320463 0.0340031 0)
(-0.0288739 0.0289182 0)
(-0.0266824 0.0243028 0)
(-0.0256101 0.0198232 0)
(-0.0258928 0.0148656 0)
(-0.0279523 0.00826037 0)
(-0.0324961 -0.00218635 0)
(-0.0406405 -0.0202964 0)
(-0.0539078 -0.0516993 0)
(-0.0736749 -0.103529 0)
(-0.099543 -0.181943 0)
(-0.126265 -0.285663 0)
(-0.138524 -0.392632 0)
(-0.117642 -0.432338 0)
(-0.0451597 -0.265009 0)
(-0.0189792 0.104866 0)
(-0.050827 0.181282 0)
(-0.0711203 0.195572 0)
(-0.0756347 0.183323 0)
(-0.06965 0.162377 0)
(-0.0579107 0.140374 0)
(-0.0433181 0.120069 0)
(-0.0276118 0.102268 0)
(-0.0118693 0.0869836 0)
(0.00326334 0.0739714 0)
(0.0174119 0.062935 0)
(0.0303742 0.0535919 0)
(0.0420589 0.0456904 0)
(0.0524463 0.0390119 0)
(0.0615602 0.0333664 0)
(0.069449 0.0285845 0)
(0.0761699 0.024502 0)
(0.0817732 0.0209282 0)
(0.0862771 0.0175845 0)
(0.089618 0.0139876 0)
(0.0915402 0.00924013 0)
(0.0913401 0.00167294 0)
(0.0877925 -0.0117558 0)
(0.0786836 -0.0359272 0)
(0.0605962 -0.0779235 0)
(0.029853 -0.146438 0)
(-0.015014 -0.248123 0)
(-0.0627328 -0.375484 0)
(-0.0954043 -0.469284 0)
(-0.048575 -0.352371 0)
(-0.0337245 0.14769 0)
(-0.0707964 0.205497 0)
(-0.0662099 0.199019 0)
(-0.042061 0.172274 0)
(-0.00944905 0.143552 0)
(0.0250379 0.118228 0)
(0.058334 0.09718 0)
(0.0891641 0.0800236 0)
(0.117009 0.0661093 0)
(0.141782 0.0548198 0)
(0.163606 0.0456407 0)
(0.182697 0.0381596 0)
(0.199313 0.0320489 0)
(0.21372 0.0270483 0)
(0.226173 0.0229483 0)
(0.236913 0.0195749 0)
(0.24615 0.0167721 0)
(0.254063 0.0143755 0)
(0.260776 0.0121671 0)
(0.266316 0.0097918 0)
(0.27052 0.00661521 0)
(0.272731 0.00150303 0)
(0.271752 -0.00741394 0)
(0.265125 -0.0234738 0)
(0.248508 -0.0518902 0)
(0.215703 -0.100759 0)
(0.158854 -0.181513 0)
(0.0802073 -0.30577 0)
(-0.0234228 -0.447147 0)
(-0.0270582 -0.424245 0)
(-0.0369044 0.237528 0)
(-0.0441354 0.207349 0)
(0.0339929 0.156899 0)
(0.106846 0.119688 0)
(0.17367 0.0911835 0)
(0.231884 0.069725 0)
(0.281226 0.0538963 0)
(0.32264 0.0421679 0)
(0.357299 0.0333528 0)
(0.386301 0.0266405 0)
(0.410594 0.0214788 0)
(0.430982 0.0174781 0)
(0.448135 0.014357 0)
(0.462613 0.0119085 0)
(0.474879 0.00997784 0)
(0.485315 0.00844461 0)
(0.49423 0.00720689 0)
(0.501858 0.00616328 0)
(0.508346 0.00518717 0)
(0.513707 0.00408475 0)
(0.517736 0.00253136 0)
(0.519837 -4.5338e-05 0)
(0.518842 -0.00450917 0)
(0.51232 -0.0125333 0)
(0.495697 -0.026682 0)
(0.462787 -0.0516585 0)
(0.401077 -0.0961152 0)
(0.305831 -0.184776 0)
(0.127641 -0.336192 0)
(0.0554819 -0.413994 0)
(0.231403 0.158531 0)
(0.292776 0.118027 0)
(0.444447 0.0769149 0)
(0.545032 0.0514358 0)
(0.612962 0.0347346 0)
(0.662229 0.0235231 0)
(0.698987 0.0161 0)
(0.726741 0.0112033 0)
(0.747985 0.00793699 0)
(0.764501 0.0057257 0)
(0.777522 0.00420945 0)
(0.787921 0.00315855 0)
(0.796327 0.00242319 0)
(0.803206 0.00190426 0)
(0.808907 0.00153511 0)
(0.81369 0.00126926 0)
(0.817747 0.00107142 0)
(0.821208 0.000909547 0)
(0.824131 0.000746364 0)
(0.826483 0.000528994 0)
(0.828075 0.000180614 0)
(0.828474 -0.000425914 0)
(0.826709 -0.00149395 0)
(0.821195 -0.00347636 0)
(0.808509 -0.00694918 0)
(0.785167 -0.0132306 0)
(0.736937 -0.0244172 0)
(0.66231 -0.0489465 0)
(0.458743 -0.111736 0)
(0.31446 -0.17951 0)
)
;

boundaryField
{
    movingWall
    {
        type            fixedValue;
        value           uniform (1 0 0);
    }
    fixedWalls
    {
        type            noSlip;
    }
    frontAndBack
    {
        type            empty;
    }
}


// ************************************************************************* //
