/*--------------------------------*- C++ -*----------------------------------*\
  =========                 |
  \\      /  F ield         | OpenFOAM: The Open Source CFD Toolbox
   \\    /   O peration     | Website:  https://openfoam.org
    \\  /    A nd           | Version:  7
     \\/     M anipulation  |
\*---------------------------------------------------------------------------*/
FoamFile
{
    version     2.0;
    format      ascii;
    class       surfaceScalarField;
    location    "1.2";
    object      phi;
}
// * * * * * * * * * * * * * * * * * * * * * * * * * * * * * * * * * * * * * //

dimensions      [0 3 -1 0 0 0 0];

internalField   nonuniform List<scalar> 
1740
(
-1.80909e-07
1.80946e-07
-2.11273e-06
1.93182e-06
-5.35508e-06
3.24235e-06
-9.22973e-06
3.87465e-06
-1.32828e-05
4.05308e-06
-1.72637e-05
3.98086e-06
-2.10447e-05
3.78107e-06
-2.45573e-05
3.51256e-06
-2.77551e-05
3.19782e-06
-3.05991e-05
2.84394e-06
-3.30525e-05
2.45345e-06
-3.50809e-05
2.02841e-06
-3.66521e-05
1.57122e-06
-3.77371e-05
1.08497e-06
-3.83107e-05
5.73571e-07
-3.83525e-05
4.18087e-08
-3.78474e-05
-5.05131e-07
-3.6787e-05
-1.06031e-06
-3.51707e-05
-1.6163e-06
-3.30059e-05
-2.1648e-06
-3.03093e-05
-2.69662e-06
-2.71079e-05
-3.20138e-06
-2.34413e-05
-3.66668e-06
-1.93679e-05
-4.07336e-06
-1.49837e-05
-4.38422e-06
-1.04603e-05
-4.52336e-06
-6.10914e-06
-4.35118e-06
-2.45571e-06
-3.65343e-06
-2.53185e-07
-2.20253e-06
-2.53189e-07
-1.93513e-06
2.11607e-06
-7.32546e-06
7.32214e-06
-1.50022e-05
1.09191e-05
-2.38662e-05
1.27386e-05
-3.3107e-05
1.32939e-05
-4.22158e-05
1.30897e-05
-5.0894e-05
1.24592e-05
-5.89596e-05
1.15782e-05
-6.6287e-05
1.05252e-05
-7.27758e-05
9.33275e-06
-7.83389e-05
8.01659e-06
-8.28986e-05
6.58807e-06
-8.63855e-05
5.05817e-06
-8.87396e-05
3.43905e-06
-8.99107e-05
1.74466e-06
-8.98615e-05
-7.37637e-09
-8.85647e-05
-1.80198e-06
-8.60106e-05
-3.61437e-06
-8.22053e-05
-5.42164e-06
-7.71733e-05
-7.19677e-06
-7.09603e-05
-8.90959e-06
-6.36366e-05
-1.05252e-05
-5.53035e-05
-1.19997e-05
-4.61102e-05
-1.32667e-05
-3.62876e-05
-1.42068e-05
-2.6212e-05
-1.45989e-05
-1.6496e-05
-1.40672e-05
-8.0695e-06
-1.208e-05
-2.1484e-06
-8.12363e-06
-2.40159e-06
-3.33114e-06
5.44721e-06
-1.12017e-05
1.51927e-05
-2.18655e-05
2.15829e-05
-3.39295e-05
2.48026e-05
-4.64091e-05
2.57734e-05
-5.86784e-05
2.5359e-05
-7.03557e-05
2.41365e-05
-8.11976e-05
2.24201e-05
-9.10313e-05
2.03589e-05
-9.97194e-05
1.80209e-05
-0.000107145
1.54419e-05
-0.000113205
1.26479e-05
-0.00011781
9.66313e-06
-0.000120884
6.51302e-06
-0.000122365
3.22593e-06
-0.000122206
-1.65944e-07
-0.00012038
-3.62807e-06
-0.000116876
-7.11828e-06
-0.000111707
-1.0591e-05
-0.000104909
-1.39947e-05
-9.65469e-05
-1.72716e-05
-8.67181e-05
-2.0354e-05
-7.55615e-05
-2.31563e-05
-6.32778e-05
-2.55504e-05
-5.01683e-05
-2.73163e-05
-3.67059e-05
-2.80613e-05
-2.36375e-05
-2.71356e-05
-1.20872e-05
-2.36303e-05
-3.58578e-06
-1.6625e-05
-5.98737e-06
-4.15009e-06
9.59731e-06
-1.36402e-05
2.46828e-05
-2.6249e-05
3.41917e-05
-4.03448e-05
3.88984e-05
-5.48308e-05
4.02595e-05
-6.9025e-05
3.95532e-05
-8.25103e-05
3.76218e-05
-9.50161e-05
3.4926e-05
-0.000106347
3.16897e-05
-0.000116346
2.80199e-05
-0.00012488
2.39759e-05
-0.000131833
1.96008e-05
-0.000137104
1.49347e-05
-0.00014061
1.00186e-05
-0.000142281
4.89704e-06
-0.000142067
-3.80335e-07
-0.000139935
-5.75959e-06
-0.000135876
-1.11771e-05
-0.000129905
-1.65628e-05
-0.000122061
-2.18379e-05
-0.00011242
-2.69126e-05
-0.000101092
-3.16824e-05
-8.82345e-05
-3.60138e-05
-7.40739e-05
-3.9711e-05
-5.89454e-05
-4.24449e-05
-4.33677e-05
-4.3639e-05
-2.81595e-05
-4.23438e-05
-1.45758e-05
-3.7214e-05
-4.40561e-06
-2.67952e-05
-1.0393e-05
-4.61618e-06
1.42135e-05
-1.51592e-05
3.52258e-05
-2.90771e-05
4.81096e-05
-4.45439e-05
5.43652e-05
-6.03719e-05
5.60875e-05
-7.58403e-05
5.50217e-05
-9.05139e-05
5.22953e-05
-0.00010411
4.85219e-05
-0.000116422
4.40022e-05
-0.000127285
3.88829e-05
-0.000136557
3.32478e-05
-0.000144115
2.71586e-05
-0.000149852
2.06718e-05
-0.000153678
1.38447e-05
-0.00015552
6.73843e-06
-0.000155321
-5.79303e-07
-0.000153044
-8.03604e-06
-0.000148676
-1.55451e-05
-0.000142227
-2.30116e-05
-0.000133738
-3.03275e-05
-0.000123281
-3.73693e-05
-0.000110972
-4.39919e-05
-9.69754e-05
-5.001e-05
-8.1532e-05
-5.51544e-05
-6.49973e-05
-5.89796e-05
-4.79242e-05
-6.07121e-05
-3.11923e-05
-5.90758e-05
-1.61745e-05
-5.22318e-05
-4.87995e-06
-3.80897e-05
-1.52729e-05
-4.93108e-06
1.91446e-05
-1.62616e-05
4.65563e-05
-3.12027e-05
6.30508e-05
-4.77645e-05
7.0927e-05
-6.46736e-05
7.29965e-05
-8.11704e-05
7.15184e-05
-9.68028e-05
6.79277e-05
-0.00011128
6.29992e-05
-0.000124391
5.71127e-05
-0.000135964
5.0456e-05
-0.000145853
4.31376e-05
-0.000153933
3.52379e-05
-0.000160091
2.68297e-05
-0.000164232
1.79859e-05
-0.000166277
8.7836e-06
-0.000166164
-6.92329e-07
-0.000163847
-1.03528e-05
-0.000159304
-2.0088e-05
-0.000152537
-2.97786e-05
-0.000143578
-3.92869e-05
-0.000132493
-4.84538e-05
-0.000119395
-5.70902e-05
-0.000104451
-6.49542e-05
-8.79095e-05
-7.16957e-05
-7.01477e-05
-7.67414e-05
-5.17577e-05
-7.91021e-05
-3.3691e-05
-7.71424e-05
-1.74458e-05
-6.8477e-05
-5.23235e-06
-5.03031e-05
-2.05053e-05
-5.2207e-06
2.43653e-05
-1.72865e-05
5.86221e-05
-3.32058e-05
7.89701e-05
-5.08351e-05
8.85562e-05
-6.88113e-05
9.09728e-05
-8.63304e-05
8.90375e-05
-0.00010292
8.45171e-05
-0.00011828
7.83591e-05
-0.000132194
7.1027e-05
-0.000144489
6.27512e-05
-0.000155017
5.36653e-05
-0.000163647
4.38681e-05
-0.000170265
3.34479e-05
-0.000174771
2.24921e-05
-0.00017708
1.10918e-05
-0.000177119
-6.52715e-07
-0.000174833
-1.26396e-05
-0.000170184
-2.47361e-05
-0.000163163
-3.68003e-05
-0.000153785
-4.8665e-05
-0.000142105
-6.01337e-05
-0.000128225
-7.09696e-05
-0.000112312
-8.08674e-05
-9.46226e-05
-8.93851e-05
-7.5559e-05
-9.5805e-05
-5.5765e-05
-9.88961e-05
-3.62823e-05
-9.66251e-05
-1.87532e-05
-8.60061e-05
-5.59527e-06
-6.34611e-05
-2.61006e-05
-5.55019e-06
2.99154e-05
-1.84246e-05
7.14965e-05
-3.54195e-05
9.5965e-05
-5.42304e-05
0.000107367
-7.33951e-05
0.000110138
-9.20569e-05
0.000107699
-0.000109718
0.000102178
-0.000126068
9.4709e-05
-0.000140886
8.58449e-05
-0.000153996
7.58614e-05
-0.000165249
6.49184e-05
-0.000174514
5.31327e-05
-0.000181673
4.0607e-05
-0.000186622
2.74407e-05
-0.000189266
1.37361e-05
-0.000189526
-3.92467e-07
-0.000187327
-1.4839e-05
-0.000182617
-2.94463e-05
-0.000175363
-4.40539e-05
-0.000165562
-5.84662e-05
-0.000153247
-7.24481e-05
-0.000138506
-8.57107e-05
-0.000121498
-9.78759e-05
-0.000102488
-0.000108395
-8.19094e-05
-0.000116383
-6.04721e-05
-0.000120333
-3.93307e-05
-0.000117767
-2.03006e-05
-0.000105036
-6.03567e-06
-7.77259e-05
-3.21362e-05
-5.94968e-06
3.58651e-05
-1.97737e-05
8.53206e-05
-3.80218e-05
0.000114213
-5.8206e-05
0.000127551
-7.87511e-05
0.000130683
-9.87388e-05
0.000127687
-0.000117642
0.000121082
-0.000135138
0.000112205
-0.000151
0.000101708
-0.000165054
8.99147e-05
-0.000177149
7.70137e-05
-0.000187156
6.31392e-05
-0.000194955
4.84063e-05
-0.000200438
3.29236e-05
-0.000203501
1.67995e-05
-0.00020406
1.65955e-07
-0.000202008
-1.68906e-05
-0.000197279
-3.4175e-05
-0.000189812
-5.15213e-05
-0.000179572
-6.87067e-05
-0.000166563
-8.54571e-05
-0.000150847
-0.000101426
-0.00013257
-0.000116153
-0.000112004
-0.000128962
-8.96183e-05
-0.000138769
-6.62038e-05
-0.000143748
-4.30561e-05
-0.000140914
-2.22038e-05
-0.000125889
-6.58658e-06
-9.33432e-05
-3.87228e-05
-6.43447e-06
4.22996e-05
-2.1389e-05
0.000100275
-4.11157e-05
0.00013394
-6.2911e-05
0.000149347
-8.50678e-05
0.000152839
-0.000106597
0.000149216
-0.000126939
0.000141424
-0.000145756
0.000131022
-0.00016282
0.000118772
-0.000177957
0.000105052
-0.000191022
9.00782e-05
-0.000201887
7.40039e-05
-0.000210435
5.69544e-05
-0.000216555
3.9044e-05
-0.000220139
2.03835e-05
-0.000221072
1.09863e-06
-0.000219252
-1.87105e-05
-0.000214567
-3.88593e-05
-0.000206923
-5.91658e-05
-0.000196243
-7.93869e-05
-0.000182489
-9.92109e-05
-0.000165685
-0.00011823
-0.000145951
-0.000135887
-0.000123558
-0.000151354
-9.90171e-05
-0.00016331
-7.32165e-05
-0.000169548
-4.76288e-05
-0.000166502
-2.45486e-05
-0.000148969
-7.26996e-06
-0.000110622
-4.59928e-05
-7.01606e-06
4.93157e-05
-2.33119e-05
0.000116571
-4.4779e-05
0.000155407
-6.84574e-05
0.000173025
-9.2485e-05
0.000176867
-0.000115792
0.000172523
-0.000137782
0.000163413
-0.000158104
0.000151344
-0.000176531
0.000137199
-0.000192893
0.000121414
-0.000207054
0.000104239
-0.000218895
8.58447e-05
-0.000228304
6.63639e-05
-0.000235172
4.59117e-05
-0.000239383
2.45943e-05
-0.000240809
2.52455e-06
-0.000239321
-2.01978e-05
-0.000234775
-4.34062e-05
-0.000227025
-6.69154e-05
-0.000215941
-9.04708e-05
-0.000201424
-0.000113728
-0.000183439
-0.000136215
-0.000162062
-0.000157264
-0.000137551
-0.000175865
-0.000110456
-0.000190406
-8.17846e-05
-0.00019822
-5.32305e-05
-0.000195056
-2.74254e-05
-0.000174774
-8.10904e-06
-0.000129938
-5.41018e-05
-7.70724e-06
5.70229e-05
-2.55859e-05
0.00013445
-4.90917e-05
0.000178913
-7.49579e-05
0.000198891
-0.00010114
0.000203049
-0.000126477
0.00019786
-0.000150332
0.000187268
-0.000172344
0.000173357
-0.00019229
0.000157145
-0.000210014
0.000139137
-0.000225392
0.000119618
-0.000238323
9.87753e-05
-0.000248706
7.67473e-05
-0.000256439
5.36438e-05
-0.000261401
2.95571e-05
-0.000263455
4.57809e-06
-0.00026244
-2.12125e-05
-0.000258169
-4.76769e-05
-0.00025044
-7.4645e-05
-0.000239045
-0.000101865
-0.000223802
-0.000128972
-0.000204586
-0.000155431
-0.000181402
-0.000180448
-0.00015447
-0.000202797
-0.000124373
-0.000220503
-9.22578e-05
-0.000230335
-6.00962e-05
-0.000227218
-3.09525e-05
-0.000203918
-9.1348e-06
-0.000151756
-6.32366e-05
-8.5249e-06
6.55478e-05
-2.82655e-05
0.00015419
-5.4151e-05
0.000204798
-8.2547e-05
0.000227287
-0.000111195
0.000231698
-0.000138828
0.000225493
-0.000164769
0.000213209
-0.000188651
0.00019724
-0.000210264
0.000178757
-0.00022947
0.000158343
-0.000246174
0.000136322
-0.000260298
0.000112899
-0.000271763
8.82127e-05
-0.00028048
6.23611e-05
-0.000286335
3.54119e-05
-0.000289178
7.42049e-06
-0.000288819
-2.15714e-05
-0.000285021
-5.14742e-05
-0.000277509
-8.21569e-05
-0.000265979
-0.000113395
-0.00025013
-0.000144821
-0.00022971
-0.00017585
-0.000204603
-0.000205555
-0.000174954
-0.000232447
-0.000141357
-0.0002541
-0.000105115
-0.000266576
-6.85528e-05
-0.00026378
-3.52961e-05
-0.000237174
-1.03909e-05
-0.000176661
-7.36275e-05
-9.49236e-06
7.50401e-05
-3.14236e-05
0.000176121
-6.00842e-05
0.000233459
-9.13971e-05
0.0002586
-0.000122851
0.000263152
-0.000153061
0.000255702
-0.000181308
0.000241456
-0.000207228
0.00022316
-0.000230634
0.000202162
-0.000251422
0.000179132
-0.000269536
0.000154436
-0.000284935
0.000128299
-0.000297578
0.000100855
-0.000307399
7.21826e-05
-0.000314298
4.23109e-05
-0.000318121
1.1243e-05
-0.000318651
-2.10411e-05
-0.000315597
-5.45279e-05
-0.000308597
-8.91578e-05
-0.000297222
-0.00012477
-0.000281013
-0.00016103
-0.000259535
-0.000197329
-0.000232483
-0.000232606
-0.000199858
-0.000265072
-0.00016222
-0.000291738
-0.000121038
-0.000307759
-7.90732e-05
-0.000305744
-4.06985e-05
-0.000275549
-1.194e-05
-0.00020542
-8.55674e-05
-1.06423e-05
8.56825e-05
-3.51604e-05
0.000200639
-6.70626e-05
0.000265361
-0.000101736
0.000293273
-0.00013637
0.000297786
-0.000169447
0.000288778
-0.000200213
0.000272221
-0.000228317
0.000251265
-0.00025361
0.000227455
-0.000276042
0.000201564
-0.000295613
0.000174008
-0.00031234
0.000145025
-0.000326231
0.000114746
-0.000337265
8.32158e-05
-0.000345366
5.04123e-05
-0.000350389
1.62659e-05
-0.000352098
-1.93319e-05
-0.000350147
-5.64794e-05
-0.000344073
-9.52311e-05
-0.000333301
-0.000135542
-0.000317161
-0.00017717
-0.00029496
-0.00021953
-0.000266107
-0.000261459
-0.000230346
-0.000300832
-0.000188113
-0.000333971
-0.000141017
-0.000354855
-9.23657e-05
-0.000354396
-4.75276e-05
-0.000320387
-1.38761e-05
-0.000239071
-9.94436e-05
-1.20217e-05
9.77042e-05
-3.96162e-05
0.000228234
-7.53209e-05
0.000301066
-0.000113867
0.000331819
-0.000152092
0.000336012
-0.000188334
0.000325019
-0.000221811
0.000305699
-0.000252207
0.000281661
-0.000279434
0.000254682
-0.000303518
0.000225648
-0.00032454
0.000195029
-0.000342596
0.000163081
-0.000357767
0.000129917
-0.000370094
9.55435e-05
-0.000379552
5.98699e-05
-0.000386018
2.27322e-05
-0.000389254
-1.60962e-05
-0.000388865
-5.68687e-05
-0.000384288
-9.9808e-05
-0.000374773
-0.000145058
-0.00035939
-0.000192553
-0.000337092
-0.000241828
-0.000306863
-0.000291687
-0.000268017
-0.000339679
-0.000220692
-0.000381296
-0.000166549
-0.000408997
-0.000109535
-0.000411411
-5.63713e-05
-0.000373551
-1.63495e-05
-0.000279093
-0.000115793
-1.36987e-05
0.000111403
-4.49906e-05
0.000259526
-8.5185e-05
0.00034126
-0.000128203
0.000374838
-0.000170469
0.000378277
-0.000210167
0.000364717
-0.000246512
0.000342044
-0.000279249
0.000314398
-0.000308384
0.000283818
-0.000334051
0.000251315
-0.000356439
0.000217418
-0.000375753
0.000182395
-0.000392175
0.000146339
-0.000405835
0.000109204
-0.00041678
7.08153e-05
-0.000424942
3.08938e-05
-0.000430103
-1.09352e-05
-0.000431843
-5.5129e-05
-0.00042951
-0.000102141
-0.000422171
-0.000152397
-0.000408589
-0.000206135
-0.000387256
-0.00026316
-0.000356547
-0.000322396
-0.000315078
-0.000381148
-0.000262383
-0.000433991
-0.000199944
-0.000471436
-0.000132374
-0.000478981
-6.8224e-05
-0.000437701
-1.96226e-05
-0.000327694
-0.000135416
-1.57759e-05
0.000127179
-5.15739e-05
0.000295324
-9.71145e-05
0.000386801
-0.000145308
0.000423032
-0.000192096
0.000425065
-0.00023552
0.000408141
-0.000274825
0.000381348
-0.000309863
0.000349436
-0.000340778
0.000314732
-0.000367849
0.000278386
-0.000391413
0.000240982
-0.000411815
0.000202796
-0.000429369
0.000163893
-0.000444326
0.00012416
-0.000456839
8.33292e-05
-0.000466929
4.09839e-05
-0.000474444
-3.42022e-06
-0.000478976
-5.05976e-05
-0.000479825
-0.000101291
-0.000475897
-0.000156325
-0.000465626
-0.000216406
-0.000446947
-0.000281838
-0.000417402
-0.000351942
-0.000374526
-0.000424024
-0.000316736
-0.000491781
-0.00024482
-0.000543352
-0.000163874
-0.000559927
-8.48468e-05
-0.000516728
-2.41942e-05
-0.000388347
-0.00015961
-1.84125e-05
0.000145591
-5.97971e-05
0.000336708
-0.000111766
0.000438769
-0.000165957
0.000477223
-0.000217768
0.000476875
-0.000265128
0.000455502
-0.000307378
0.000423598
-0.000344544
0.000386601
-0.000376963
0.000347151
-0.000405111
0.000306535
-0.000429515
0.000265386
-0.000450697
0.000223978
-0.000469137
0.000182333
-0.000485241
0.000140265
-0.00049931
9.73981e-05
-0.000511496
5.31702e-05
-0.00052177
6.85338e-06
-0.000529806
-4.25615e-05
-0.000534938
-9.61594e-05
-0.000535983
-0.00015528
-0.000531091
-0.000221298
-0.000517593
-0.000295337
-0.000491974
-0.000377561
-0.000450203
-0.000465795
-0.000388759
-0.000553225
-0.000306736
-0.000625375
-0.000209015
-0.000657648
-0.000109416
-0.000616327
-3.10633e-05
-0.0004667
-0.000190673
-2.18651e-05
0.000167456
-7.03142e-05
0.000385158
-0.000130085
0.00049854
-0.000191216
0.000538355
-0.000248522
0.000534181
-0.000299907
0.000506887
-0.000344911
0.000468603
-0.000383827
0.000425517
-0.000417264
0.000380589
-0.000445955
0.000335226
-0.000470662
0.000290093
-0.000492122
0.000245439
-0.000511019
0.000201229
-0.000527947
0.000157193
-0.000543392
0.000112844
-0.000557699
6.74772e-05
-0.000571001
2.01556e-05
-0.000583201
-3.03622e-05
-0.000593764
-8.55964e-05
-0.000601582
-0.000147461
-0.000604676
-0.000218204
-0.000599855
-0.000300158
-0.000582429
-0.000394987
-0.000546264
-0.000501959
-0.000484766
-0.000614724
-0.000393591
-0.00071655
-0.000275661
-0.000775578
-0.000147502
-0.000744486
-4.22317e-05
-0.00057197
-0.000232905
-2.65647e-05
0.000194021
-8.41379e-05
0.000442731
-0.00015344
0.000567842
-0.000222525
0.00060744
-0.000285666
0.000597321
-0.000340913
0.000562134
-0.000388174
0.000515865
-0.000428141
0.000465483
-0.000461788
0.000414236
-0.000490175
0.000363612
-0.000514349
0.000314267
-0.000535304
0.000266393
-0.000553949
0.000219874
-0.000571099
0.000174343
-0.000587458
0.000129203
-0.000603603
8.3622e-05
-0.00061994
3.64926e-05
-0.000636655
-1.36475e-05
-0.000653565
-6.86861e-05
-0.000669878
-0.000131148
-0.000683799
-0.000204283
-0.000691931
-0.000292026
-0.000688549
-0.000398368
-0.000665067
-0.000525441
-0.000610512
-0.000669279
-0.00051451
-0.000812551
-0.000374596
-0.000915491
-0.000208012
-0.000911071
-6.15018e-05
-0.000718479
-0.000294407
-3.32624e-05
0.000227283
-0.000102852
0.00051232
-0.000183775
0.000648765
-0.000261727
0.000685392
-0.000330656
0.000666251
-0.000389082
0.000620559
-0.000437537
0.00056432
-0.000477283
0.000505229
-0.000509782
0.000446735
-0.000536498
0.000390328
-0.000558816
0.000336585
-0.000578013
0.000285591
-0.000595247
0.000237108
-0.000611558
0.000190655
-0.000627883
0.000145528
-0.000645058
0.000100796
-0.000663814
5.52494e-05
-0.00068471
7.24832e-06
-0.000708126
-4.52703e-05
-0.000733881
-0.000105393
-0.000760846
-0.000177318
-0.000786034
-0.000266839
-0.000803309
-0.000381093
-0.000801861
-0.000526889
-0.000765436
-0.000705704
-0.000674658
-0.00090333
-0.000516299
-0.00107385
-0.000302685
-0.00112468
-9.5369e-05
-0.000925796
-0.000389776
-4.33067e-05
0.00027059
-0.000128916
0.00059793
-0.000223689
0.000743537
-0.000310811
0.000772514
-0.000384493
0.000739933
-0.000444284
0.00068035
-0.000491714
0.00061175
-0.000528854
0.000542369
-0.000557798
0.00047568
-0.000580507
0.000413037
-0.000598753
0.000354831
-0.000614113
0.000300951
-0.000627987
0.000250982
-0.000641623
0.00020429
-0.000656157
0.000160061
-0.000672658
0.000117298
-0.000692165
7.47561e-05
-0.000715699
3.07821e-05
-0.000744172
-1.6797e-05
-0.000778391
-7.11742e-05
-0.000818381
-0.000137328
-0.000862419
-0.000222801
-0.000905184
-0.000338328
-0.000934988
-0.000497085
-0.000930919
-0.000709774
-0.000862843
-0.000971406
-0.000700668
-0.00123603
-0.000441118
-0.00138423
-0.000153114
-0.0012138
-0.00054289
-5.91565e-05
0.000329747
-0.000166004
0.000704777
-0.000276093
0.000853627
-0.000370733
0.000867154
-0.000445694
0.000814894
-0.000502497
0.000737153
-0.000544222
0.000653475
-0.00057407
0.000572218
-0.000594968
0.000496578
-0.000609476
0.000427544
-0.000619789
0.000365144
-0.000627775
0.000308937
-0.00063502
0.000258228
-0.000642903
0.000212173
-0.000652666
0.000169824
-0.000665496
0.000130128
-0.000682616
9.18756e-05
-0.000705397
5.35638e-05
-0.00073512
1.29252e-05
-0.000773619
-3.26749e-05
-0.000822377
-8.85703e-05
-0.000881676
-0.000163501
-0.000948653
-0.000271351
-0.00101352
-0.000432219
-0.00105431
-0.000668986
-0.00103246
-0.000993255
-0.000897926
-0.00137056
-0.0006175
-0.00166466
-0.000243615
-0.00158768
-0.000786505
-8.52991e-05
0.000415046
-0.00021902
0.000838498
-0.000342365
0.000976971
-0.000437546
0.000962336
-0.000504538
0.000881885
-0.000548413
0.000781028
-0.00057463
0.000679692
-0.000587995
0.000585583
-0.000592501
0.000501083
-0.000591383
0.000426426
-0.000587223
0.000360984
-0.000582067
0.000303781
-0.000577542
0.000253703
-0.000574974
0.000209605
-0.000575507
0.000170356
-0.000580217
0.000134839
-0.000590241
0.000101899
-0.0006069
7.02229e-05
-0.000632035
3.80601e-05
-0.000666931
2.22083e-06
-0.000715164
-4.03368e-05
-0.000778813
-9.98523e-05
-0.000858854
-0.000191311
-0.000951029
-0.000340043
-0.00103936
-0.000580659
-0.00108629
-0.000946325
-0.00102739
-0.00142945
-0.000788464
-0.00190359
-0.000363924
-0.00201222
-0.00115043
-0.000129867
0.000544912
-0.000292504
0.00100114
-0.000415796
0.00110026
-0.000491361
0.0010379
-0.000528481
0.000919006
-0.00053839
0.000790937
-0.000530072
0.000671374
-0.000510419
0.000565931
-0.000484535
0.000475199
-0.000456117
0.000398008
-0.000427805
0.000332672
-0.000401449
0.000277426
-0.000378344
0.000230598
-0.000359415
0.000190675
-0.000345371
0.000156313
-0.000336846
0.000126314
-0.000334519
9.95723e-05
-0.000339252
7.49553e-05
-0.000352264
5.10728e-05
-0.000375765
2.57211e-05
-0.000411485
-4.61643e-06
-0.00046409
-4.72468e-05
-0.00053813
-0.000117271
-0.000637352
-0.000240822
-0.000760483
-0.000457528
-0.000885495
-0.000821313
-0.000953195
-0.00136175
-0.00085249
-0.0020043
-0.000478121
-0.00238659
-0.00162855
-0.000207596
0.000752508
-0.000381203
0.00117474
-0.000460031
0.00117909
-0.000466985
0.00104485
-0.000429051
0.000881072
-0.000367093
0.000728979
-0.000293646
0.000597926
-0.000217157
0.000489442
-0.000142722
0.000400764
-7.33205e-05
0.000328606
-1.0581e-05
0.000269932
4.47236e-05
0.000222121
9.23426e-05
0.000182979
0.000132317
0.000150701
0.000164811
0.000123819
0.000189994
0.000101131
0.000207949
8.16175e-05
0.000218575
6.43294e-05
0.000221457
4.81908e-05
0.000215525
3.16535e-05
0.000198852
1.20563e-05
0.000167614
-1.60084e-05
0.000114389
-6.40469e-05
2.71689e-05
-0.000153601
-0.000105477
-0.000324882
-0.000294275
-0.000632515
-0.000515329
-0.00114069
-0.000655082
-0.00186454
-0.000507084
-0.00253459
-0.00213563
-0.00033068
0.00108319
-0.000413227
0.00125729
-0.000335754
0.00110162
-0.000179354
0.000888455
2.13737e-06
0.00069958
0.000184237
0.00054688
0.000353573
0.00042859
0.000505597
0.000337417
0.000639142
0.000267219
0.000754731
0.000213018
0.000853698
0.000170965
0.000937695
0.000138124
0.00100841
0.000112262
0.00106743
9.16846e-05
0.00111614
7.51087e-05
0.00115571
6.15555e-05
0.00118708
5.02504e-05
0.0012109
4.05145e-05
0.00122748
3.16082e-05
0.00123663
2.25039e-05
0.00123712
1.1565e-05
0.00122553
-4.41558e-06
0.00119498
-3.35022e-05
0.0011303
-8.89218e-05
0.00100259
-0.000197168
0.000773953
-0.00040388
0.000413299
-0.00078004
-2.25959e-05
-0.00142865
-0.000278407
-0.00227878
-0.00241404
-0.000285174
0.00136836
-1.51003e-05
0.000987215
0.000426208
0.000660311
0.00084066
0.000474003
0.00119905
0.000341188
0.00149978
0.000246153
0.00174852
0.00017985
0.00195252
0.000133418
0.00211929
0.000100442
0.0022556
7.67139e-05
0.00236712
5.94474e-05
0.00245851
4.67299e-05
0.00253354
3.72285e-05
0.00259522
3.00123e-05
0.00264589
2.44311e-05
0.00268742
2.00243e-05
0.00272122
1.64515e-05
0.00274831
1.34296e-05
0.00276925
1.06634e-05
0.002784
7.75274e-06
0.00279152
4.0531e-06
0.00278901
-1.90651e-06
0.002769
-1.34989e-05
0.00271585
-3.57683e-05
0.00259818
-7.9497e-05
0.00236156
-0.000167261
0.00192379
-0.000342271
0.00121847
-0.000723331
0.000391665
-0.00145197
-0.00202237
0.00136836
0.00235558
0.00301589
0.00348989
0.00383108
0.00407723
0.00425708
0.0043905
0.00449094
0.00456766
0.0046271
0.00467383
0.00471106
0.00474107
0.00476551
0.00478553
0.00480198
0.00481541
0.00482607
0.00483383
0.00483788
0.00483597
0.00482248
0.00478671
0.00470721
0.00453995
0.00419768
0.00347435
0.00202237
)
;

boundaryField
{
    movingWall
    {
        type            calculated;
        value           uniform 0;
    }
    fixedWalls
    {
        type            calculated;
        value           uniform 0;
    }
    frontAndBack
    {
        type            empty;
        value           nonuniform 0();
    }
}


// ************************************************************************* //
