/*--------------------------------*- C++ -*----------------------------------*\
  =========                 |
  \\      /  F ield         | OpenFOAM: The Open Source CFD Toolbox
   \\    /   O peration     | Website:  https://openfoam.org
    \\  /    A nd           | Version:  7
     \\/     M anipulation  |
\*---------------------------------------------------------------------------*/
FoamFile
{
    version     2.0;
    format      ascii;
    class       volVectorField;
    location    "1.2";
    object      U;
}
// * * * * * * * * * * * * * * * * * * * * * * * * * * * * * * * * * * * * * //

dimensions      [0 1 -1 0 0 0 0];

internalField   nonuniform List<vector> 
900
(
(3.64508e-05 -3.59363e-05 0)
(-0.000117239 7.36241e-05 0)
(-0.000590745 0.000160842 0)
(-0.00120363 0.000200463 0)
(-0.00187459 0.000210238 0)
(-0.00255041 0.000205375 0)
(-0.0032008 0.000194231 0)
(-0.00381077 0.000180299 0)
(-0.00437155 0.000164574 0)
(-0.00487639 0.000147147 0)
(-0.00531908 0.000127932 0)
(-0.00569369 0.000106906 0)
(-0.00599466 8.41065e-05 0)
(-0.00621687 5.96334e-05 0)
(-0.00635578 3.36554e-05 0)
(-0.00640757 6.40161e-06 0)
(-0.00636926 -2.19038e-05 0)
(-0.00623886 -5.0868e-05 0)
(-0.00601561 -8.00968e-05 0)
(-0.00570001 -0.000109155 0)
(-0.00529405 -0.000137565 0)
(-0.00480134 -0.000164819 0)
(-0.00422725 -0.000190364 0)
(-0.00357952 -0.000213336 0)
(-0.00287016 -0.000231769 0)
(-0.00212008 -0.000241007 0)
(-0.00136846 -0.000231525 0)
(-0.000679228 -0.000187268 0)
(-0.000144945 -9.00908e-05 0)
(3.51865e-05 3.30522e-05 0)
(-7.26265e-05 0.000116483 0)
(-0.000634034 0.000631235 0)
(-0.00179122 0.00100456 0)
(-0.00321366 0.00119007 0)
(-0.00474573 0.00124506 0)
(-0.00628934 0.00122504 0)
(-0.00778028 0.00116512 0)
(-0.00918129 0.00108288 0)
(-0.0104682 0.000985542 0)
(-0.011623 0.000875692 0)
(-0.0126305 0.000754409 0)
(-0.0134767 0.000622504 0)
(-0.0141496 0.000480834 0)
(-0.0146383 0.000330418 0)
(-0.0149337 0.000172494 0)
(-0.0150282 8.53022e-06 0)
(-0.0149166 -0.000159683 0)
(-0.0145956 -0.000330187 0)
(-0.014065 -0.000500671 0)
(-0.0133271 -0.000668581 0)
(-0.0123877 -0.000831073 0)
(-0.0112565 -0.000984907 0)
(-0.00994723 -0.00112611 0)
(-0.00847985 -0.00124857 0)
(-0.00688445 -0.00134082 0)
(-0.00520887 -0.00138045 0)
(-0.00353278 -0.0013277 0)
(-0.00197215 -0.00112406 0)
(-0.000701913 -0.000711862 0)
(-8.2611e-05 -0.00014213 0)
(-0.000163702 0.000593828 0)
(-0.00103425 0.00179542 0)
(-0.00266761 0.00260718 0)
(-0.00461925 0.00301955 0)
(-0.00669419 0.00314618 0)
(-0.00877522 0.00309809 0)
(-0.0107824 0.00294965 0)
(-0.0126668 0.00274097 0)
(-0.0143956 0.00249065 0)
(-0.0159439 0.00220679 0)
(-0.0172909 0.00189349 0)
(-0.0184183 0.0015537 0)
(-0.0193102 0.00119021 0)
(-0.0199526 0.000806017 0)
(-0.0203341 0.000404526 0)
(-0.0204457 -1.04078e-05 0)
(-0.0202808 -0.000434296 0)
(-0.0198365 -0.000862169 0)
(-0.0191126 -0.00128833 0)
(-0.0181133 -0.00170644 0)
(-0.0168467 -0.00210936 0)
(-0.0153264 -0.0024888 0)
(-0.0135713 -0.00283431 0)
(-0.0116086 -0.00313008 0)
(-0.00947843 -0.0033484 0)
(-0.00724196 -0.00343903 0)
(-0.00499728 -0.00331815 0)
(-0.00288238 -0.00286894 0)
(-0.00111511 -0.00197782 0)
(-0.00017571 -0.000661422 0)
(-0.000212359 0.00123326 0)
(-0.00127767 0.00327618 0)
(-0.00322589 0.00458917 0)
(-0.00551814 0.00524652 0)
(-0.00793291 0.00544185 0)
(-0.0103435 0.00535132 0)
(-0.012663 0.00509232 0)
(-0.0148379 0.00472914 0)
(-0.016831 0.00429276 0)
(-0.018614 0.00379769 0)
(-0.0201632 0.00325178 0)
(-0.0214579 0.00266073 0)
(-0.0224801 0.00202982 0)
(-0.0232143 0.00136454 0)
(-0.0236479 0.000670951 0)
(-0.0237707 -4.42416e-05 0)
(-0.0235758 -0.000773544 0)
(-0.0230597 -0.00150834 0)
(-0.0222226 -0.00223899 0)
(-0.021069 -0.00295474 0)
(-0.0196083 -0.00364338 0)
(-0.0178557 -0.00429069 0)
(-0.015833 -0.00487861 0)
(-0.0135709 -0.00538033 0)
(-0.0111144 -0.00575038 0)
(-0.00853106 -0.00590849 0)
(-0.00592794 -0.00572252 0)
(-0.00345532 -0.0050071 0)
(-0.00136079 -0.00356889 0)
(-0.000223193 -0.001344 0)
(-0.000236133 0.0019705 0)
(-0.00142191 0.00495941 0)
(-0.003581 0.00681567 0)
(-0.00610352 0.00772627 0)
(-0.00874669 0.00798387 0)
(-0.0113764 0.00783844 0)
(-0.0139018 0.00745324 0)
(-0.016267 0.00691748 0)
(-0.0184332 0.00627477 0)
(-0.0203703 0.00554624 0)
(-0.0220534 0.00474376 0)
(-0.0234602 0.00387606 0)
(-0.0245718 0.00295116 0)
(-0.0253718 0.00197725 0)
(-0.0258464 0.000963162 0)
(-0.0259849 -8.13911e-05 0)
(-0.0257794 -0.00114562 0)
(-0.0252255 -0.00221724 0)
(-0.024323 -0.00328245 0)
(-0.0230757 -0.0043257 0)
(-0.0214931 -0.00532931 0)
(-0.0195906 -0.00627255 0)
(-0.0173908 -0.00712909 0)
(-0.0149262 -0.00786037 0)
(-0.0122446 -0.00840224 0)
(-0.0094176 -0.00864284 0)
(-0.00655972 -0.00839791 0)
(-0.00383267 -0.00740433 0)
(-0.00150971 -0.00536988 0)
(-0.000246028 -0.00212385 0)
(-0.000250022 0.00276866 0)
(-0.00152229 0.00678696 0)
(-0.00384346 0.00922556 0)
(-0.00654838 0.0103997 0)
(-0.00937512 0.0107158 0)
(-0.0121816 0.0105057 0)
(-0.0148731 0.00998189 0)
(-0.017392 0.00925974 0)
(-0.0196983 0.00839576 0)
(-0.0217613 0.0074178 0)
(-0.0235552 0.00634184 0)
(-0.0250572 0.00517972 0)
(-0.0262475 0.00394223 0)
(-0.0271089 0.00264025 0)
(-0.027627 0.00128538 0)
(-0.0277899 -0.000109779 0)
(-0.0275885 -0.00153123 0)
(-0.027017 -0.00296302 0)
(-0.0260737 -0.00438714 0)
(-0.024761 -0.00578311 0)
(-0.0230871 -0.00712743 0)
(-0.0210665 -0.00839239 0)
(-0.0187218 -0.00954263 0)
(-0.0160862 -0.0105269 0)
(-0.0132096 -0.0112608 0)
(-0.0101686 -0.0115984 0)
(-0.00708631 -0.0112984 0)
(-0.00413829 -0.0100111 0)
(-0.00162344 -0.00733108 0)
(-0.000260661 -0.00296805 0)
(-0.000262573 0.00361439 0)
(-0.00161475 0.00873574 0)
(-0.00408881 0.0117957 0)
(-0.00696992 0.0132468 0)
(-0.009977 0.0136204 0)
(-0.0129588 0.0133377 0)
(-0.0158158 0.0126645 0)
(-0.0184883 0.0117438 0)
(-0.0209353 0.0106456 0)
(-0.0231256 0.00940469 0)
(-0.0250329 0.0080412 0)
(-0.026634 0.00657007 0)
(-0.0279087 0.00500476 0)
(-0.0288391 0.00335868 0)
(-0.0294098 0.00164595 0)
(-0.0296077 -0.000118151 0)
(-0.029422 -0.00191682 0)
(-0.0288447 -0.00373054 0)
(-0.0278719 -0.00553723 0)
(-0.0265037 -0.00731145 0)
(-0.0247456 -0.00902362 0)
(-0.0226106 -0.0106384 0)
(-0.0201199 -0.0121105 0)
(-0.0173073 -0.0133745 0)
(-0.0142251 -0.0143234 0)
(-0.0109562 -0.0147735 0)
(-0.0076346 -0.0144207 0)
(-0.00445353 -0.0128198 0)
(-0.00174011 -0.00944131 0)
(-0.000275902 -0.00386886 0)
(-0.000277723 0.0045101 0)
(-0.00171864 0.0108097 0)
(-0.00436021 0.0145328 0)
(-0.00743563 0.0162772 0)
(-0.010643 0.0167091 0)
(-0.0138206 0.0163466 0)
(-0.0168628 0.015513 0)
(-0.0197074 0.0143811 0)
(-0.0223124 0.0130352 0)
(-0.0246459 0.0115175 0)
(-0.0266816 0.0098524 0)
(-0.0283961 0.00805779 0)
(-0.0297689 0.00614965 0)
(-0.0307815 0.00414365 0)
(-0.0314173 0.00205603 0)
(-0.0316621 -9.56352e-05 0)
(-0.0315026 -0.00229241 0)
(-0.0309282 -0.00451145 0)
(-0.0299317 -0.00672696 0)
(-0.0285097 -0.00890861 0)
(-0.0266642 -0.0110205 0)
(-0.0244049 -0.013019 0)
(-0.0217511 -0.0148475 0)
(-0.0187365 -0.0164242 0)
(-0.0154163 -0.0176165 0)
(-0.0118809 -0.0181978 0)
(-0.00827902 -0.0177942 0)
(-0.00482519 -0.0158556 0)
(-0.00187995 -0.0117185 0)
(-0.00029558 -0.00483485 0)
(-0.000296986 0.00546576 0)
(-0.00184335 0.0130284 0)
(-0.00468045 0.0174618 0)
(-0.00798186 0.0195182 0)
(-0.011422 0.0200099 0)
(-0.0148268 0.0195596 0)
(-0.0180839 0.0185529 0)
(-0.0211278 0.0171951 0)
(-0.0239153 0.0155862 0)
(-0.0264145 0.0137761 0)
(-0.0285989 0.0117936 0)
(-0.0304454 0.00965964 0)
(-0.0319334 0.00739248 0)
(-0.033044 0.00500957 0)
(-0.0337598 0.00252862 0)
(-0.0340648 -3.14587e-05 0)
(-0.0339433 -0.00264879 0)
(-0.0333806 -0.0052994 0)
(-0.0323658 -0.00795403 0)
(-0.0308905 -0.0105777 0)
(-0.0289516 -0.0131279 0)
(-0.026554 -0.0155519 0)
(-0.0237135 -0.0177803 0)
(-0.0204628 -0.0197118 0)
(-0.0168603 -0.0211839 0)
(-0.0130055 -0.0219206 0)
(-0.00906519 -0.0214695 0)
(-0.00528079 -0.0191648 0)
(-0.00205356 -0.014198 0)
(-0.000321135 -0.00588242 0)
(-0.00032097 0.00649461 0)
(-0.00199389 0.0154192 0)
(-0.00506257 0.0206169 0)
(-0.00862981 0.0230066 0)
(-0.0123423 0.0235588 0)
(-0.0160118 0.0230106 0)
(-0.0195182 0.0218155 0)
(-0.0227923 0.0202143 0)
(-0.0257902 0.0183241 0)
(-0.0284796 0.0162034 0)
(-0.0308349 0.0138856 0)
(-0.0328336 0.0113947 0)
(-0.0344555 0.00875088 0)
(-0.0356818 0.00597283 0)
(-0.0364944 0.00307904 0)
(-0.0368747 8.90306e-05 0)
(-0.0368046 -0.00297434 0)
(-0.0362661 -0.00608609 0)
(-0.0352417 -0.00921464 0)
(-0.0337166 -0.0123209 0)
(-0.0316805 -0.0153559 0)
(-0.0291314 -0.018257 0)
(-0.0260794 -0.0209397 0)
(-0.0225545 -0.0232802 0)
(-0.0186176 -0.0250795 0)
(-0.0143795 -0.0260042 0)
(-0.0100289 -0.0255119 0)
(-0.00584121 -0.0228083 0)
(-0.00226835 -0.0169263 0)
(-0.000353285 -0.00703198 0)
(-0.000350122 0.00761189 0)
(-0.00217401 0.0180149 0)
(-0.00551642 0.0240389 0)
(-0.00939552 0.0267849 0)
(-0.0134253 0.027397 0)
(-0.017401 0.0267375 0)
(-0.0211938 0.025335 0)
(-0.0247309 0.023469 0)
(-0.0279676 0.0212758 0)
(-0.0308724 0.0188232 0)
(-0.0334208 0.0161499 0)
(-0.0355918 0.0132827 0)
(-0.0373666 0.0102434 0)
(-0.0387271 0.00705128 0)
(-0.0396545 0.00372464 0)
(-0.0401289 0.000282557 0)
(-0.0401287 -0.00325392 0)
(-0.039631 -0.00685899 0)
(-0.0386112 -0.0105003 0)
(-0.0370459 -0.014136 0)
(-0.0349149 -0.017711 0)
(-0.0322058 -0.0211522 0)
(-0.0289196 -0.0243578 0)
(-0.025081 -0.0271764 0)
(-0.020752 -0.0293654 0)
(-0.0160559 -0.0305225 0)
(-0.0112087 -0.0300009 0)
(-0.00652867 -0.0268607 0)
(-0.0025321 -0.01996 0)
(-0.000392793 -0.00830736 0)
(-0.000385024 0.00883469 0)
(-0.00238779 0.020853 0)
(-0.00605224 0.0277745 0)
(-0.0102953 0.0309012 0)
(-0.0146921 0.0315697 0)
(-0.019019 0.0307812 0)
(-0.0231373 0.029147 0)
(-0.0269708 0.02699 0)
(-0.0304745 0.0244679 0)
(-0.0336188 0.021659 0)
(-0.0363814 0.0186075 0)
(-0.0387441 0.0153433 0)
(-0.0406905 0.0118891 0)
(-0.042204 0.00826389 0)
(-0.0432664 0.00448464 0)
(-0.0438565 0.000567927 0)
(-0.0439493 -0.00346782 0)
(-0.0435159 -0.00759927 0)
(-0.0425233 -0.0117953 0)
(-0.0409368 -0.016013 0)
(-0.0387226 -0.0201926 0)
(-0.0358536 -0.0242502 0)
(-0.0323166 -0.0280644 0)
(-0.028126 -0.0314504 0)
(-0.0233422 -0.0341121 0)
(-0.0181016 -0.0355632 0)
(-0.0126539 -0.0350326 0)
(-0.00737208 -0.031413 0)
(-0.00285509 -0.0233679 0)
(-0.000440748 -0.00973672 0)
(-0.000426524 0.0101825 0)
(-0.00264048 0.0239766 0)
(-0.00668266 0.0318764 0)
(-0.0113488 0.0354091 0)
(-0.0161679 0.0361265 0)
(-0.0208944 0.035185 0)
(-0.0253787 0.0332883 0)
(-0.0295417 0.0308082 0)
(-0.0333394 0.0279262 0)
(-0.0367451 0.0247326 0)
(-0.0397407 0.0212778 0)
(-0.0423123 0.0175946 0)
(-0.0444474 0.0137064 0)
(-0.0461328 0.00963063 0)
(-0.0473517 0.00538112 0)
(-0.0480825 0.000970036 0)
(-0.0482971 -0.00358945 0)
(-0.0479601 -0.00827953 0)
(-0.0470284 -0.0130736 0)
(-0.0454527 -0.0179308 0)
(-0.0431815 -0.022789 0)
(-0.0401664 -0.0275544 0)
(-0.0363728 -0.0320839 0)
(-0.0317972 -0.0361529 0)
(-0.0264927 -0.0393984 0)
(-0.0206077 -0.0412297 0)
(-0.0144329 -0.0407246 0)
(-0.00841199 -0.036579 0)
(-0.00325183 -0.0272361 0)
(-0.000498679 -0.0113542 0)
(-0.000475853 0.0116782 0)
(-0.00293926 0.0274359 0)
(-0.00742446 0.0364056 0)
(-0.0125815 0.040369 0)
(-0.0178846 0.0411215 0)
(-0.0230625 0.0399943 0)
(-0.0279545 0.0377959 0)
(-0.0324789 0.0349528 0)
(-0.0365947 0.0316738 0)
(-0.04028 0.0280628 0)
(-0.0435233 0.0241773 0)
(-0.0463172 0.0200528 0)
(-0.0486555 0.0157127 0)
(-0.0505301 0.0111717 0)
(-0.0519278 0.00643857 0)
(-0.0528278 0.00151833 0)
(-0.0531997 -0.00358442 0)
(-0.0530014 -0.00886141 0)
(-0.0521782 -0.0142951 0)
(-0.0506634 -0.0198517 0)
(-0.0483816 -0.0254711 0)
(-0.0452555 -0.0310524 0)
(-0.0412182 -0.0364297 0)
(-0.0362366 -0.0413314 0)
(-0.0303457 -0.0453111 0)
(-0.0237021 -0.0476457 0)
(-0.016644 -0.047224 0)
(-0.00970754 -0.0425034 0)
(-0.0037434 -0.0316743 0)
(-0.000568653 -0.0132024 0)
(-0.000534806 0.0133489 0)
(-0.00329416 0.0312904 0)
(-0.00830046 0.0414333 0)
(-0.0140276 0.0458498 0)
(-0.0198837 0.0466141 0)
(-0.0255687 0.0452572 0)
(-0.0309099 0.0427063 0)
(-0.035825 0.0394505 0)
(-0.0402781 0.0357298 0)
(-0.0442555 0.0316637 0)
(-0.0477548 0.0273175 0)
(-0.0507785 0.0227295 0)
(-0.0533296 0.0179223 0)
(-0.0554078 0.0129064 0)
(-0.0570059 0.00768308 0)
(-0.0581063 0.00224721 0)
(-0.0586779 -0.00340939 0)
(-0.0586725 -0.00929318 0)
(-0.0580231 -0.015402 0)
(-0.0566424 -0.0217163 0)
(-0.0544255 -0.0281853 0)
(-0.0512553 -0.0347071 0)
(-0.0470182 -0.041095 0)
(-0.0416332 -0.0470236 0)
(-0.035099 -0.0519428 0)
(-0.0275688 -0.054959 0)
(-0.0194333 -0.0547174 0)
(-0.0113484 -0.0493769 0)
(-0.0043617 -0.0368285 0)
(-0.000653532 -0.0153364 0)
(-0.00060602 0.0152286 0)
(-0.00371941 0.0356129 0)
(-0.00934236 0.047044 0)
(-0.015733 0.0519306 0)
(-0.0222205 0.0526697 0)
(-0.0284715 0.0510228 0)
(-0.0343021 0.0480538 0)
(-0.0396321 0.0443232 0)
(-0.0444345 0.0401067 0)
(-0.0487074 0.0355419 0)
(-0.0524619 0.0307026 0)
(-0.0557141 0.0256299 0)
(-0.0584797 0.0203445 0)
(-0.0607703 0.0148511 0)
(-0.0625879 0.0091411 0)
(-0.0639211 0.00319551 0)
(-0.0647411 -0.00301139 0)
(-0.0649959 -0.0095072 0)
(-0.0646064 -0.0163134 0)
(-0.0634634 -0.0234348 0)
(-0.0614257 -0.0308419 0)
(-0.0583252 -0.0384428 0)
(-0.053982 -0.0460375 0)
(-0.0482401 -0.0532436 0)
(-0.0410311 -0.0593843 0)
(-0.0324794 -0.0633446 0)
(-0.0230252 -0.0634465 0)
(-0.0134771 -0.0574583 0)
(-0.00515819 -0.0429004 0)
(-0.000757728 -0.0178301 0)
(-0.000693489 0.0173601 0)
(-0.0042357 0.0404945 0)
(-0.0105949 0.0533405 0)
(-0.0177613 0.0587035 0)
(-0.0249686 0.0593601 0)
(-0.0318471 0.057341 0)
(-0.0382034 0.0538683 0)
(-0.0439641 0.0495849 0)
(-0.0491163 0.0448074 0)
(-0.0536756 0.0396934 0)
(-0.0576714 0.0343259 0)
(-0.061138 0.028749 0)
(-0.064109 0.0229803 0)
(-0.0666115 0.0170167 0)
(-0.0686616 0.0108371 0)
(-0.0702587 0.00440505 0)
(-0.0713804 -0.00232797 0)
(-0.0719753 -0.00941817 0)
(-0.0719553 -0.0169207 0)
(-0.0711897 -0.0248786 0)
(-0.0694977 -0.0333009 0)
(-0.0666477 -0.0421253 0)
(-0.0623698 -0.0511556 0)
(-0.0563951 -0.0599578 0)
(-0.0485377 -0.0677075 0)
(-0.0388436 -0.0730034 0)
(-0.0277769 -0.0737277 0)
(-0.0163313 -0.0671106 0)
(-0.00622208 -0.0501831 0)
(-0.000889513 -0.020789 0)
(-0.000803477 0.0198003 0)
(-0.00487371 0.046052 0)
(-0.0121221 0.0604498 0)
(-0.0202005 0.0662765 0)
(-0.0282275 0.0667633 0)
(-0.0357951 0.0642597 0)
(-0.0427056 0.060172 0)
(-0.0488994 0.0552381 0)
(-0.0543857 0.0498204 0)
(-0.0592042 0.0440987 0)
(-0.063409 0.0381661 0)
(-0.0670587 0.0320681 0)
(-0.0702096 0.0258185 0)
(-0.0729101 0.0194045 0)
(-0.0751951 0.0127899 0)
(-0.0770808 0.00591733 0)
(-0.0785579 -0.00128974 0)
(-0.0795822 -0.0089232 0)
(-0.0800639 -0.017084 0)
(-0.0798567 -0.0258703 0)
(-0.0787411 -0.0353539 0)
(-0.0764139 -0.0455334 0)
(-0.07249 -0.0562497 0)
(-0.0665377 -0.0670417 0)
(-0.0581769 -0.076928 0)
(-0.0472816 -0.0841464 0)
(-0.0342676 -0.0859734 0)
(-0.0203223 -0.0788591 0)
(-0.00771907 -0.0591242 0)
(-0.00106765 -0.024376 0)
(-0.000946301 0.022627 0)
(-0.00568042 0.0524395 0)
(-0.0140176 0.0685314 0)
(-0.0231742 0.0747766 0)
(-0.0321314 0.0749625 0)
(-0.0404453 0.0718206 0)
(-0.0479236 0.0669736 0)
(-0.0545323 0.0612669 0)
(-0.0603129 0.055114 0)
(-0.0653384 0.0487179 0)
(-0.0696955 0.0421807 0)
(-0.0734732 0.0355489 0)
(-0.0767564 0.0288303 0)
(-0.0796204 0.0220007 0)
(-0.0821253 0.0150069 0)
(-0.0843106 0.00776752 0)
(-0.0861884 0.000174348 0)
(-0.0877325 -0.00790569 0)
(-0.0888643 -0.0166319 0)
(-0.0894351 -0.0261771 0)
(-0.0891983 -0.0367064 0)
(-0.087781 -0.0483245 0)
(-0.0846644 -0.0609683 0)
(-0.0791979 -0.0742074 0)
(-0.0706979 -0.0869296 0)
(-0.0587071 -0.0969464 0)
(-0.0434263 -0.100705 0)
(-0.0261673 -0.0934765 0)
(-0.00996904 -0.0704411 0)
(-0.00133878 -0.0288677 0)
(-0.0011399 0.025951 0)
(-0.00672992 0.0598654 0)
(-0.0164203 0.0777879 0)
(-0.0268568 0.0843516 0)
(-0.0368607 0.0840415 0)
(-0.0459636 0.0800523 0)
(-0.0539969 0.0742595 0)
(-0.0609696 0.0676292 0)
(-0.0669697 0.060628 0)
(-0.072115 0.0534817 0)
(-0.076533 0.0462995 0)
(-0.0803507 0.0391263 0)
(-0.0836874 0.0319617 0)
(-0.0866508 0.0247685 0)
(-0.0893321 0.017475 0)
(-0.0918017 0.0099755 0)
(-0.0941018 0.00212838 0)
(-0.0962389 -0.0062461 0)
(-0.098166 -0.0153716 0)
(-0.0997549 -0.0255139 0)
(-0.100759 -0.0369666 0)
(-0.100761 -0.0500007 0)
(-0.0991089 -0.0647394 0)
(-0.0948876 -0.0808981 0)
(-0.0869767 -0.0973328 0)
(-0.0743426 -0.111421 0)
(-0.0566455 -0.118517 0)
(-0.0350658 -0.112085 0)
(-0.0135847 -0.0853116 0)
(-0.00181794 -0.0347731 0)
(-0.0014173 0.0299378 0)
(-0.00814291 0.068618 0)
(-0.0195384 0.0884765 0)
(-0.0314921 0.0951682 0)
(-0.042651 0.094074 0)
(-0.0525506 0.0889554 0)
(-0.0610779 0.0819792 0)
(-0.0683099 0.0742411 0)
(-0.0744003 0.06626 0)
(-0.0795248 0.0582799 0)
(-0.0838619 0.0504128 0)
(-0.0875832 0.0426974 0)
(-0.090848 0.0351224 0)
(-0.0938005 0.0276353 0)
(-0.0965678 0.0201461 0)
(-0.0992575 0.012526 0)
(-0.101953 0.00460243 0)
(-0.104708 -0.00384995 0)
(-0.107528 -0.0131184 0)
(-0.110344 -0.0235725 0)
(-0.112959 -0.0356653 0)
(-0.114963 -0.0499022 0)
(-0.115623 -0.0667183 0)
(-0.113751 -0.0861666 0)
(-0.107669 -0.107299 0)
(-0.0954511 -0.1272 0)
(-0.0756809 -0.139922 0)
(-0.048803 -0.136205 0)
(-0.0196685 -0.105641 0)
(-0.0027707 -0.0430623 0)
(-0.00184231 0.0348469 0)
(-0.0101213 0.0791022 0)
(-0.0236835 0.100919 0)
(-0.0374107 0.107398 0)
(-0.0497858 0.105098 0)
(-0.0604097 0.0984736 0)
(-0.0692761 0.0900161 0)
(-0.0765667 0.0809509 0)
(-0.082524 0.0718408 0)
(-0.0873978 0.0629382 0)
(-0.0914279 0.0543495 0)
(-0.0948373 0.0461007 0)
(-0.0978286 0.0381643 0)
(-0.100585 0.0304704 0)
(-0.10327 0.022911 0)
(-0.106032 0.0153379 0)
(-0.109002 0.00755529 0)
(-0.112289 -0.000695736 0)
(-0.115979 -0.00976092 0)
(-0.1201 -0.0201006 0)
(-0.124569 -0.0323425 0)
(-0.129081 -0.047287 0)
(-0.13293 -0.0658256 0)
(-0.134748 -0.0886228 0)
(-0.132268 -0.115336 0)
(-0.122379 -0.143177 0)
(-0.101886 -0.164932 0)
(-0.0694204 -0.167541 0)
(-0.029966 -0.134281 0)
(-0.00475346 -0.0555505 0)
(-0.0025427 0.0411056 0)
(-0.0130084 0.0918873 0)
(-0.029309 0.115491 0)
(-0.0450176 0.12117 0)
(-0.0585255 0.117056 0)
(-0.0696168 0.10843 0)
(-0.0784736 0.098126 0)
(-0.0854307 0.0874805 0)
(-0.0908502 0.0770798 0)
(-0.095075 0.0671682 0)
(-0.0984175 0.0578321 0)
(-0.101157 0.0490738 0)
(-0.10354 0.0408418 0)
(-0.105785 0.0330449 0)
(-0.10809 0.0255572 0)
(-0.110636 0.0182165 0)
(-0.113599 0.0108155 0)
(-0.11715 0.00307931 0)
(-0.121452 -0.00536983 0)
(-0.126662 -0.0150545 0)
(-0.132878 -0.0267502 0)
(-0.140011 -0.0415782 0)
(-0.14756 -0.0610091 0)
(-0.154208 -0.0866344 0)
(-0.157298 -0.119306 0)
(-0.152484 -0.157171 0)
(-0.134188 -0.192328 0)
(-0.0978116 -0.207151 0)
(-0.0466397 -0.174843 0)
(-0.00879112 -0.0754106 0)
(-0.00377873 0.049446 0)
(-0.0173872 0.107752 0)
(-0.0370222 0.132552 0)
(-0.0546698 0.136442 0)
(-0.0688402 0.129645 0)
(-0.0797153 0.118379 0)
(-0.0877902 0.105794 0)
(-0.0936213 0.0932912 0)
(-0.0977317 0.0814439 0)
(-0.100581 0.0704591 0)
(-0.102564 0.0603806 0)
(-0.104018 0.0511693 0)
(-0.105228 0.0427371 0)
(-0.106437 0.0349635 0)
(-0.107861 0.0277027 0)
(-0.109698 0.0207833 0)
(-0.112147 0.0139989 0)
(-0.11542 0.00708507 0)
(-0.119738 -0.000327744 0)
(-0.125368 -0.00880457 0)
(-0.132608 -0.0191625 0)
(-0.141669 -0.0328067 0)
(-0.152444 -0.0518208 0)
(-0.164044 -0.0789666 0)
(-0.173976 -0.116922 0)
(-0.177195 -0.165921 0)
(-0.165776 -0.218769 0)
(-0.130754 -0.253722 0)
(-0.0709253 -0.230382 0)
(-0.0163866 -0.107505 0)
(-0.00607972 0.0611715 0)
(-0.0242215 0.127665 0)
(-0.0474536 0.152187 0)
(-0.0662018 0.152651 0)
(-0.0796002 0.141947 0)
(-0.0886066 0.127251 0)
(-0.0942242 0.111907 0)
(-0.0973309 0.0972971 0)
(-0.0986638 0.0839126 0)
(-0.0988224 0.0718754 0)
(-0.0982862 0.0611491 0)
(-0.0974354 0.0516243 0)
(-0.0965701 0.0431557 0)
(-0.0959311 0.0355806 0)
(-0.0957191 0.0287269 0)
(-0.0961143 0.022414 0)
(-0.0972961 0.0164448 0)
(-0.0994671 0.0105848 0)
(-0.10288 0.00451423 0)
(-0.107799 -0.00227682 0)
(-0.114643 -0.0106664 0)
(-0.123923 -0.022098 0)
(-0.136009 -0.0391422 0)
(-0.150825 -0.0657172 0)
(-0.16695 -0.106672 0)
(-0.180034 -0.165538 0)
(-0.181134 -0.238068 0)
(-0.157097 -0.301099 0)
(-0.099693 -0.300026 0)
(-0.0286069 -0.157638 0)
(-0.0105035 0.0787122 0)
(-0.0350024 0.152516 0)
(-0.0606099 0.173493 0)
(-0.0774377 0.167883 0)
(-0.0863981 0.151641 0)
(-0.0898698 0.132656 0)
(-0.0896531 0.114184 0)
(-0.0870605 0.0974182 0)
(-0.0830763 0.0826506 0)
(-0.0784176 0.0698291 0)
(-0.0735982 0.0587754 0)
(-0.0689802 0.0492683 0)
(-0.0648161 0.0410783 0)
(-0.0612829 0.0339847 0)
(-0.0585107 0.0277807 0)
(-0.0566058 0.0222727 0)
(-0.0556723 0.0172727 0)
(-0.055834 0.0125782 0)
(-0.0572593 0.00793373 0)
(-0.0602219 0.0029458 0)
(-0.0650548 -0.00316749 0)
(-0.0723021 -0.0117819 0)
(-0.0827868 -0.025544 0)
(-0.0973507 -0.0490288 0)
(-0.11654 -0.0888171 0)
(-0.138718 -0.152417 0)
(-0.156803 -0.241087 0)
(-0.155847 -0.335918 0)
(-0.120585 -0.373559 0)
(-0.0431201 -0.230001 0)
(-0.0190118 0.106399 0)
(-0.0514772 0.18167 0)
(-0.0732382 0.19282 0)
(-0.0797711 0.177218 0)
(-0.076174 0.153643 0)
(-0.0671081 0.129948 0)
(-0.0553571 0.108607 0)
(-0.0425713 0.0903194 0)
(-0.0298211 0.0749556 0)
(-0.0177388 0.0621594 0)
(-0.00667996 0.0515382 0)
(0.00317415 0.0427214 0)
(0.0117516 0.0353796 0)
(0.0190437 0.0292295 0)
(0.0250734 0.0240304 0)
(0.0298728 0.019578 0)
(0.0334669 0.0156926 0)
(0.0358577 0.0122003 0)
(0.0370055 0.00889855 0)
(0.0367962 0.00548632 0)
(0.034989 0.00144158 0)
(0.0311307 -0.0043914 0)
(0.0243557 -0.0142589 0)
(0.013292 -0.0324189 0)
(-0.00477394 -0.0660793 0)
(-0.0323539 -0.125185 0)
(-0.0678852 -0.218132 0)
(-0.0994842 -0.338197 0)
(-0.111102 -0.427425 0)
(-0.0503436 -0.321994 0)
(-0.0334986 0.149393 0)
(-0.070663 0.206686 0)
(-0.0672155 0.198104 0)
(-0.0451343 0.168689 0)
(-0.0152536 0.137821 0)
(0.0158806 0.11106 0)
(0.0454074 0.0891801 0)
(0.0723296 0.0716656 0)
(0.0961568 0.0577487 0)
(0.116884 0.0467088 0)
(0.134702 0.0379387 0)
(0.149878 0.0309452 0)
(0.1627 0.0253349 0)
(0.173448 0.0207976 0)
(0.182371 0.0170902 0)
(0.189683 0.0140214 0)
(0.195561 0.0114356 0)
(0.200137 0.009194 0)
(0.203493 0.00714619 0)
(0.205645 0.00508003 0)
(0.206476 0.00262695 0)
(0.205619 -0.000949888 0)
(0.202276 -0.00714086 0)
(0.194737 -0.0189682 0)
(0.179447 -0.0422109 0)
(0.150941 -0.0861329 0)
(0.102805 -0.16405 0)
(0.0382359 -0.287785 0)
(-0.0449842 -0.427333 0)
(-0.0318944 -0.407982 0)
(-0.0365675 0.2387 0)
(-0.0428225 0.208825 0)
(0.0354684 0.157337 0)
(0.107011 0.118664 0)
(0.171667 0.088924 0)
(0.226847 0.066563 0)
(0.272558 0.0502633 0)
(0.310054 0.0383592 0)
(0.340692 0.0295862 0)
(0.365709 0.0230621 0)
(0.386155 0.0181702 0)
(0.402893 0.0144684 0)
(0.416623 0.0116363 0)
(0.427904 0.00944163 0)
(0.437179 0.00771608 0)
(0.444794 0.00633667 0)
(0.451019 0.00521001 0)
(0.456053 0.0042574 0)
(0.460025 0.00339674 0)
(0.462985 0.00251401 0)
(0.464831 0.00141391 0)
(0.465258 -0.000271201 0)
(0.463454 -0.00323504 0)
(0.457664 -0.00901669 0)
(0.44404 -0.0204339 0)
(0.416657 -0.0430113 0)
(0.362996 -0.0872372 0)
(0.277539 -0.178614 0)
(0.11184 -0.332107 0)
(0.0508866 -0.411255 0)
(0.231704 0.158806 0)
(0.29393 0.11875 0)
(0.446322 0.077402 0)
(0.546878 0.051582 0)
(0.613989 0.0345385 0)
(0.661751 0.0230521 0)
(0.696564 0.0154687 0)
(0.722184 0.010509 0)
(0.741278 0.00725345 0)
(0.755738 0.00510018 0)
(0.766864 0.00366513 0)
(0.775553 0.00269986 0)
(0.782434 0.00204186 0)
(0.787954 0.0015849 0)
(0.792431 0.0012599 0)
(0.796091 0.00102177 0)
(0.799097 0.000840073 0)
(0.801562 0.000691799 0)
(0.803548 0.000554492 0)
(0.805066 0.0003988 0)
(0.806021 0.000177766 0)
(0.806173 -0.00019424 0)
(0.80484 -0.000881257 0)
(0.800824 -0.00229129 0)
(0.791019 -0.00506532 0)
(0.771864 -0.01073 0)
(0.728596 -0.0218459 0)
(0.658393 -0.0470827 0)
(0.4577 -0.111045 0)
(0.314253 -0.179868 0)
)
;

boundaryField
{
    movingWall
    {
        type            fixedValue;
        value           uniform (1 0 0);
    }
    fixedWalls
    {
        type            noSlip;
    }
    frontAndBack
    {
        type            empty;
    }
}


// ************************************************************************* //
