/*--------------------------------*- C++ -*----------------------------------*\
  =========                 |
  \\      /  F ield         | OpenFOAM: The Open Source CFD Toolbox
   \\    /   O peration     | Website:  https://openfoam.org
    \\  /    A nd           | Version:  7
     \\/     M anipulation  |
\*---------------------------------------------------------------------------*/
FoamFile
{
    version     2.0;
    format      ascii;
    class       volScalarField;
    location    "5.2";
    object      p;
}
// * * * * * * * * * * * * * * * * * * * * * * * * * * * * * * * * * * * * * //

dimensions      [0 2 -2 0 0 0 0];

internalField   nonuniform List<scalar> 
900
(
1.06694e-08
-0.00012234
-0.000258742
-0.000369396
-0.000425486
-0.000411825
-0.000323184
-0.000159169
7.87247e-05
0.000388345
0.000767152
0.00121192
0.00171808
0.00227896
0.00288496
0.00352296
0.00417601
0.00482342
0.00544153
0.00600519
0.00648979
0.00687386
0.00714191
0.00728705
0.00731299
0.00723522
0.00708147
0.00689068
0.00671111
0.00660676
0.000120642
-3.54044e-06
-9.77106e-05
-0.000162244
-0.000181289
-0.000142909
-4.20642e-05
0.000122901
0.000352065
0.000644538
0.000998582
0.00141139
0.00187863
0.00239388
0.00294804
0.00352895
0.00412113
0.00470633
0.0052638
0.00577187
0.00620979
0.00655993
0.00681022
0.00695625
0.00700272
0.00696383
0.00686279
0.00673081
0.00660249
0.00650106
0.000261716
8.70911e-05
-9.26811e-06
-6.26855e-05
-6.95637e-05
-2.17158e-05
8.38986e-05
0.000248229
0.000471497
0.000753321
0.00109259
0.00148717
0.00193339
0.0024255
0.00295513
0.00351085
0.00407849
0.00464008
0.00517582
0.00566479
0.00608686
0.00642492
0.00666733
0.00681002
0.00685771
0.00682396
0.00673024
0.00660486
0.00647251
0.00632774
0.000379502
0.000144536
3.15418e-05
-2.39061e-05
-2.8369e-05
2.2505e-05
0.000129188
0.000291318
0.000508836
0.000781689
0.00110944
0.00149081
0.00192308
0.00240149
0.00291861
0.00346384
0.00402328
0.00457939
0.00511208
0.00559977
0.00602128
0.00635832
0.00659818
0.00673603
0.0067763
0.00673239
0.00662563
0.00648407
0.00632693
0.00612984
0.000437657
0.00014423
1.08806e-05
-5.21372e-05
-5.93985e-05
-9.66439e-06
9.51711e-05
0.000253451
0.000464817
0.000729564
0.00104802
0.00141993
0.00184374
0.00231587
0.00282995
0.00337614
0.00394083
0.00450632
0.00505144
0.00555286
0.00598706
0.00633319
0.00657617
0.00670961
0.00673738
0.00667339
0.00654041
0.00636874
0.0061767
0.00592702
0.000409587
6.28168e-05
-9.18627e-05
-0.000165578
-0.000179209
-0.000133892
-3.34542e-05
0.000119406
0.000324169
0.000581597
0.000892921
0.00125908
0.00167988
0.00215312
0.00267364
0.00323246
0.00381616
0.00440643
0.00498038
0.00551188
0.00597373
0.00634101
0.00659486
0.00672623
0.00673813
0.00664565
0.00647469
0.00626056
0.00602479
0.0057227
0.000276781
-0.000117592
-0.000293138
-0.000379063
-0.000401321
-0.000362858
-0.00026899
-0.000123138
7.42386e-05
0.000324541
0.00063008
0.000993189
0.00141528
0.00189578
0.00243102
0.00301308
0.00362879
0.00425911
0.00487888
0.00545824
0.00596494
0.00636822
0.00664362
0.00677794
0.00677265
0.00664447
0.0064242
0.00615502
0.00586542
0.00550738
2.52952e-05
-0.000411695
-0.000607158
-0.000705983
-0.000738412
-0.000708824
-0.000623666
-0.000486793
-0.000298382
-5.61983e-05
0.000243342
0.000604205
0.00102969
0.00152126
0.00207715
0.00269095
0.00335005
0.00403506
0.00471823
0.00536525
0.00593736
0.00639587
0.00670826
0.00685487
0.00683413
0.00666438
0.00638295
0.00604409
0.00568683
0.00526155
-0.000356285
-0.00083217
-0.00104678
-0.00115908
-0.00120315
-0.0011846
-0.00111077
-0.000985764
-0.000809299
-0.000578153
-0.000287288
6.91392e-05
0.000496671
0.000999271
0.0015778
0.00222811
0.00293887
0.00369144
0.00445564
0.00519245
0.00585528
0.00639499
0.00676755
0.00694316
0.00691431
0.00669976
0.00634467
0.00591801
0.00547326
0.0049585
-0.000877846
-0.00139016
-0.0016236
-0.00175025
-0.00180783
-0.00180308
-0.00174421
-0.00163545
-0.00147603
-0.00126168
-0.000985791
-0.000640445
-0.00021751
0.00029008
0.000886688
0.00157155
0.00233591
0.00316464
0.00402562
0.00487586
0.00566026
0.00631658
0.00678464
0.00701863
0.00699959
0.00674333
0.00630295
0.00576641
0.00520648
0.00456569
-0.00154822
-0.0020956
-0.00234811
-0.0024905
-0.00256407
-0.00257686
-0.00253796
-0.0024519
-0.00231748
-0.00212947
-0.00187978
-0.00155836
-0.00115424
-0.000656732
-5.69802e-05
0.000649368
0.00145851
0.00236205
0.00332879
0.00431431
0.00525591
0.00607612
0.00669284
0.00703547
0.00706371
0.00678264
0.00625078
0.00557956
0.00486747
0.00404603
-0.0023754
-0.00295738
-0.00322977
-0.00338984
-0.00348264
-0.00351776
-0.00350551
-0.00345096
-0.00335286
-0.00320538
-0.00299925
-0.0027226
-0.00236171
-0.00190196
-0.00132911
-0.000630884
0.000199942
0.00115379
0.00221891
0.00335216
0.00448684
0.00553039
0.00637291
0.00690663
0.0070535
0.00679221
0.00617807
0.00534916
0.0044385
0.0033594
-0.00336646
-0.00398346
-0.00427701
-0.00445712
-0.00457297
-0.00463616
-0.00465871
-0.00464686
-0.00459991
-0.00451215
-0.00437395
-0.00417242
-0.0038918
-0.00351389
-0.00301863
-0.002385
-0.00159402
-0.0006371
0.000491416
0.0017617
0.00311437
0.00444766
0.00562046
0.00647293
0.00686403
0.00671749
0.00606458
0.00506771
0.0039054
0.0024649
-0.00452755
-0.00518093
-0.00549724
-0.00569985
-0.00584265
-0.00593995
-0.00600636
-0.0060501
-0.00607209
-0.00606789
-0.0060289
-0.0059428
-0.00579347
-0.00556062
-0.00521913
-0.00473847
-0.00408311
-0.00321717
-0.00211482
-0.000764315
0.000799189
0.00247981
0.00410963
0.00546291
0.00630175
0.00644765
0.00586559
0.00472529
0.00326035
0.00132435
-0.00586378
-0.00655621
-0.00689696
-0.00712401
-0.00729682
-0.00743346
-0.00755227
-0.00766479
-0.00777488
-0.0078811
-0.00797794
-0.00805616
-0.00810224
-0.00809694
-0.00801276
-0.00781077
-0.00743718
-0.00682332
-0.00589814
-0.00459394
-0.00288849
-0.000841094
0.00137303
0.00345836
0.00504318
0.00577906
0.00548884
0.00430267
0.00250586
-9.12049e-05
-0.00737944
-0.00811555
-0.00848213
-0.008734
-0.00893753
-0.00911604
-0.00929319
-0.00948544
-0.0097014
-0.00994469
-0.0102156
-0.0105114
-0.0108254
-0.0111443
-0.0114433
-0.0116789
-0.01178
-0.0116412
-0.0111249
-0.0100847
-0.00839906
-0.00604477
-0.00316276
-9.92019e-05
0.00261553
0.0043832
0.00476766
0.00376217
0.00166224
-0.00178829
-0.0090787
-0.00986616
-0.0102591
-0.010533
-0.0107634
-0.0109809
-0.0112166
-0.0114937
-0.0118277
-0.0122296
-0.0127084
-0.0132718
-0.0139253
-0.0146677
-0.0154839
-0.0163322
-0.0171283
-0.0177287
-0.0179207
-0.017442
-0.0160483
-0.0135664
-0.0100383
-0.00580767
-0.00155264
0.0018135
0.00344852
0.00304205
0.000782421
-0.00372522
-0.0109671
-0.0118182
-0.012236
-0.0125237
-0.0127694
-0.013014
-0.0132986
-0.0136556
-0.0141089
-0.0146793
-0.0153873
-0.0162551
-0.017305
-0.0185545
-0.020006
-0.0216278
-0.023329
-0.0249311
-0.0261418
-0.0265589
-0.0258149
-0.0235065
-0.0195062
-0.0140703
-0.00795533
-0.00239501
0.00122963
0.00207079
-1.98499e-05
-0.00576437
-0.0130543
-0.0139883
-0.0144258
-0.0147101
-0.0149475
-0.0151937
-0.0155032
-0.0159196
-0.0164772
-0.0172077
-0.0181454
-0.0193293
-0.0208025
-0.0226063
-0.0247665
-0.0272684
-0.0300221
-0.0328205
-0.0353077
-0.0369738
-0.0371878
-0.0354073
-0.0312507
-0.0247813
-0.016708
-0.00849466
-0.0021063
0.000832319
-0.000519564
-0.007593
-0.0153594
-0.0164056
-0.0168506
-0.0170994
-0.0172871
-0.0174904
-0.0177815
-0.0182171
-0.0188425
-0.0197011
-0.0208411
-0.0223193
-0.0242009
-0.0265525
-0.0294255
-0.0328259
-0.0366694
-0.0407289
-0.0445918
-0.0476446
-0.0490835
-0.0481556
-0.04422
-0.0370751
-0.0272366
-0.0162131
-0.00645019
-0.000491676
-0.000298163
-0.00860275
-0.0179203
-0.019121
-0.0195476
-0.0197056
-0.0197762
-0.019867
-0.0200726
-0.0204642
-0.0210975
-0.0220263
-0.0233116
-0.0250264
-0.0272561
-0.0300901
-0.0336029
-0.0378188
-0.0426597
-0.0478843
-0.0530355
-0.0574183
-0.0601186
-0.0601874
-0.0567566
-0.0493369
-0.0381421
-0.0245019
-0.0110853
-0.00130338
0.00137878
-0.00772468
-0.0208105
-0.022223
-0.0225788
-0.0225522
-0.0224016
-0.0222788
-0.0223053
-0.0225662
-0.0231255
-0.0240442
-0.0253926
-0.0272566
-0.0297369
-0.0329401
-0.0369566
-0.0418207
-0.0474558
-0.0536072
-0.0597843
-0.0652386
-0.0689938
-0.0699321
-0.067043
-0.0595793
-0.0474229
-0.031551
-0.0145302
-0.000375102
0.00572112
-0.00323607
-0.0241742
-0.0258628
-0.0260416
-0.0256745
-0.0251473
-0.0246718
-0.0243985
-0.0244225
-0.0248103
-0.025625
-0.0269414
-0.0288526
-0.0314684
-0.0349046
-0.0392566
-0.044558
-0.0507249
-0.0574843
-0.0643189
-0.0704396
-0.0748192
-0.076269
-0.0736533
-0.066033
-0.0530077
-0.035148
-0.0146587
0.00422618
0.0145933
0.00742275
-0.0282996
-0.0302961
-0.0300829
-0.0291167
-0.027987
-0.0269774
-0.0262602
-0.0259298
-0.0260453
-0.0266637
-0.0278569
-0.0297198
-0.0323633
-0.0359029
-0.0404284
-0.0459597
-0.052399
-0.0594413
-0.066541
-0.0728722
-0.0773637
-0.0787792
-0.0758991
-0.0676155
-0.0533233
-0.0332337
-0.00910185
0.0150222
0.0306844
0.0277687
-0.0337799
-0.0359465
-0.0349043
-0.0329168
-0.0308663
-0.0290977
-0.0277782
-0.0269787
-0.0267344
-0.0270846
-0.0280877
-0.0298357
-0.0324299
-0.0359766
-0.0405506
-0.0461484
-0.0526352
-0.0596767
-0.066686
-0.072796
-0.0768865
-0.0776599
-0.0737699
-0.0640181
-0.0476045
-0.0244128
0.00416869
0.0348245
0.0575389
0.0621827
-0.041894
-0.0434966
-0.0407298
-0.0370527
-0.0336522
-0.0308617
-0.0287823
-0.0274213
-0.026765
-0.0268202
-0.0276087
-0.0292264
-0.0317459
-0.0352544
-0.0398003
-0.0453475
-0.0517185
-0.058534
-0.0651588
-0.0706745
-0.0738967
-0.0734335
-0.0678001
-0.0556249
-0.0358782
-0.00826676
0.0262699
0.0659409
0.0988885
0.115588
-0.055722
-0.0540342
-0.0477016
-0.0413177
-0.0360155
-0.0319199
-0.0289521
-0.0269945
-0.0259431
-0.0257433
-0.0263892
-0.027924
-0.0304051
-0.033888
-0.0383848
-0.0438172
-0.0499594
-0.0563799
-0.0623906
-0.0670173
-0.0690064
-0.0668367
-0.0588487
-0.0434166
-0.0191829
0.0145834
0.0575711
0.108553
0.156622
0.194915
-0.083102
-0.0687864
-0.0557963
-0.0452092
-0.0373037
-0.0316623
-0.0277879
-0.0253296
-0.024031
-0.0237395
-0.024389
-0.0259743
-0.0285192
-0.0320426
-0.0365174
-0.0418208
-0.0476792
-0.0536103
-0.0588726
-0.0624324
-0.0629814
-0.0588928
-0.0483389
-0.0293085
6.788e-05
0.0413621
0.0952797
0.16193
0.231502
0.314013
-0.135464
-0.0841294
-0.062722
-0.0462827
-0.0353183
-0.0283816
-0.0240944
-0.0216223
-0.0204941
-0.0204539
-0.021378
-0.0232239
-0.0259867
-0.0296589
-0.0341848
-0.0394117
-0.0450358
-0.0505488
-0.0551857
-0.057877
-0.0572208
-0.0515974
-0.0390987
-0.0173063
0.0163367
0.0648784
0.131369
0.220635
0.329041
0.499012
-0.30789
-0.0937601
-0.0453109
-0.0275238
-0.0179912
-0.0132916
-0.0114859
-0.0112078
-0.0118334
-0.0131612
-0.0151495
-0.0178163
-0.0211987
-0.0253184
-0.0301405
-0.0355285
-0.0411953
-0.046654
-0.0511746
-0.0537535
-0.0531022
-0.0475402
-0.0349549
-0.0130512
0.0210978
0.0720367
0.146422
0.261761
0.4373
0.781302
)
;

boundaryField
{
    movingWall
    {
        type            zeroGradient;
    }
    fixedWalls
    {
        type            zeroGradient;
    }
    frontAndBack
    {
        type            empty;
    }
}


// ************************************************************************* //
