/*--------------------------------*- C++ -*----------------------------------*\
  =========                 |
  \\      /  F ield         | OpenFOAM: The Open Source CFD Toolbox
   \\    /   O peration     | Website:  https://openfoam.org
    \\  /    A nd           | Version:  7
     \\/     M anipulation  |
\*---------------------------------------------------------------------------*/
FoamFile
{
    version     2.0;
    format      ascii;
    class       volVectorField;
    location    "5.2";
    object      U;
}
// * * * * * * * * * * * * * * * * * * * * * * * * * * * * * * * * * * * * * //

dimensions      [0 1 -1 0 0 0 0];

internalField   nonuniform List<vector> 
900
(
(6.61913e-05 -6.53628e-05 0)
(3.95488e-05 9.09911e-06 0)
(-0.000269337 9.77033e-05 0)
(-0.000793832 0.000162817 0)
(-0.00147226 0.000202889 0)
(-0.00224628 0.000223458 0)
(-0.00306759 0.000230778 0)
(-0.00390027 0.000229531 0)
(-0.00471772 0.000222466 0)
(-0.00549884 0.000210787 0)
(-0.0062248 0.000194617 0)
(-0.00687686 0.000173411 0)
(-0.00743495 0.000146308 0)
(-0.00787739 0.000112457 0)
(-0.00818137 7.1319e-05 0)
(-0.00832434 2.2962e-05 0)
(-0.00828625 -3.16979e-05 0)
(-0.00805234 -9.07447e-05 0)
(-0.0076164 -0.000151036 0)
(-0.00698398 -0.000208366 0)
(-0.00617494 -0.000257747 0)
(-0.00522484 -0.000293894 0)
(-0.00418461 -0.000311873 0)
(-0.00311816 -0.000307758 0)
(-0.00209801 -0.000279149 0)
(-0.00119946 -0.000225499 0)
(-0.0004927 -0.000148794 0)
(-3.30124e-05 -5.60945e-05 0)
(0.000147985 3.54993e-05 0)
(8.32737e-05 8.26756e-05 0)
(-7.16419e-06 -4.12727e-05 0)
(-0.000371805 0.000369115 0)
(-0.00133507 0.000801652 0)
(-0.00274002 0.00113933 0)
(-0.00447575 0.00136721 0)
(-0.00643028 0.00149837 0)
(-0.00850018 0.0015533 0)
(-0.0106003 0.00155027 0)
(-0.0126617 0.00150195 0)
(-0.0146266 0.00141529 0)
(-0.0164429 0.0012926 0)
(-0.0180601 0.00113307 0)
(-0.0194273 0.000934428 0)
(-0.020492 0.000694536 0)
(-0.0212016 0.000413064 0)
(-0.0215065 9.29189e-05 0)
(-0.021365 -0.000258664 0)
(-0.0207489 -0.000628489 0)
(-0.0196504 -0.000997882 0)
(-0.0180885 -0.00134303 0)
(-0.0161138 -0.00163658 0)
(-0.013811 -0.0018503 0)
(-0.0112974 -0.00195851 0)
(-0.0087172 -0.00194175 0)
(-0.0062314 -0.0017901 0)
(-0.00400382 -0.0015059 0)
(-0.00218322 -0.00110723 0)
(-0.000879652 -0.000634823 0)
(-0.00014229 -0.000164486 0)
(4.15057e-05 0.000146402 0)
(-0.000101612 0.000271592 0)
(-0.000843446 0.00134191 0)
(-0.00245651 0.00236986 0)
(-0.00465361 0.00318161 0)
(-0.00728305 0.00374544 0)
(-0.0102014 0.0040807 0)
(-0.0132714 0.00422469 0)
(-0.0163753 0.00421424 0)
(-0.0194144 0.00407725 0)
(-0.0223033 0.00383065 0)
(-0.0249642 0.00348167 0)
(-0.0273225 0.00303072 0)
(-0.0293036 0.00247494 0)
(-0.0308329 0.00181212 0)
(-0.0318368 0.00104452 0)
(-0.032248 0.000182419 0)
(-0.0320103 -0.000752921 0)
(-0.0310876 -0.00172683 0)
(-0.029473 -0.00269136 0)
(-0.0271959 -0.00358669 0)
(-0.0243295 -0.00434512 0)
(-0.020993 -0.00489767 0)
(-0.0173501 -0.00518238 0)
(-0.0136006 -0.00515355 0)
(-0.00996571 -0.0047903 0)
(-0.00666906 -0.00410399 0)
(-0.0039114 -0.00314541 0)
(-0.00183791 -0.00201413 0)
(-0.000520896 -0.000872706 0)
(-2.80805e-05 -3.81105e-06 0)
(-0.000182012 0.000835446 0)
(-0.00127023 0.00283305 0)
(-0.00348704 0.00461278 0)
(-0.00639913 0.00599805 0)
(-0.00980831 0.00696054 0)
(-0.0135443 0.00753377 0)
(-0.0174455 0.00777494 0)
(-0.0213725 0.00774104 0)
(-0.0252066 0.00747646 0)
(-0.0288433 0.00700932 0)
(-0.0321869 0.00635277 0)
(-0.0351448 0.00550927 0)
(-0.0376252 0.00447624 0)
(-0.0395365 0.0032525 0)
(-0.040789 0.00184466 0)
(-0.0413003 0.000273224 0)
(-0.0410021 -0.00142219 0)
(-0.03985 -0.00318005 0)
(-0.0378341 -0.00491563 0)
(-0.0349891 -0.006524 0)
(-0.0314024 -0.00788713 0)
(-0.0272181 -0.00888509 0)
(-0.0226356 -0.00941071 0)
(-0.0178991 -0.00938582 0)
(-0.0132802 -0.00877672 0)
(-0.0090534 -0.00760688 0)
(-0.00546538 -0.00596693 0)
(-0.00269577 -0.00402316 0)
(-0.000849223 -0.00202674 0)
(-8.30722e-05 -0.000355281 0)
(-0.000245614 0.00161553 0)
(-0.00163488 0.00479341 0)
(-0.00439248 0.00746696 0)
(-0.00794368 0.00950354 0)
(-0.0120414 0.0109044 0)
(-0.0164887 0.0117305 0)
(-0.0211036 0.0120649 0)
(-0.0257315 0.0119875 0)
(-0.0302405 0.0115601 0)
(-0.0345143 0.0108228 0)
(-0.038445 0.0097946 0)
(-0.0419281 0.00848015 0)
(-0.0448588 0.00687703 0)
(-0.0471316 0.00498509 0)
(-0.0486423 0.00281566 0)
(-0.0492932 0.000400459 0)
(-0.0490011 -0.00220088 0)
(-0.0477084 -0.00489597 0)
(-0.0453954 -0.00755778 0)
(-0.0420932 -0.0100288 0)
(-0.0378949 -0.0121312 0)
(-0.032962 -0.0136834 0)
(-0.0275243 -0.0145227 0)
(-0.0218691 -0.0145303 0)
(-0.0163204 -0.0136553 0)
(-0.0112089 -0.0119344 0)
(-0.00683442 -0.00950306 0)
(-0.00341844 -0.00660037 0)
(-0.00110135 -0.00356672 0)
(-0.00011582 -0.000860182 0)
(-0.00029567 0.00257726 0)
(-0.00194253 0.00716812 0)
(-0.00517726 0.0108721 0)
(-0.00929788 0.0136329 0)
(-0.0140098 0.0155057 0)
(-0.0190897 0.0165937 0)
(-0.0243376 0.0170146 0)
(-0.0295874 0.0168753 0)
(-0.0346995 0.0162574 0)
(-0.039551 0.0152127 0)
(-0.0440275 0.0137665 0)
(-0.0480165 0.0119243 0)
(-0.051404 0.00968237 0)
(-0.0540722 0.00703991 0)
(-0.0559018 0.00401125 0)
(-0.0567771 0.000637936 0)
(-0.0565943 -0.00300064 0)
(-0.0552738 -0.00677979 0)
(-0.0527754 -0.010526 0)
(-0.0491149 -0.0140218 0)
(-0.04438 -0.0170183 0)
(-0.0387414 -0.0192583 0)
(-0.0324567 -0.0205082 0)
(-0.0258606 -0.0205946 0)
(-0.019341 -0.0194411 0)
(-0.0133011 -0.0170958 0)
(-0.00811143 -0.0137453 0)
(-0.00404914 -0.00971256 0)
(-0.00129282 -0.00543899 0)
(-0.000129654 -0.00147484 0)
(-0.000336301 0.00369108 0)
(-0.00220529 0.00990323 0)
(-0.0058617 0.0147656 0)
(-0.0104926 0.0183207 0)
(-0.0157598 0.0206976 0)
(-0.0214146 0.0220571 0)
(-0.0272417 0.022561 0)
(-0.0330667 0.0223487 0)
(-0.0387464 0.021524 0)
(-0.0441561 0.0201519 0)
(-0.0491794 0.0182625 0)
(-0.0537003 0.0158603 0)
(-0.0575979 0.0129378 0)
(-0.0607437 0.00948938 0)
(-0.0630019 0.00552822 0)
(-0.0642343 0.00110141 0)
(-0.0643086 -0.00369529 0)
(-0.0631116 -0.0087064 0)
(-0.0605677 -0.0137097 0)
(-0.0566611 -0.01842 0)
(-0.051458 -0.0225042 0)
(-0.0451268 -0.0256101 0)
(-0.037949 -0.0274099 0)
(-0.0303136 -0.0276535 0)
(-0.0226903 -0.0262221 0)
(-0.015582 -0.0231702 0)
(-0.00945867 -0.0187437 0)
(-0.00467607 -0.01337 0)
(-0.0014583 -0.00761972 0)
(-0.000131285 -0.00217012 0)
(-0.000370817 0.00493535 0)
(-0.00243553 0.0129556 0)
(-0.0064699 0.0190958 0)
(-0.0115645 0.0235138 0)
(-0.017342 0.0264294 0)
(-0.0235313 0.0280747 0)
(-0.0299039 0.0286653 0)
(-0.0362806 0.0283798 0)
(-0.0425188 0.0273477 0)
(-0.0484964 0.0256478 0)
(-0.0540999 0.0233142 0)
(-0.0592141 0.0203479 0)
(-0.0637149 0.0167326 0)
(-0.0674642 0.0124526 0)
(-0.0703088 0.00751218 0)
(-0.0720831 0.00195626 0)
(-0.0726175 -0.00411058 0)
(-0.0717506 -0.0105078 0)
(-0.0693521 -0.0169649 0)
(-0.0653518 -0.0231229 0)
(-0.0597714 -0.0285485 0)
(-0.0527578 -0.0327684 0)
(-0.0446068 -0.0353272 0)
(-0.035767 -0.0358618 0)
(-0.0268131 -0.0341821 0)
(-0.018385 -0.0303364 0)
(-0.0110967 -0.0246402 0)
(-0.00541973 -0.0176579 0)
(-0.00164225 -0.0101363 0)
(-0.00012756 -0.0029383 0)
(-0.000401467 0.00629529 0)
(-0.00264341 0.0162936 0)
(-0.00702384 0.0238245 0)
(-0.0125478 0.0291734 0)
(-0.0188031 0.0326657 0)
(-0.0254993 0.0346172 0)
(-0.0323978 0.0353081 0)
(-0.0393183 0.0349627 0)
(-0.046123 0.0337403 0)
(-0.0526977 0.0317349 0)
(-0.0589372 0.0289836 0)
(-0.0647324 0.0254807 0)
(-0.0699606 0.0211954 0)
(-0.0744777 0.0160935 0)
(-0.078113 0.0101602 0)
(-0.0806702 0.00342548 0)
(-0.0819328 -0.00401009 0)
(-0.0816753 -0.0119526 0)
(-0.0796882 -0.0200893 0)
(-0.075817 -0.0279842 0)
(-0.0700057 -0.0350867 0)
(-0.0623483 -0.0407699 0)
(-0.0531346 -0.0444029 0)
(-0.0428716 -0.0454546 0)
(-0.0322628 -0.0436144 0)
(-0.0221348 -0.0388975 0)
(-0.0133095 -0.0316976 0)
(-0.00643398 -0.0227615 0)
(-0.00189865 -0.0130838 0)
(-0.000125431 -0.00379763 0)
(-0.000429674 0.00776111 0)
(-0.00283655 0.0198954 0)
(-0.00754121 0.0289243 0)
(-0.0134705 0.0352719 0)
(-0.0201808 0.0393819 0)
(-0.027365 0.0416668 0)
(-0.0347779 0.0424812 0)
(-0.042242 0.0421034 0)
(-0.0496292 0.0407268 0)
(-0.0568391 0.0384632 0)
(-0.0637813 0.0353518 0)
(-0.0703601 0.0313765 0)
(-0.0764612 0.0264857 0)
(-0.0819396 0.0206163 0)
(-0.086611 0.0137202 0)
(-0.0902465 0.00579477 0)
(-0.0925759 -0.00308361 0)
(-0.093292 -0.0127263 0)
(-0.0920783 -0.0227941 0)
(-0.088659 -0.0327775 0)
(-0.0828544 -0.0419942 0)
(-0.0746595 -0.0496248 0)
(-0.0643204 -0.0547991 0)
(-0.0523867 -0.0567376 0)
(-0.0397095 -0.0549293 0)
(-0.0273599 -0.049303 0)
(-0.0164564 -0.0403291 0)
(-0.00791416 -0.0289945 0)
(-0.00229478 -0.016643 0)
(-0.00013286 -0.00479741 0)
(-0.000456291 0.00932654 0)
(-0.00302036 0.0237468 0)
(-0.00803524 0.034377 0)
(-0.0143534 0.04179 0)
(-0.021502 0.0465607 0)
(-0.0291595 0.049211 0)
(-0.0370768 0.050181 0)
(-0.0450838 0.0498113 0)
(-0.0530674 0.048336 0)
(-0.0609477 0.0458869 0)
(-0.0686571 0.0425063 0)
(-0.0761222 0.0381645 0)
(-0.0832464 0.0327819 0)
(-0.0898936 0.0262547 0)
(-0.0958726 0.0184838 0)
(-0.100925 0.00940981 0)
(-0.104721 -0.000943893 0)
(-0.106858 -0.0124178 0)
(-0.106885 -0.0246814 0)
(-0.104361 -0.0371649 0)
(-0.0989263 -0.0490463 0)
(-0.0904139 -0.0592731 0)
(-0.0789658 -0.0666581 0)
(-0.0651344 -0.0700618 0)
(-0.0499188 -0.0686494 0)
(-0.0346917 -0.0621661 0)
(-0.0209809 -0.0511297 0)
(-0.0101059 -0.0368321 0)
(-0.00291545 -0.0211041 0)
(-0.000159696 -0.00602561 0)
(-0.000481805 0.0109876 0)
(-0.00319865 0.0278392 0)
(-0.00851557 0.0401707 0)
(-0.0152114 0.0487139 0)
(-0.0227841 0.0541878 0)
(-0.0308987 0.0572372 0)
(-0.0393056 0.0584003 0)
(-0.0478454 0.0580898 0)
(-0.0564259 0.0565876 0)
(-0.0649949 0.0540508 0)
(-0.0735166 0.0505256 0)
(-0.0819505 0.0459671 0)
(-0.0902299 0.0402615 0)
(-0.0982402 0.0332516 0)
(-0.105795 0.0247671 0)
(-0.112615 0.0146634 0)
(-0.118305 0.00287342 0)
(-0.122366 -0.010523 0)
(-0.124191 -0.0252384 0)
(-0.123125 -0.0406755 0)
(-0.118571 -0.0558794 0)
(-0.110121 -0.0695313 0)
(-0.0977308 -0.0800404 0)
(-0.0818792 -0.0857666 0)
(-0.0636764 -0.0853741 0)
(-0.0448314 -0.0782577 0)
(-0.0274053 -0.0648977 0)
(-0.0133096 -0.046943 0)
(-0.00386644 -0.0268928 0)
(-0.000218342 -0.0076189 0)
(-0.000506564 0.0127421 0)
(-0.00337459 0.0321679 0)
(-0.00899012 0.0462981 0)
(-0.0160554 0.056032 0)
(-0.0240372 0.0622473 0)
(-0.0325872 0.0657269 0)
(-0.0414564 0.0671208 0)
(-0.0505002 0.0669256 0)
(-0.0596525 0.06548 0)
(-0.0688956 0.0629725 0)
(-0.0782346 0.0594574 0)
(-0.0876731 0.0548744 0)
(-0.0971876 0.0490702 0)
(-0.1067 0.041822 0)
(-0.116043 0.0328667 0)
(-0.124931 0.0219412 0)
(-0.13292 0.00884173 0)
(-0.139405 -0.00649388 0)
(-0.143611 -0.0238669 0)
(-0.144645 -0.0427112 0)
(-0.141619 -0.0619665 0)
(-0.133809 -0.0800322 0)
(-0.120876 -0.0948354 0)
(-0.10311 -0.104077 0)
(-0.0816329 -0.10569 0)
(-0.0584638 -0.0984555 0)
(-0.0363004 -0.0826288 0)
(-0.0178783 -0.0602147 0)
(-0.00527707 -0.0345983 0)
(-0.000324482 -0.00977409 0)
(-0.000531044 0.0145894 0)
(-0.00355201 0.0367326 0)
(-0.00946786 0.052755 0)
(-0.0168969 0.0637329 0)
(-0.0252699 0.0707183 0)
(-0.0342232 0.0746496 0)
(-0.0435089 0.0763047 0)
(-0.0529998 0.0762776 0)
(-0.0626596 0.0749744 0)
(-0.0725112 0.0726236 0)
(-0.0826082 0.0692931 0)
(-0.093008 0.0649097 0)
(-0.103743 0.0592778 0)
(-0.114785 0.0520982 0)
(-0.126008 0.0429933 0)
(-0.137133 0.0315461 0)
(-0.147691 0.0173654 0)
(-0.156982 0.000190476 0)
(-0.164074 -0.0199524 0)
(-0.167843 -0.0425933 0)
(-0.167079 -0.0666218 0)
(-0.160682 -0.0901746 0)
(-0.147916 -0.110651 0)
(-0.128722 -0.12495 0)
(-0.104053 -0.130005 0)
(-0.076101 -0.123616 0)
(-0.0482184 -0.105458 0)
(-0.0242053 -0.0777548 0)
(-0.00730309 -0.0449973 0)
(-0.000498583 -0.0127614 0)
(-0.000556208 0.0165311 0)
(-0.00373715 0.0415382 0)
(-0.00996266 0.0595418 0)
(-0.0177531 0.0718045 0)
(-0.0264954 0.0795717 0)
(-0.0358065 0.0839578 0)
(-0.0454385 0.0858868 0)
(-0.0552822 0.0860654 0)
(-0.0653339 0.0849795 0)
(-0.0756598 0.0829072 0)
(-0.086366 0.0799376 0)
(-0.0975696 0.0759894 0)
(-0.109367 0.0708244 0)
(-0.121794 0.06406 0)
(-0.134775 0.0551854 0)
(-0.148071 0.043598 0)
(-0.161207 0.0286728 0)
(-0.173432 0.009887 0)
(-0.183696 -0.012992 0)
(-0.190678 -0.0396648 0)
(-0.19288 -0.0690547 0)
(-0.188813 -0.0991045 0)
(-0.177261 -0.126706 0)
(-0.157644 -0.147878 0)
(-0.130477 -0.158304 0)
(-0.097837 -0.154345 0)
(-0.063569 -0.134511 0)
(-0.032693 -0.100848 0)
(-0.01013 -0.0590694 0)
(-0.000769067 -0.0169399 0)
(-0.000583999 0.0185733 0)
(-0.00394108 0.0465982 0)
(-0.0104983 0.0666654 0)
(-0.0186547 0.0802351 0)
(-0.0277412 0.0887694 0)
(-0.0373489 0.0935831 0)
(-0.0472279 0.095768 0)
(-0.057286 0.0961597 0)
(-0.0675516 0.0953366 0)
(-0.0781333 0.093637 0)
(-0.0891886 0.0911796 0)
(-0.100894 0.0878811 0)
(-0.113409 0.0834639 0)
(-0.12684 0.0774585 0)
(-0.141176 0.0692101 0)
(-0.156232 0.0579068 0)
(-0.171573 0.042654 0)
(-0.186456 0.0226157 0)
(-0.199784 -0.00276289 0)
(-0.21013 -0.0334463 0)
(-0.215805 -0.0684859 0)
(-0.214992 -0.105763 0)
(-0.205975 -0.141778 0)
(-0.187507 -0.171712 0)
(-0.159351 -0.189855 0)
(-0.123017 -0.190656 0)
(-0.0824129 -0.170641 0)
(-0.0436859 -0.130838 0)
(-0.0139739 -0.0779908 0)
(-0.00117772 -0.0227762 0)
(-0.000618054 0.0207299 0)
(-0.00418294 0.0519413 0)
(-0.011115 0.0741456 0)
(-0.0196544 0.0890163 0)
(-0.0290589 0.0982637 0)
(-0.0388861 0.103434 0)
(-0.0488805 0.10581 0)
(-0.0589656 0.106374 0)
(-0.0691983 0.105809 0)
(-0.0797246 0.104522 0)
(-0.0907454 0.102669 0)
(-0.102487 0.100172 0)
(-0.115167 0.0967195 0)
(-0.128952 0.0917574 0)
(-0.143905 0.0844858 0)
(-0.159914 0.0738776 0)
(-0.176627 0.0587541 0)
(-0.193379 0.0379425 0)
(-0.209143 0.0105298 0)
(-0.222511 -0.0237901 0)
(-0.231768 -0.0643061 0)
(-0.234926 -0.109015 0)
(-0.229842 -0.154252 0)
(-0.214541 -0.19458 0)
(-0.187758 -0.222952 0)
(-0.149883 -0.231569 0)
(-0.104163 -0.214014 0)
(-0.0573359 -0.168884 0)
(-0.0190708 -0.103084 0)
(-0.00178745 -0.0308648 0)
(-0.000664816 0.0230279 0)
(-0.00449459 0.0576212 0)
(-0.0118784 0.0820229 0)
(-0.0208381 0.0981479 0)
(-0.0305364 0.107999 0)
(-0.0404893 0.113393 0)
(-0.0504339 0.115832 0)
(-0.0603075 0.116461 0)
(-0.0701914 0.116077 0)
(-0.0802593 0.115161 0)
(-0.0907426 0.113912 0)
(-0.101901 0.112262 0)
(-0.11399 0.109872 0)
(-0.127229 0.106116 0)
(-0.141746 0.100059 0)
(-0.15752 0.0904767 0)
(-0.174321 0.0759232 0)
(-0.191646 0.0549063 0)
(-0.20866 0.0261611 0)
(-0.224132 -0.0109934 0)
(-0.23653 -0.0562602 0)
(-0.243917 -0.107872 0)
(-0.243911 -0.162334 0)
(-0.233901 -0.213997 0)
(-0.211457 -0.254831 0)
(-0.175357 -0.274771 0)
(-0.127256 -0.2636 0)
(-0.0733856 -0.21555 0)
(-0.0256449 -0.135685 0)
(-0.00269284 -0.0419445 0)
(-0.000735481 0.025517 0)
(-0.00492765 0.0637311 0)
(-0.0128907 0.0903704 0)
(-0.0223381 0.107643 0)
(-0.03231 0.117913 0)
(-0.0422767 0.123319 0)
(-0.0519699 0.125612 0)
(-0.0613431 0.126116 0)
(-0.070498 0.125744 0)
(-0.0796262 0.125054 0)
(-0.0889724 0.124285 0)
(-0.0988084 0.123385 0)
(-0.109408 0.121997 0)
(-0.121021 0.119436 0)
(-0.133832 0.114664 0)
(-0.14792 0.106295 0)
(-0.163212 0.0926694 0)
(-0.179426 0.0720307 0)
(-0.196036 0.0428055 0)
(-0.212215 0.00395038 0)
(-0.226741 -0.0446884 0)
(-0.237936 -0.101809 0)
(-0.243539 -0.164438 0)
(-0.240545 -0.227256 0)
(-0.225469 -0.281908 0)
(-0.195214 -0.316528 0)
(-0.148966 -0.316716 0)
(-0.090906 -0.270245 0)
(-0.033845 -0.176876 0)
(-0.00403399 -0.0569 0)
(-0.000849737 0.0282834 0)
(-0.00556519 0.0704246 0)
(-0.0143085 0.0993084 0)
(-0.0243488 0.117536 0)
(-0.0345756 0.127936 0)
(-0.0444178 0.133039 0)
(-0.0536152 0.134883 0)
(-0.0621471 0.134976 0)
(-0.0701374 0.134348 0)
(-0.0777877 0.133624 0)
(-0.0853413 0.133081 0)
(-0.0930624 0.132678 0)
(-0.101221 0.132052 0)
(-0.110079 0.130485 0)
(-0.119869 0.126872 0)
(-0.130772 0.11973 0)
(-0.142891 0.107262 0)
(-0.15622 0.0875353 0)
(-0.170609 0.0587461 0)
(-0.185711 0.0195534 0)
(-0.200816 -0.0305803 0)
(-0.214757 -0.0910489 0)
(-0.225648 -0.159683 0)
(-0.230503 -0.23208 0)
(-0.225166 -0.300437 0)
(-0.204802 -0.352091 0)
(-0.165611 -0.368899 0)
(-0.108111 -0.330627 0)
(-0.0436521 -0.22706 0)
(-0.0060143 -0.0767396 0)
(-0.00104353 0.0314737 0)
(-0.0065422 0.0779465 0)
(-0.0163672 0.10902 0)
(-0.0271452 0.127877 0)
(-0.0375932 0.137978 0)
(-0.0471251 0.142341 0)
(-0.055521 0.143325 0)
(-0.0628095 0.142628 0)
(-0.0691478 0.14138 0)
(-0.0747476 0.140258 0)
(-0.0798426 0.139564 0)
(-0.0846769 0.139269 0)
(-0.0895026 0.139011 0)
(-0.0945806 0.138066 0)
(-0.100183 0.135315 0)
(-0.10659 0.129247 0)
(-0.11409 0.118026 0)
(-0.122961 0.0996497 0)
(-0.13345 0.0721976 0)
(-0.145711 0.0341248 0)
(-0.159639 -0.0154682 0)
(-0.174727 -0.0766679 0)
(-0.189698 -0.148285 0)
(-0.202033 -0.227314 0)
(-0.20751 -0.307434 0)
(-0.200138 -0.376606 0)
(-0.173206 -0.414382 0)
(-0.122418 -0.392305 0)
(-0.0547574 -0.285399 0)
(-0.00891446 -0.102539 0)
(-0.00138581 0.0353383 0)
(-0.00808324 0.0866739 0)
(-0.0194185 0.11976 0)
(-0.0311004 0.13872 0)
(-0.0416778 0.147904 0)
(-0.0506166 0.150942 0)
(-0.0578 0.150548 0)
(-0.0633504 0.148596 0)
(-0.0674836 0.146291 0)
(-0.0704326 0.144334 0)
(-0.0724244 0.143034 0)
(-0.0736814 0.142367 0)
(-0.0744335 0.141985 0)
(-0.074937 0.141186 0)
(-0.075496 0.138887 0)
(-0.0764829 0.133625 0)
(-0.0783562 0.123618 0)
(-0.0816583 0.1069 0)
(-0.0869948 0.0815449 0)
(-0.0949811 0.0459005 0)
(-0.106117 -0.00121598 0)
(-0.120545 -0.0604415 0)
(-0.137739 -0.131607 0)
(-0.156026 -0.213336 0)
(-0.171801 -0.301509 0)
(-0.178853 -0.386256 0)
(-0.168326 -0.447126 0)
(-0.130806 -0.449122 0)
(-0.0664131 -0.349307 0)
(-0.0130738 -0.135342 0)
(-0.00201504 0.0403104 0)
(-0.0105722 0.097173 0)
(-0.0239834 0.131852 0)
(-0.0366896 0.15007 0)
(-0.0471449 0.157465 0)
(-0.0550066 0.158425 0)
(-0.0603695 0.156034 0)
(-0.0635205 0.152306 0)
(-0.0647757 0.148475 0)
(-0.0644142 0.145227 0)
(-0.0626715 0.142853 0)
(-0.0597581 0.141328 0)
(-0.0558874 0.140319 0)
(-0.0513117 0.139175 0)
(-0.0463602 0.136894 0)
(-0.0414756 0.132125 0)
(-0.0372571 0.123227 0)
(-0.0344595 0.10835 0)
(-0.0339747 0.0856565 0)
(-0.0367906 0.0534788 0)
(-0.0438751 0.0104599 0)
(-0.0559557 -0.0444142 0)
(-0.0733059 -0.111842 0)
(-0.0952583 -0.191977 0)
(-0.119401 -0.283204 0)
(-0.140403 -0.37911 0)
(-0.14864 -0.462017 0)
(-0.13027 -0.494026 0)
(-0.0772605 -0.41418 0)
(-0.0187768 -0.175981 0)
(-0.00321672 0.0471599 0)
(-0.0146768 0.110261 0)
(-0.0308066 0.145623 0)
(-0.0444285 0.16176 0)
(-0.0541305 0.166156 0)
(-0.0600199 0.164104 0)
(-0.0625734 0.159024 0)
(-0.0623422 0.152993 0)
(-0.0598014 0.147199 0)
(-0.055313 0.142263 0)
(-0.0491457 0.138426 0)
(-0.0415149 0.135641 0)
(-0.0326269 0.133597 0)
(-0.0227282 0.131707 0)
(-0.012159 0.129084 0)
(-0.00139385 0.124538 0)
(0.00887554 0.116608 0)
(0.0177552 0.103653 0)
(0.0241721 0.0839824 0)
(0.026881 0.0559966 0)
(0.024587 0.0182717 0)
(0.016109 -0.030458 0)
(0.000474931 -0.0914589 0)
(-0.0226671 -0.165966 0)
(-0.0524194 -0.254685 0)
(-0.085305 -0.355323 0)
(-0.112716 -0.455642 0)
(-0.117966 -0.520028 0)
(-0.0851071 -0.473422 0)
(-0.025953 -0.224663 0)
(-0.00557855 0.0572995 0)
(-0.0215467 0.127041 0)
(-0.040829 0.161194 0)
(-0.0545661 0.173148 0)
(-0.0620319 0.172917 0)
(-0.0642262 0.166755 0)
(-0.0622524 0.158285 0)
(-0.057053 0.149502 0)
(-0.049331 0.141443 0)
(-0.0395711 0.13459 0)
(-0.028097 0.129088 0)
(-0.0151402 0.124848 0)
(-0.000900853 0.121567 0)
(0.0143955 0.118723 0)
(0.0304268 0.115559 0)
(0.0467202 0.111069 0)
(0.0625853 0.104007 0)
(0.0770901 0.0929825 0)
(0.0890726 0.07651 0)
(0.0971592 0.053126 0)
(0.0998453 0.0214404 0)
(0.0955998 -0.019916 0)
(0.0829661 -0.0724766 0)
(0.060707 -0.138056 0)
(0.0281366 -0.218959 0)
(-0.0136869 -0.316733 0)
(-0.0590587 -0.426506 0)
(-0.0906941 -0.520733 0)
(-0.0866087 -0.51855 0)
(-0.0336512 -0.280396 0)
(-0.010268 0.0734353 0)
(-0.0330345 0.14877 0)
(-0.0547071 0.177921 0)
(-0.0658996 0.182476 0)
(-0.0677933 0.175543 0)
(-0.0629649 0.164121 0)
(-0.0534511 0.151713 0)
(-0.0407094 0.139988 0)
(-0.025711 0.129672 0)
(-0.00906747 0.121011 0)
(0.00886118 0.113995 0)
(0.0278526 0.108447 0)
(0.0477403 0.104053 0)
(0.0683582 0.100347 0)
(0.0894537 0.0966924 0)
(0.110625 0.0922712 0)
(0.131257 0.0860818 0)
(0.150481 0.0769884 0)
(0.167161 0.0637589 0)
(0.179905 0.0451353 0)
(0.187098 0.0198637 0)
(0.18697 -0.0133739 0)
(0.177683 -0.0560815 0)
(0.157307 -0.11024 0)
(0.123933 -0.178843 0)
(0.0761694 -0.266173 0)
(0.0153575 -0.374989 0)
(-0.0435687 -0.490686 0)
(-0.0768711 -0.539521 0)
(-0.0394513 -0.340748 0)
(-0.0193544 0.100466 0)
(-0.0513626 0.175629 0)
(-0.0701982 0.192845 0)
(-0.0714914 0.185461 0)
(-0.0607569 0.169581 0)
(-0.0429253 0.152156 0)
(-0.0211237 0.135885 0)
(0.00275263 0.121701 0)
(0.0276086 0.109788 0)
(0.0528643 0.100031 0)
(0.07825 0.0921987 0)
(0.103666 0.0859885 0)
(0.129081 0.0810514 0)
(0.154464 0.0769621 0)
(0.179703 0.0731978 0)
(0.204538 0.0691219 0)
(0.228504 0.0639754 0)
(0.250873 0.0568942 0)
(0.270631 0.0469321 0)
(0.28647 0.0330964 0)
(0.296748 0.014374 0)
(0.299569 -0.0103282 0)
(0.292814 -0.0422525 0)
(0.274029 -0.0831929 0)
(0.240382 -0.136028 0)
(0.188721 -0.20621 0)
(0.116337 -0.302438 0)
(0.0319685 -0.426567 0)
(-0.0485304 -0.526106 0)
(-0.0385014 -0.400296 0)
(-0.0345636 0.144281 0)
(-0.0734493 0.200311 0)
(-0.069511 0.19472 0)
(-0.0441917 0.171036 0)
(-0.00886346 0.145789 0)
(0.0298928 0.123722 0)
(0.0688109 0.105575 0)
(0.106426 0.0909897 0)
(0.142169 0.0793925 0)
(0.175955 0.0702411 0)
(0.207935 0.0630697 0)
(0.238354 0.057471 0)
(0.267471 0.0530718 0)
(0.295491 0.0494983 0)
(0.322511 0.0463479 0)
(0.348468 0.0431673 0)
(0.373082 0.0394415 0)
(0.395807 0.0345954 0)
(0.415797 0.0280033 0)
(0.4319 0.0189984 0)
(0.442563 0.00686204 0)
(0.445952 -0.00911275 0)
(0.439777 -0.0297286 0)
(0.421285 -0.0563217 0)
(0.387021 -0.0911095 0)
(0.333038 -0.139014 0)
(0.253091 -0.210952 0)
(0.149434 -0.325781 0)
(0.0132583 -0.466159 0)
(-0.0177061 -0.441341 0)
(-0.0374891 0.236106 0)
(-0.047351 0.203999 0)
(0.0282306 0.153503 0)
(0.100288 0.117576 0)
(0.167391 0.0908047 0)
(0.227452 0.0710753 0)
(0.28015 0.0567843 0)
(0.326229 0.0463791 0)
(0.366719 0.0386979 0)
(0.40263 0.0329696 0)
(0.434849 0.0286765 0)
(0.464127 0.0254443 0)
(0.491071 0.0229793 0)
(0.51614 0.0210281 0)
(0.539626 0.019349 0)
(0.561631 0.0176938 0)
(0.582034 0.0157965 0)
(0.600462 0.0133725 0)
(0.616248 0.0101239 0)
(0.628415 0.00575311 0)
(0.635654 -4.20802e-05 0)
(0.636495 -0.00755568 0)
(0.628757 -0.0172777 0)
(0.609922 -0.0298159 0)
(0.576325 -0.0462752 0)
(0.524204 -0.0698336 0)
(0.443802 -0.108485 0)
(0.333921 -0.189061 0)
(0.143238 -0.336394 0)
(0.060516 -0.413047 0)
(0.231291 0.15858 0)
(0.291515 0.117159 0)
(0.441171 0.0759842 0)
(0.540128 0.0506499 0)
(0.607198 0.0342958 0)
(0.65664 0.0235057 0)
(0.694591 0.0164812 0)
(0.724403 0.0119231 0)
(0.748418 0.00892968 0)
(0.7683 0.00693422 0)
(0.785195 0.00558889 0)
(0.799907 0.00467243 0)
(0.812998 0.00403573 0)
(0.824856 0.00357041 0)
(0.835707 0.00318936 0)
(0.84563 0.00281479 0)
(0.854551 0.00237152 0)
(0.862233 0.00178464 0)
(0.868271 0.000981372 0)
(0.872101 -0.000100937 0)
(0.872963 -0.00148891 0)
(0.869921 -0.00321686 0)
(0.861737 -0.00548597 0)
(0.847278 -0.00840757 0)
(0.824031 -0.0121693 0)
(0.79025 -0.0177512 0)
(0.734344 -0.0272832 0)
(0.656719 -0.0492723 0)
(0.454422 -0.11022 0)
(0.313236 -0.177563 0)
)
;

boundaryField
{
    movingWall
    {
        type            fixedValue;
        value           uniform (1 0 0);
    }
    fixedWalls
    {
        type            noSlip;
    }
    frontAndBack
    {
        type            empty;
    }
}


// ************************************************************************* //
