/*--------------------------------*- C++ -*----------------------------------*\
  =========                 |
  \\      /  F ield         | OpenFOAM: The Open Source CFD Toolbox
   \\    /   O peration     | Website:  https://openfoam.org
    \\  /    A nd           | Version:  7
     \\/     M anipulation  |
\*---------------------------------------------------------------------------*/
FoamFile
{
    version     2.0;
    format      ascii;
    class       volScalarField;
    location    "6.9";
    object      p;
}
// * * * * * * * * * * * * * * * * * * * * * * * * * * * * * * * * * * * * * //

dimensions      [0 2 -2 0 0 0 0];

internalField   nonuniform List<scalar> 
900
(
1.3962e-08
-0.000137213
-0.00029906
-0.000437001
-0.00051953
-0.000529503
-0.000460787
-0.000312466
-8.5436e-05
0.000218933
0.000598936
0.00105194
0.00157336
0.0021555
0.00278642
0.00344913
0.00412133
0.00477597
0.00538276
0.00591075
0.00633174
0.00662407
0.00677647
0.00679065
0.00668267
0.0064827
0.00623252
0.00597836
0.00578425
0.00570534
0.000135057
-4.71319e-06
-0.000117762
-0.000202744
-0.000241785
-0.000221752
-0.000137084
1.42233e-05
0.000232668
0.000517883
0.000868664
0.00128254
0.00175506
0.00227892
0.0028431
0.00343215
0.00402745
0.00460509
0.00513953
0.005605
0.00597835
0.00624242
0.00638902
0.00642106
0.00635327
0.00621127
0.00602902
0.0058448
0.00569808
0.00562463
0.000303363
0.000103839
-1.18859e-05
-8.36872e-05
-0.000107883
-7.5863e-05
1.53405e-05
0.000166636
0.000378441
0.000650777
0.000983031
0.00137347
0.00181849
0.00231182
0.00284359
0.00340001
0.00396316
0.00451088
0.00501886
0.00546226
0.00581861
0.00607114
0.00621185
0.00624358
0.00618061
0.0060472
0.00587467
0.00569794
0.00554861
0.00543874
0.000450551
0.000179458
4.42445e-05
-2.94639e-05
-5.01065e-05
-1.378e-05
7.92137e-05
0.000227992
0.000432444
0.000692851
0.00100936
0.00138133
0.00180649
0.00228001
0.00279351
0.0033343
0.00388519
0.00442452
0.00492769
0.00536876
0.00572371
0.00597401
0.00611016
0.00613414
0.00606
0.00591217
0.00572217
0.00552518
0.00534844
0.00518703
0.000534274
0.000192117
3.27646e-05
-4.93254e-05
-7.25965e-05
-3.71245e-05
5.37132e-05
0.000197268
0.000392895
0.000641207
0.000943287
0.00129985
0.00171026
0.00217151
0.00267685
0.00321465
0.00376846
0.0043164
0.00483244
0.00528813
0.00565604
0.0059141
0.00604977
0.0060632
0.00596822
0.00579053
0.0055641
0.00532755
0.00510807
0.00488857
0.000520953
0.000112622
-7.22762e-05
-0.000166535
-0.000196882
-0.000166621
-8.17369e-05
5.36541e-05
0.000238558
0.000474075
0.000762421
0.00110591
0.00150587
0.00196133
0.00246728
0.00301317
0.0035857
0.00415979
0.00470752
0.00519674
0.00559497
0.0058745
0.00601777
0.00602169
0.00589945
0.00567893
0.00539878
0.00510448
0.00482767
0.00454313
0.00038536
-8.2706e-05
-0.000292671
-0.000401043
-0.000441546
-0.000420121
-0.000344878
-0.000221035
-4.96711e-05
0.000171001
0.000444526
0.000775092
0.00116626
0.00161943
0.00213247
0.00269805
0.00329959
0.00391551
0.00451415
0.00505814
0.00550809
0.00582821
0.00599319
0.00599436
0.00584305
0.00556966
0.00521971
0.00484915
0.00449836
0.00413637
0.000107181
-0.000414178
-0.000647911
-0.000771397
-0.00082448
-0.00081534
-0.000753818
-0.000645924
-0.000492599
-0.0002912
-3.669e-05
0.000277226
0.00065675
0.00110636
0.00162709
0.00221446
0.00285489
0.00352646
0.00419496
0.00481775
0.00534669
0.00573484
0.00594522
0.00595966
0.00578484
0.00545298
0.0050182
0.00455111
0.00410514
0.00364329
-0.000330896
-0.000899641
-0.00115579
-0.00129529
-0.00136351
-0.00137065
-0.00132803
-0.0012423
-0.00111416
-0.000940077
-0.000713459
-0.000425753
-6.77337e-05
0.000368923
0.00088973
0.00149457
0.0021735
0.0029084
0.0036637
0.00439188
0.00503474
0.00553055
0.0058251
0.00588425
0.00570441
0.00531663
0.00478455
0.00419825
0.0036293
0.00303182
-0.000943863
-0.0015546
-0.00183212
-0.00198892
-0.00207553
-0.0021041
-0.00208738
-0.00203266
-0.00194058
-0.00180688
-0.0016236
-0.00138002
-0.00106367
-0.000661645
-0.000162517
0.000440348
0.00114369
0.00193875
0.00279103
0.00365102
0.00445072
0.00511004
0.00555002
0.00571035
0.00556678
0.00514188
0.00450725
0.003778
0.00305068
0.00226558
-0.00174445
-0.00239212
-0.0026904
-0.00286646
-0.00297571
-0.00303241
-0.0030509
-0.00303938
-0.00299886
-0.00292494
-0.00280892
-0.00263836
-0.00239773
-0.00206911
-0.0016336
-0.00107414
-0.000380849
0.000447743
0.00139056
0.00240145
0.00340569
0.00430273
0.00497997
0.00533597
0.00530809
0.00489522
0.00417007
0.00327779
0.00234965
0.00130619
-0.00274283
-0.00342256
-0.00374139
-0.00393936
-0.00407658
-0.00416969
-0.00423508
-0.0042825
-0.00431415
-0.00432654
-0.00431142
-0.00425588
-0.00414217
-0.00394749
-0.00364419
-0.00320075
-0.00258606
-0.00178565
-0.000789063
0.000371319
0.00162297
0.00284704
0.00388919
0.00458747
0.00481326
0.00451387
0.00374538
0.00268407
0.00150903
0.000115627
-0.00394607
-0.00465322
-0.00499273
-0.00521571
-0.00538688
-0.00552583
-0.0056517
-0.00577678
-0.00590578
-0.00603779
-0.00616694
-0.00628201
-0.00636501
-0.00638947
-0.00631848
-0.00610386
-0.00568897
-0.00502098
-0.00405398
-0.00278523
-0.00126659
0.00037538
0.00194195
0.00319013
0.0038877
0.00388437
0.00318271
0.00197967
0.000516233
-0.00134063
-0.00535754
-0.00608796
-0.0064484
-0.00669938
-0.00691031
-0.00710449
-0.00730486
-0.00752766
-0.00778188
-0.00807144
-0.00839569
-0.0087482
-0.00911411
-0.00946591
-0.00975854
-0.00992518
-0.00987625
-0.00950659
-0.00872032
-0.00744652
-0.00569149
-0.0035669
-0.0013061
0.000753196
0.00223265
0.00281841
0.0023933
0.0011398
-0.000632868
-0.00308764
-0.00697656
-0.00772713
-0.00810856
-0.00838949
-0.00864428
-0.00890103
-0.00918791
-0.00952681
-0.0099332
-0.0104186
-0.0109908
-0.0116525
-0.0123964
-0.013198
-0.0140072
-0.0147384
-0.0152649
-0.0154208
-0.0150233
-0.0139263
-0.0120454
-0.00944
-0.0063496
-0.00320133
-0.000553234
0.00103897
0.00123598
0.0001287
-0.00192661
-0.00512957
-0.00879829
-0.00956797
-0.00996979
-0.0102801
-0.0105789
-0.0109006
-0.0112803
-0.0117477
-0.0123268
-0.0130399
-0.0139069
-0.0149438
-0.0161558
-0.0175273
-0.0190069
-0.0204922
-0.0218174
-0.0227462
-0.0229893
-0.0223326
-0.0205308
-0.0175506
-0.0135911
-0.00913192
-0.00491278
-0.00179879
-0.000482446
-0.00109824
-0.00332363
-0.00742908
-0.0108145
-0.0116057
-0.012026
-0.0123607
-0.0126968
-0.013077
-0.0135456
-0.014142
-0.0149017
-0.0158597
-0.0170514
-0.0185099
-0.0202579
-0.0222929
-0.0245678
-0.0269669
-0.0292863
-0.0312307
-0.032432
-0.0324501
-0.0309885
-0.0278516
-0.0231295
-0.0172827
-0.0111823
-0.00602103
-0.00296872
-0.00257742
-0.00472902
-0.00987287
-0.0130151
-0.0138363
-0.0142707
-0.0146174
-0.0149732
-0.0153918
-0.0159299
-0.0166389
-0.0175671
-0.0187642
-0.0202832
-0.0221766
-0.024487
-0.0272288
-0.0303627
-0.0337646
-0.0371986
-0.0403078
-0.0426254
-0.0436012
-0.0427752
-0.0397839
-0.0345605
-0.0274581
-0.0193746
-0.0117681
-0.00634584
-0.00428973
-0.00595607
-0.0122203
-0.015392
-0.0162599
-0.0167
-0.0170352
-0.0173773
-0.017796
-0.0183635
-0.0191458
-0.0202051
-0.0216067
-0.023421
-0.0257201
-0.0285664
-0.0319917
-0.0359657
-0.0403597
-0.044913
-0.0492176
-0.0527268
-0.0547883
-0.0548166
-0.0522711
-0.0468997
-0.0388712
-0.0289759
-0.0187883
-0.0104978
-0.00606722
-0.0066693
-0.014031
-0.0179443
-0.0188884
-0.0193183
-0.0196014
-0.0198746
-0.0202308
-0.0207629
-0.0215535
-0.0226792
-0.0242199
-0.0262617
-0.0288938
-0.0321958
-0.0362135
-0.0409241
-0.0461954
-0.0517473
-0.0571339
-0.0617578
-0.0649159
-0.0658412
-0.0639281
-0.0587319
-0.0501938
-0.0388786
-0.0262814
-0.0148901
-0.00745955
-0.00630663
-0.0145677
-0.020689
-0.0217552
-0.0221451
-0.0223093
-0.0224289
-0.0226311
-0.0230356
-0.0237436
-0.0248457
-0.0264337
-0.0286062
-0.0314648
-0.0351009
-0.0395686
-0.0448481
-0.0508026
-0.0571362
-0.0633777
-0.0688922
-0.0729303
-0.0746796
-0.0734179
-0.068564
-0.0598458
-0.0475467
-0.0329099
-0.0184605
-0.00758995
-0.00398162
-0.0126728
-0.0236789
-0.024932
-0.0252247
-0.025163
-0.0250048
-0.0249276
-0.025085
-0.0255979
-0.0265681
-0.0280959
-0.0302871
-0.0332499
-0.0370801
-0.0418331
-0.0474854
-0.0538952
-0.0607487
-0.0675595
-0.0736692
-0.0782955
-0.0806116
-0.0798141
-0.0752262
-0.0664056
-0.0533682
-0.0370154
-0.0196667
-0.00507738
0.00162472
-0.00662401
-0.0270392
-0.028555
-0.0286395
-0.0281803
-0.0275676
-0.0270491
-0.026817
-0.0270089
-0.0277332
-0.0290923
-0.0311932
-0.0341436
-0.0380365
-0.0429198
-0.0487571
-0.0554124
-0.0625316
-0.0696239
-0.0760155
-0.0808993
-0.0834473
-0.0827651
-0.0781136
-0.0689344
-0.0550269
-0.0369545
-0.0166955
0.001918
0.0123732
0.00601755
-0.0310435
-0.0328689
-0.0325246
-0.0313937
-0.0300821
-0.0289236
-0.0281446
-0.0278899
-0.0282638
-0.0293621
-0.0312858
-0.0341342
-0.0379894
-0.0428875
-0.048778
-0.0554863
-0.0626655
-0.0697975
-0.0761901
-0.0810148
-0.0833819
-0.0823744
-0.0771649
-0.0670738
-0.0517277
-0.0314214
-0.00776445
0.0155732
0.0307878
0.0285429
-0.0362815
-0.038295
-0.0370801
-0.0348438
-0.0325045
-0.0304756
-0.0289916
-0.0281813
-0.0281281
-0.0289057
-0.0306028
-0.0333003
-0.0370623
-0.0419029
-0.0477489
-0.0543981
-0.0614849
-0.0684661
-0.0746225
-0.0790891
-0.08091
-0.0791102
-0.0727229
-0.0609362
-0.0432271
-0.0196788
0.00850113
0.0382358
0.0601037
0.0650531
-0.0440504
-0.0455335
-0.0425527
-0.038542
-0.0347508
-0.0315997
-0.0292693
-0.0278311
-0.0273212
-0.0277623
-0.0292365
-0.0317838
-0.0354435
-0.0402019
-0.0459557
-0.052473
-0.0593599
-0.0660431
-0.071769
-0.0756229
-0.0765734
-0.0735082
-0.0653162
-0.0509856
-0.0297716
-0.00155221
0.0326967
0.0717435
0.103649
0.120211
-0.0574933
-0.0557378
-0.0491597
-0.0423728
-0.0365999
-0.0320693
-0.0287915
-0.0267151
-0.0257819
-0.0259654
-0.0272761
-0.0297288
-0.0333253
-0.0380167
-0.0436647
-0.0500036
-0.0566079
-0.0628715
-0.0680028
-0.0710328
-0.0708449
-0.0661497
-0.0556551
-0.0380644
-0.012288
0.022254
0.06525
0.11563
0.162837
0.20085
-0.0845803
-0.0702743
-0.0570098
-0.0459755
-0.0375458
-0.0314208
-0.0272041
-0.024605
-0.0234105
-0.0234928
-0.0247893
-0.0272666
-0.0308851
-0.0355589
-0.0411159
-0.047259
-0.0535335
-0.0593026
-0.063736
-0.0658165
-0.0643862
-0.0579275
-0.0449945
-0.0238955
0.0069927
0.0491054
0.10316
0.169407
0.238275
0.320671
-0.136876
-0.0856603
-0.0638953
-0.0469931
-0.03547
-0.0280188
-0.023363
-0.0207296
-0.0196863
-0.0199969
-0.0215354
-0.0242278
-0.0280044
-0.0327558
-0.0382902
-0.044295
-0.0503041
-0.0556715
-0.0595481
-0.0608584
-0.0582998
-0.0506493
-0.0359842
-0.0122495
0.0228353
0.072185
0.138862
0.22788
0.335848
0.505623
-0.309507
-0.0954039
-0.0466637
-0.0283707
-0.0182493
-0.0130038
-0.0107913
-0.010308
-0.0109694
-0.0125932
-0.0151353
-0.0185839
-0.0229154
-0.0280566
-0.0338464
-0.0400009
-0.0460822
-0.0514752
-0.0553741
-0.056781
-0.0544974
-0.0469232
-0.0322906
-0.00853858
0.0270527
0.0788823
0.153578
0.268772
0.443965
0.7878
)
;

boundaryField
{
    movingWall
    {
        type            zeroGradient;
    }
    fixedWalls
    {
        type            zeroGradient;
    }
    frontAndBack
    {
        type            empty;
    }
}


// ************************************************************************* //
