/*--------------------------------*- C++ -*----------------------------------*\
  =========                 |
  \\      /  F ield         | OpenFOAM: The Open Source CFD Toolbox
   \\    /   O peration     | Website:  https://openfoam.org
    \\  /    A nd           | Version:  7
     \\/     M anipulation  |
\*---------------------------------------------------------------------------*/
FoamFile
{
    version     2.0;
    format      ascii;
    class       volScalarField;
    location    "4.8";
    object      p;
}
// * * * * * * * * * * * * * * * * * * * * * * * * * * * * * * * * * * * * * //

dimensions      [0 2 -2 0 0 0 0];

internalField   nonuniform List<scalar> 
900
(
9.56553e-07
-0.00011742
-0.00024852
-0.000353871
-0.000405233
-0.000387822
-0.000296612
-0.000131353
0.000106294
0.000414001
0.00078908
0.00122822
0.0017269
0.00227871
0.0028746
0.00350234
0.0041462
0.00478699
0.00540269
0.00596961
0.00646419
0.00686528
0.0071567
0.00732979
0.00738548
0.0073358
0.00720508
0.00703064
0.00685432
0.00674597
0.000119661
-1.00611e-06
-9.14292e-05
-0.000152273
-0.000168138
-0.000127381
-2.50819e-05
0.000140354
0.000368927
0.000659652
0.00101071
0.00141926
0.00188106
0.00238993
0.00293726
0.00351163
0.00409848
0.00468077
0.00523895
0.00575244
0.0062012
0.0065677
0.00683917
0.00700967
0.0070816
0.00706643
0.00698472
0.00686585
0.00674243
0.00663592
0.000256329
8.68628e-05
-5.841e-06
-5.61919e-05
-6.06374e-05
-1.11317e-05
9.53553e-05
0.000259787
0.000482373
0.000762685
0.00109955
0.0014908
0.00193281
0.00242005
0.00294452
0.00349544
0.00405941
0.0046196
0.00515731
0.00565263
0.00608611
0.00644073
0.00670421
0.00687098
0.0069436
0.00693301
0.00685818
0.00674557
0.0066179
0.00646565
0.000369312
0.000141753
3.29209e-05
-1.96182e-05
-2.20566e-05
3.00148e-05
0.000137208
0.000299271
0.00051619
0.000787888
0.00111386
0.00149276
0.00192185
0.0023965
0.00290956
0.00345097
0.00400759
0.00456295
0.00509809
0.00559253
0.00602586
0.00638005
0.0066418
0.00680483
0.00687132
0.00685198
0.00676547
0.00663777
0.00648605
0.00628148
0.000423678
0.000140241
1.18041e-05
-4.82114e-05
-5.36167e-05
-2.92801e-06
0.000102261
0.000260511
0.000471553
0.00073567
0.0010531
0.00142344
0.00184506
0.00231436
0.00282517
0.00336812
0.0039303
0.00449507
0.00504255
0.00555066
0.0059969
0.00636088
0.00662712
0.00678778
0.00684438
0.00680788
0.00669802
0.00654269
0.00635785
0.00610127
0.000394335
6.02347e-05
-8.86764e-05
-0.000159133
-0.000170863
-0.000124589
-2.36926e-05
0.00012944
0.000334419
0.000591984
0.000903224
0.00126887
0.00168851
0.00215983
0.00267772
0.00323354
0.0038146
0.00440366
0.00497926
0.00551682
0.00599052
0.00637623
0.00665494
0.00681626
0.00686071
0.00680004
0.00665664
0.00646285
0.00623733
0.00593011
0.000264191
-0.000114929
-0.000283843
-0.000366156
-0.000386284
-0.000346603
-0.000251858
-0.000105084
9.34101e-05
0.000344986
0.00065175
0.00101573
0.00143799
0.00191768
0.00245103
0.00303031
0.00364302
0.00427122
0.00489137
0.00547548
0.00599314
0.00641487
0.00671653
0.00688378
0.00691552
0.00682472
0.006638
0.00639481
0.00612006
0.0057603
2.06695e-05
-0.000398789
-0.000586816
-0.000681611
-0.0007115
-0.000680136
-0.000593298
-0.000454397
-0.000263449
-1.82888e-05
0.000284398
0.000648164
0.00107582
0.00156833
0.00212364
0.00273532
0.0033913
0.00407318
0.00475498
0.00540461
0.00598569
0.00646154
0.00680062
0.00698264
0.00700358
0.00687764
0.00663723
0.00633178
0.00599591
0.00557478
-0.000346389
-0.000802963
-0.00100945
-0.00111724
-0.00115814
-0.00113689
-0.00106009
-0.000931324
-0.000750168
-0.000513486
-0.000216564
0.000145923
0.000578864
0.00108553
0.00166617
0.00231631
0.00302489
0.00377383
0.0045348
0.00527121
0.00593943
0.00649327
0.00689079
0.00710251
0.00711899
0.00695478
0.00664928
0.00626532
0.00585088
0.00534962
-0.00084581
-0.00133771
-0.00156253
-0.0016841
-0.00173759
-0.00172876
-0.00166495
-0.00154989
-0.0013826
-0.0011589
-0.000872521
-0.000516143
-8.24186e-05
0.000434785
0.00103887
0.00172825
0.00249383
0.00332028
0.00417699
0.0050233
0.00580752
0.00647143
0.00695859
0.00722534
0.00725216
0.00705117
0.00666917
0.00618629
0.00566836
0.00505511
-0.00148567
-0.00201236
-0.00225595
-0.00239258
-0.0024608
-0.00246752
-0.00242091
-0.0023249
-0.00217804
-0.00197511
-0.0017083
-0.00136813
-0.000944488
-0.000427807
0.000189354
0.000909682
0.00172762
0.00263529
0.00359977
0.00457855
0.00551237
0.00632889
0.00695203
0.00731637
0.00738405
0.00715844
0.00669188
0.00608608
0.00543056
0.00465642
-0.00227359
-0.00283556
-0.00309895
-0.00325243
-0.0033382
-0.00336456
-0.00334081
-0.00327132
-0.00315444
-0.00298415
-0.00275127
-0.00244428
-0.00205019
-0.00155562
-0.000948159
-0.000217955
0.000639463
0.00161081
0.0026819
0.00380903
0.00492747
0.00595031
0.00677642
0.00730796
0.00747487
0.00725878
0.00671083
0.00595767
0.0051204
0.00411466
-0.00321675
-0.00381549
-0.00410019
-0.00427274
-0.00437939
-0.00443033
-0.00443647
-0.00440313
-0.00432896
-0.00420767
-0.00402928
-0.00378074
-0.00344662
-0.00300972
-0.00245208
-0.00175614
-0.000907897
9.49859e-05
0.00125009
0.0025234
0.00385383
0.00514421
0.00626486
0.00707235
0.00744274
0.00731188
0.00671269
0.00579582
0.00472388
0.00338881
-0.00432197
-0.00495998
-0.00526787
-0.0054618
-0.00559278
-0.00567359
-0.00571751
-0.00573161
-0.00571566
-0.00566407
-0.00556707
-0.00541129
-0.00518002
-0.00485326
-0.00440781
-0.00381754
-0.00305492
-0.00209625
-0.000925059
0.000453888
0.00199767
0.00361148
0.00514016
0.00638192
0.00712897
0.00723039
0.00666511
0.00559481
0.00423295
0.00243885
-0.00559567
-0.00627682
-0.00660987
-0.00682704
-0.00698509
-0.0071004
-0.00718974
-0.00726305
-0.00732244
-0.00736437
-0.00738099
-0.00736061
-0.00728754
-0.00714142
-0.00689596
-0.00651727
-0.00596206
-0.00517863
-0.0041199
-0.00273944
-0.00103539
0.000926294
0.00298167
0.00486579
0.00625239
0.00684253
0.00649459
0.00534224
0.00364924
0.00123131
-0.00704417
-0.00777427
-0.00813422
-0.00837511
-0.0085609
-0.00871305
-0.00885332
-0.00899601
-0.00914712
-0.00930701
-0.00947201
-0.009635
-0.00978491
-0.00990523
-0.00997093
-0.00994382
-0.00976655
-0.00935752
-0.00861347
-0.0074235
-0.00570013
-0.00343725
-0.000769352
0.00199092
0.00437214
0.00585029
0.00605565
0.00500851
0.00299026
-0.000249563
-0.00867437
-0.00946217
-0.00984995
-0.0101122
-0.0103223
-0.0105089
-0.0107007
-0.0109183
-0.0111733
-0.011472
-0.0118178
-0.0122115
-0.0126515
-0.0131308
-0.0136323
-0.01412
-0.0145268
-0.0147409
-0.0145949
-0.0138785
-0.0123913
-0.00998904
-0.00671417
-0.00287886
0.000903485
0.0038125
0.00510565
0.00453611
0.00230153
-0.00197935
-0.0104953
-0.0113539
-0.0117687
-0.0120447
-0.0122687
-0.0124794
-0.0127149
-0.0130041
-0.0133662
-0.0138156
-0.0143651
-0.0150276
-0.0158156
-0.0167384
-0.0177947
-0.0189594
-0.0201633
-0.0212679
-0.0220373
-0.0221329
-0.0212456
-0.0189989
-0.0152697
-0.0102869
-0.00474728
0.000208669
0.00331971
0.00384272
0.00168072
-0.00384946
-0.0125207
-0.01347
-0.0139071
-0.014181
-0.0143974
-0.0146093
-0.0148679
-0.0152121
-0.0156702
-0.0162665
-0.0170255
-0.0179748
-0.0191456
-0.0205689
-0.022267
-0.0242341
-0.0264078
-0.0286302
-0.0306128
-0.0319199
-0.0319629
-0.0302396
-0.0263594
-0.0203564
-0.0128914
-0.00535507
0.000397803
0.00287036
0.00132332
-0.00558931
-0.0147744
-0.0158434
-0.0162916
-0.0165333
-0.0167037
-0.0168764
-0.0171195
-0.017484
-0.0180083
-0.0187267
-0.0196763
-0.0209012
-0.0224532
-0.0243886
-0.026757
-0.0295776
-0.0328014
-0.0362601
-0.0396158
-0.0423255
-0.0436341
-0.042805
-0.039165
-0.0324702
-0.0231963
-0.0128119
-0.00369656
0.00171726
0.0016017
-0.006642
-0.0172989
-0.0185293
-0.0189637
-0.0191205
-0.0191816
-0.019251
-0.0194177
-0.0197463
-0.0202845
-0.0210758
-0.0221693
-0.0236245
-0.0255136
-0.0279173
-0.0309119
-0.0345411
-0.0387712
-0.0434287
-0.0481361
-0.0522664
-0.0549342
-0.0552061
-0.0521318
-0.0451531
-0.0344384
-0.0213041
-0.00841515
0.000866417
0.00318981
-0.00598698
-0.0201729
-0.0216202
-0.0219894
-0.0219709
-0.0218239
-0.0216949
-0.0216986
-0.0219121
-0.0223899
-0.0231823
-0.0243471
-0.0259568
-0.0281002
-0.0308781
-0.0343877
-0.0386907
-0.043763
-0.0494261
-0.0552673
-0.0606095
-0.064508
-0.0657728
-0.0633431
-0.0563524
-0.0446102
-0.029083
-0.0123818
0.00144439
0.00723693
-0.00192606
-0.0235446
-0.0252705
-0.0254698
-0.0251239
-0.0246188
-0.0241588
-0.0238852
-0.0238836
-0.0242099
-0.0249159
-0.0260637
-0.0277336
-0.0300259
-0.0330537
-0.0369259
-0.0417099
-0.047379
-0.0537545
-0.0603723
-0.0665207
-0.0711878
-0.0731339
-0.0711186
-0.0640503
-0.0514359
-0.033811
-0.0134357
0.0053589
0.0155751
0.00811985
-0.0277051
-0.0297378
-0.0295535
-0.0286257
-0.0275414
-0.0265739
-0.0258836
-0.0255533
-0.0256306
-0.0261605
-0.0272031
-0.0288405
-0.0311771
-0.0343295
-0.038407
-0.0434669
-0.0494563
-0.0562453
-0.0632218
-0.0696992
-0.0746017
-0.0766456
-0.0745137
-0.0668675
-0.0530489
-0.033158
-0.00902587
0.0152154
0.0309201
0.0277357
-0.0332475
-0.0354454
-0.0344415
-0.0325122
-0.030533
-0.028835
-0.0275705
-0.0267969
-0.0265368
-0.0268173
-0.0276875
-0.0292241
-0.0315275
-0.0347063
-0.0388624
-0.0440338
-0.0501495
-0.056967
-0.0639467
-0.0702901
-0.0748799
-0.0763618
-0.0732782
-0.0642779
-0.0484563
-0.0254151
0.00313468
0.0339913
0.0569122
0.0614038
-0.0414444
-0.0430698
-0.04035
-0.0367505
-0.0334462
-0.0307524
-0.0287525
-0.027439
-0.0267844
-0.0267818
-0.0274571
-0.0288716
-0.0311117
-0.0342716
-0.0384256
-0.0435823
-0.0496284
-0.0562595
-0.0629053
-0.0686974
-0.0724536
-0.0727297
-0.0679314
-0.0565516
-0.0374272
-0.0101362
0.0243693
0.0641945
0.0974376
0.114152
-0.0553594
-0.0536813
-0.0474014
-0.0411105
-0.0359239
-0.0319446
-0.0290737
-0.0271785
-0.0261414
-0.0258963
-0.0264296
-0.027773
-0.0299873
-0.0331396
-0.0372698
-0.0423438
-0.0481965
-0.054465
-0.0605227
-0.0654363
-0.0679535
-0.0665106
-0.059345
-0.0447079
-0.021119
0.0122499
0.0551178
0.106246
0.154585
0.192955
-0.0827995
-0.0684742
-0.055542
-0.0450573
-0.0372805
-0.0317686
-0.0280017
-0.0256141
-0.0243367
-0.024006
-0.0245475
-0.0259507
-0.0282425
-0.0314558
-0.0355913
-0.0405692
-0.0461714
-0.0519772
-0.0572997
-0.0611386
-0.0621814
-0.058769
-0.0489917
-0.0307184
-0.00196892
0.0389138
0.0926707
0.159397
0.2292
0.311741
-0.135166
-0.0837967
-0.0624652
-0.0461316
-0.0353046
-0.028506
-0.0243339
-0.0219385
-0.0208366
-0.0207625
-0.0215856
-0.02326
-0.0257857
-0.0291699
-0.0333842
-0.0383157
-0.0437112
-0.0491166
-0.0538158
-0.0567702
-0.056582
-0.0515544
-0.0397561
-0.0186611
0.0143963
0.0625432
0.128863
0.218151
0.326693
0.496743
-0.307542
-0.0933977
-0.0450078
-0.0273357
-0.017947
-0.013392
-0.0117094
-0.011517
-0.0121789
-0.0134843
-0.0153849
-0.0178964
-0.0210608
-0.0249135
-0.0294448
-0.0345547
-0.0400018
-0.0453476
-0.0499054
-0.0526966
-0.0524363
-0.0474483
-0.0355136
-0.0142526
0.0193366
0.0698726
0.144055
0.259382
0.435022
0.779091
)
;

boundaryField
{
    movingWall
    {
        type            zeroGradient;
    }
    fixedWalls
    {
        type            zeroGradient;
    }
    frontAndBack
    {
        type            empty;
    }
}


// ************************************************************************* //
