/*--------------------------------*- C++ -*----------------------------------*\
  =========                 |
  \\      /  F ield         | OpenFOAM: The Open Source CFD Toolbox
   \\    /   O peration     | Website:  https://openfoam.org
    \\  /    A nd           | Version:  7
     \\/     M anipulation  |
\*---------------------------------------------------------------------------*/
FoamFile
{
    version     2.0;
    format      ascii;
    class       surfaceScalarField;
    location    "7.8";
    object      phi;
}
// * * * * * * * * * * * * * * * * * * * * * * * * * * * * * * * * * * * * * //

dimensions      [0 3 -1 0 0 0 0];

internalField   nonuniform List<scalar> 
1740
(
5.56242e-07
-5.56966e-07
-5.05624e-07
1.06187e-06
-3.3152e-06
2.80957e-06
-7.50493e-06
4.18974e-06
-1.26299e-05
5.12492e-06
-1.83067e-05
5.67689e-06
-2.42433e-05
5.93657e-06
-3.02207e-05
5.97739e-06
-3.60628e-05
5.84213e-06
-4.16082e-05
5.54538e-06
-4.66891e-05
5.08085e-06
-5.11194e-05
4.43036e-06
-5.46928e-05
3.57333e-06
-5.71893e-05
2.49657e-06
-5.8393e-05
1.20368e-06
-5.8116e-05
-2.77048e-07
-5.62277e-05
-1.88823e-06
-5.26913e-05
-3.53644e-06
-4.75911e-05
-5.10019e-06
-4.1152e-05
-6.43911e-06
-3.37417e-05
-7.41031e-06
-2.58517e-05
-7.88994e-06
-1.80561e-05
-7.7956e-06
-1.09508e-05
-7.10531e-06
-5.08274e-06
-5.86806e-06
-8.74248e-07
-4.20849e-06
1.46435e-06
-2.33859e-06
1.97843e-06
-5.1408e-07
1.09936e-06
8.79075e-07
1.09936e-06
-1.06341e-06
5.06448e-07
-5.72247e-06
5.72093e-06
-1.39929e-05
1.108e-05
-2.5175e-05
1.53718e-05
-3.84511e-05
1.8401e-05
-5.3047e-05
2.02728e-05
-6.82974e-05
2.1187e-05
-8.36446e-05
2.13245e-05
-9.86029e-05
2.08005e-05
-0.000112718
1.966e-05
-0.00012553
1.78929e-05
-0.000136557
1.54582e-05
-0.000145296
1.23116e-05
-0.000151234
8.43523e-06
-0.000153895
3.86422e-06
-0.000152895
-1.27643e-06
-0.000147983
-6.80045e-06
-0.000139137
-1.2383e-05
-0.000126601
-1.76363e-05
-0.000110923
-2.21169e-05
-9.29532e-05
-2.53798e-05
-7.37999e-05
-2.70433e-05
-5.47389e-05
-2.68566e-05
-3.70859e-05
-2.47584e-05
-2.20411e-05
-2.09128e-05
-1.05289e-05
-1.57207e-05
-3.05205e-06
-9.81542e-06
4.855e-07
-4.05164e-06
9.41693e-07
4.22871e-07
2.04106e-06
-3.01189e-06
3.51833e-06
-1.1728e-05
1.4437e-05
-2.53572e-05
2.47092e-05
-4.28784e-05
3.28929e-05
-6.31983e-05
3.8721e-05
-8.52917e-05
4.23662e-05
-0.000108251
4.41461e-05
-0.000131281
4.43543e-05
-0.000153663
4.31833e-05
-0.000174715
4.07114e-05
-0.000193748
3.69257e-05
-0.000210052
3.1763e-05
-0.000222901
2.51605e-05
-0.000231576
1.711e-05
-0.000235422
7.71002e-06
-0.00023391
-2.78829e-06
-0.000226723
-1.39877e-05
-0.000213846
-2.52596e-05
-0.000195632
-3.585e-05
-0.000172846
-4.49037e-05
-0.000146661
-5.15646e-05
-0.000118608
-5.50956e-05
-9.04566e-05
-5.50084e-05
-6.40385e-05
-5.11765e-05
-4.10414e-05
-4.39099e-05
-2.27833e-05
-3.39788e-05
-1.00041e-05
-2.25946e-05
-2.68656e-06
-1.13692e-05
3.60745e-08
-2.29977e-06
2.07713e-06
-4.85604e-06
8.37438e-06
-1.74808e-05
2.70618e-05
-3.62339e-05
4.34623e-05
-5.96151e-05
5.62742e-05
-8.62491e-05
6.5355e-05
-0.000114909
7.10263e-05
-0.000144519
7.37555e-05
-0.000174122
7.39578e-05
-0.000202842
7.19028e-05
-0.000229829
6.76988e-05
-0.000254229
6.13256e-05
-0.000275161
5.26947e-05
-0.000291725
4.17244e-05
-0.000303036
2.84209e-05
-0.000308282
1.29567e-05
-0.000306806
-4.26402e-06
-0.000298192
-2.26018e-05
-0.000282382
-4.10697e-05
-0.000259755
-5.84769e-05
-0.00023119
-7.34691e-05
-0.000198077
-8.46777e-05
-0.000162266
-9.09069e-05
-0.000125934
-9.13404e-05
-9.13799e-05
-8.57303e-05
-6.07615e-05
-7.45283e-05
-3.58106e-05
-5.89297e-05
-1.75738e-05
-4.08315e-05
-6.21604e-06
-2.27269e-05
-9.37398e-07
-7.57842e-06
1.13974e-06
-6.4913e-06
1.48657e-05
-2.27301e-05
4.33006e-05
-4.62494e-05
6.69816e-05
-7.50412e-05
8.5066e-05
-0.000107431
9.77445e-05
-0.000142009
0.000105604
-0.000177571
0.000109318
-0.000213059
0.000109445
-0.000247493
0.000106337
-0.000279919
0.000100126
-0.000309369
9.07752e-05
-0.000334834
7.81598e-05
-0.000355275
6.21653e-05
-0.000369652
4.2798e-05
-0.000376988
2.02926e-05
-0.000376461
-4.79125e-06
-0.00036748
-3.15824e-05
-0.000349855
-5.86951e-05
-0.00032388
-8.44513e-05
-0.000290439
-0.000106911
-0.000251043
-0.000124074
-0.000207804
-0.000134146
-0.000163302
-0.000135842
-0.000120349
-0.000128684
-8.16647e-05
-0.000113213
-4.95158e-05
-9.10786e-05
-2.53787e-05
-6.49685e-05
-9.70034e-06
-3.84053e-05
-1.80758e-06
-1.54712e-05
-6.67847e-07
-7.9216e-06
2.27873e-05
-2.74324e-05
6.28114e-05
-5.53215e-05
9.48707e-05
-8.90937e-05
0.000118838
-0.000126781
0.000135432
-0.000166809
0.000145632
-0.000207879
0.000150388
-0.000248871
0.000150438
-0.000288758
0.000146223
-0.000326533
0.0001379
-0.000361159
0.000125401
-0.000391539
0.00010854
-0.000416513
8.71389e-05
-0.000434881
6.11663e-05
-0.000445464
3.08749e-05
-0.000447214
-3.04132e-06
-0.000439249
-3.95466e-05
-0.000421125
-7.68199e-05
-0.000392906
-0.00011267
-0.000355342
-0.000144475
-0.00030996
-0.000169455
-0.000259088
-0.000185018
-0.000205738
-0.000189192
-0.000153347
-0.000181074
-0.000105382
-0.000161178
-6.48563e-05
-0.000131604
-3.38736e-05
-9.59512e-05
-1.32925e-05
-5.89864e-05
-2.60082e-06
-2.61629e-05
-3.26867e-06
-9.17727e-06
3.19645e-05
-3.16239e-05
8.52581e-05
-6.34857e-05
0.000126732
-0.000101829
0.000157182
-0.000144422
0.000178025
-0.000189548
0.000190758
-0.000235846
0.000196686
-0.000282178
0.00019677
-0.000327517
0.000191562
-0.000370853
0.000181237
-0.000411129
0.000165677
-0.000447192
0.000144603
-0.000477773
0.000117721
-0.000501503
8.48958e-05
-0.000516949
4.63211e-05
-0.000522738
2.74803e-06
-0.000517597
-4.46883e-05
-0.000500643
-9.37732e-05
-0.000471536
-0.000141777
-0.00043071
-0.000185302
-0.000379566
-0.000220598
-0.000320572
-0.000244012
-0.0002572
-0.000252565
-0.000193661
-0.000244613
-0.000134418
-0.00022042
-8.35476e-05
-0.000182475
-4.40757e-05
-0.000135423
-1.74755e-05
-8.55867e-05
-3.45316e-06
-4.01852e-05
-6.72183e-06
-1.02838e-05
4.22483e-05
-3.53499e-05
0.000110324
-7.07983e-05
0.000162181
-0.000113321
0.000199704
-0.00016046
0.000225164
-0.000210393
0.00024069
-0.000261734
0.000248028
-0.000313371
0.000248406
-0.000364322
0.000242513
-0.000413629
0.000230543
-0.000460259
0.000212308
-0.000503041
0.000187384
-0.000540617
0.000155297
-0.000571434
0.000115713
-0.000593768
6.86547e-05
-0.000605772
1.47519e-05
-0.000605728
-4.47323e-05
-0.00059208
-0.000107421
-0.00056387
-0.000169988
-0.000520992
-0.000228179
-0.000464516
-0.000277075
-0.00039691
-0.000311618
-0.000322084
-0.000327391
-0.000245157
-0.00032154
-0.000171893
-0.000293685
-0.00010784
-0.000246527
-5.73819e-05
-0.000185882
-2.29325e-05
-0.000120036
-4.56225e-06
-5.85554e-05
-1.12841e-05
-1.12532e-05
5.35015e-05
-3.86333e-05
0.000137704
-7.72866e-05
0.000200834
-0.000123596
0.000246013
-0.000174927
0.000276496
-0.000229389
0.000295153
-0.000285612
0.00030425
-0.000342551
0.000305345
-0.000399325
0.000299288
-0.000455078
0.000286296
-0.000508854
0.000266084
-0.000559507
0.000238037
-0.000605614
0.000201405
-0.000645437
0.000155536
-0.000676913
0.00010013
-0.000697701
3.55408e-05
-0.000705415
-3.70184e-05
-0.00069769
-0.000115147
-0.000672709
-0.000194968
-0.000629558
-0.00027133
-0.00056869
-0.000337942
-0.000492336
-0.000387973
-0.000404713
-0.000415013
-0.000311906
-0.000414346
-0.000221269
-0.000384323
-0.000140337
-0.000327459
-7.54484e-05
-0.000250771
-3.04778e-05
-0.000165007
-6.15628e-06
-8.2877e-05
-1.74404e-05
-1.20845e-05
6.5586e-05
-4.14685e-05
0.000167088
-8.29322e-05
0.000242298
-0.000132613
0.000295694
-0.000187749
0.000331631
-0.000246419
0.000353823
-0.000307308
0.000365139
-0.000369484
0.000367522
-0.000432216
0.00036202
-0.000494801
0.00034888
-0.000556418
0.000327701
-0.000615993
0.000297612
-0.00067208
0.000257492
-0.000722773
0.000206229
-0.000765662
0.000143019
-0.000797858
6.77372e-05
-0.000816233
-1.86434e-05
-0.000817433
-0.000113947
-0.000798587
-0.000213815
-0.000757674
-0.000312243
-0.000694188
-0.000401428
-0.000609751
-0.000472409
-0.000508588
-0.000516176
-0.00039763
-0.000525304
-0.000286014
-0.000495939
-0.000183809
-0.000429663
-0.000100104
-0.000334476
-4.1022e-05
-0.000224089
-8.486e-06
-0.000115413
-2.59264e-05
-1.27672e-05
7.83532e-05
-4.38252e-05
0.000198146
-8.76733e-05
0.000286146
-0.000140263
0.000348284
-0.000198744
0.000390111
-0.000261201
0.000416281
-0.000326407
0.000430344
-0.00039358
0.000434695
-0.000462181
0.00043062
-0.000531712
0.000418411
-0.000601539
0.000397528
-0.000670716
0.000366789
-0.000737823
0.0003246
-0.000800835
0.00026924
-0.000857028
0.000199213
-0.000902979
0.000113688
-0.000934746
1.31235e-05
-0.000948007
-0.000100685
-0.00093864
-0.000223183
-0.000903273
-0.00034761
-0.000840059
-0.000464642
-0.000749521
-0.000562947
-0.000635357
-0.000630341
-0.000504935
-0.000655727
-0.000369112
-0.000631762
-0.000240955
-0.00055782
-0.000133265
-0.000442165
-5.55546e-05
-0.000301799
-1.18258e-05
-0.000159142
-3.77521e-05
-1.32855e-05
9.16388e-05
-4.56582e-05
0.000230519
-9.14196e-05
0.000331908
-0.000146384
0.000403249
-0.000207643
0.00045137
-0.000273311
0.000481949
-0.000342268
0.000499301
-0.00041391
0.000506337
-0.000487917
0.000504627
-0.000564035
0.00049453
-0.000641861
0.000475354
-0.000720629
0.000445557
-0.00079901
0.000402981
-0.000874929
0.000345158
-0.000945437
0.000269721
-0.00100668
0.000174936
-0.00105392
6.03604e-05
-0.00108205
-7.25558e-05
-0.00108561
-0.000219619
-0.00105976
-0.00037346
-0.00100098
-0.00052343
-0.000908102
-0.000655821
-0.000783535
-0.000754907
-0.000634274
-0.000804987
-0.000472375
-0.000793661
-0.000314052
-0.000716144
-0.000176821
-0.000579396
-7.51322e-05
-0.000403488
-1.64812e-05
-0.000217793
-5.42333e-05
-1.36242e-05
0.000105263
-4.69243e-05
0.000263819
-9.40796e-05
0.000379063
-0.000150802
0.000459972
-0.000214139
0.000514707
-0.000282239
0.000550049
-0.000354095
0.000571157
-0.000429284
0.000581526
-0.000507719
0.000583062
-0.000589403
0.000576214
-0.000674189
0.00056014
-0.000761535
0.000532904
-0.000850266
0.000491712
-0.000938358
0.000433249
-0.00102278
0.000354139
-0.0010994
0.000251564
-0.00116308
0.000124033
-0.00120787
-2.77616e-05
-0.00122737
-0.000200119
-0.00121528
-0.000385552
-0.0011662
-0.000572509
-0.00107677
-0.000745253
-0.00094713
-0.000884545
-0.000782674
-0.000969444
-0.000595478
-0.000980857
-0.000404404
-0.000907218
-0.000232426
-0.000751373
-0.000100849
-0.000535066
-2.27999e-05
-0.000295841
-7.70332e-05
-1.37764e-05
0.000119039
-4.76043e-05
0.000297647
-9.55994e-05
0.000427058
-0.000153384
0.000517756
-0.000217955
0.000579278
-0.00028748
0.000619575
-0.000361048
0.000644725
-0.0004384
0.000658877
-0.000519661
0.000664324
-0.000605084
0.000661636
-0.000694778
0.000649834
-0.000788449
0.000626574
-0.000885138
0.000588401
-0.000982989
0.000531101
-0.00107907
0.000450222
-0.00116929
0.000341782
-0.00124839
0.000203137
-0.00131009
3.39293e-05
-0.00134738
-0.00016282
-0.00135287
-0.000380062
-0.00131937
-0.000606014
-0.00124094
-0.000823684
-0.00111455
-0.00101094
-0.000942418
-0.00114157
-0.000734744
-0.00118853
-0.000511516
-0.00113045
-0.000301136
-0.000961754
-0.000133754
-0.000702448
-3.1176e-05
-0.000398419
-0.000108209
-1.37528e-05
0.000132792
-4.77306e-05
0.000331625
-9.60119e-05
0.000475339
-0.000154111
0.000575855
-0.000218943
0.00064411
-0.000288659
0.000689291
-0.000362405
0.000718471
-0.000440044
0.000736516
-0.000521875
0.000746155
-0.000608355
0.000748117
-0.000699828
0.000741307
-0.000796248
0.000722994
-0.000896927
0.00068908
-0.00100031
0.000634479
-0.00110378
0.000553696
-0.00120361
0.000441608
-0.00129488
0.000294415
-0.00137158
0.000110624
-0.0014266
-0.000107796
-0.00145219
-0.00035448
-0.00143972
-0.000618478
-0.00138074
-0.000882663
-0.00126839
-0.00112328
-0.00110017
-0.00130979
-0.000881922
-0.00140678
-0.000632019
-0.00138035
-0.000382803
-0.00121097
-0.000174676
-0.000910575
-4.20361e-05
-0.000531059
-0.000150245
-1.35932e-05
0.000146385
-4.74209e-05
0.000365452
-9.54945e-05
0.000523413
-0.00015316
0.000633521
-0.000217191
0.000708141
-0.000285671
0.00075777
-0.000357748
0.000790548
-0.000433352
0.00081212
-0.000512892
0.000825695
-0.000596973
0.000832198
-0.000686124
0.000830457
-0.000780538
0.000817409
-0.000879842
0.000788383
-0.000982892
0.00073753
-0.00108764
0.000658443
-0.00119104
0.000545007
-0.00128902
0.000392395
-0.00137647
0.000198076
-0.00144675
-3.75169e-05
-0.00149276
-0.000308469
-0.00150513
-0.000606107
-0.00147342
-0.00091437
-0.00138693
-0.00120978
-0.00123732
-0.0014594
-0.00102355
-0.00162056
-0.000758613
-0.00164529
-0.000475281
-0.0014943
-0.000223923
-0.00116193
-5.58019e-05
-0.00069918
-0.000206047
-1.33797e-05
0.000159765
-4.69174e-05
0.00039899
-9.44361e-05
0.000570932
-0.000150996
0.000690081
-0.000213144
0.000770289
-0.000278832
0.000823457
-0.00034716
0.000858877
-0.000418066
0.000883026
-0.000492007
0.000899636
-0.000569672
0.000909863
-0.000651726
0.000912511
-0.000738584
0.000904267
-0.00083022
0.00088002
-0.000926023
0.000833332
-0.00102469
0.000757111
-0.00112418
0.000644501
-0.00122167
0.000489883
-0.00131344
0.000289846
-0.0013945
4.35416e-05
-0.00145843
-0.000244542
-0.00149661
-0.000567925
-0.00149761
-0.00091337
-0.00144758
-0.00125981
-0.0013322
-0.00157477
-0.0011417
-0.00181106
-0.000879591
-0.00190739
-0.000573635
-0.00180026
-0.000280901
-0.00145467
-7.28348e-05
-0.000907246
-0.000278882
-1.32546e-05
0.00017302
-4.66338e-05
0.000432369
-9.351e-05
0.000617808
-0.000148463
0.000745034
-0.000207707
0.000829533
-0.000269008
0.000884758
-0.000331386
0.000921254
-0.000394751
0.000946391
-0.000459566
0.000964451
-0.000526561
0.000976858
-0.000596504
0.000982455
-0.000670027
0.00097779
-0.000747493
0.000957486
-0.000828908
0.000914747
-0.000913878
0.000842081
-0.00100158
0.000732201
-0.0010907
0.000579002
-0.00117926
0.000378413
-0.00126457
0.000128849
-0.00134144
-0.000167669
-0.00140308
-0.000506284
-0.0014384
-0.000878051
-0.00143188
-0.00126633
-0.00136426
-0.0016424
-0.00121658
-0.00195875
-0.000979676
-0.00214429
-0.000669776
-0.00211016
-0.000343718
-0.00178073
-9.33934e-05
-0.00115757
-0.000372275
-1.34457e-05
0.000186465
-4.72185e-05
0.000466142
-9.37596e-05
0.000664349
-0.000146878
0.000798153
-0.000202337
0.000884992
-0.000257699
0.00094012
-0.000311918
0.000975473
-0.000364894
0.000999367
-0.000417098
0.00101665
-0.000469298
0.00102906
-0.00052237
0.00103553
-0.000577179
0.0010326
-0.000634522
0.00101483
-0.000695099
0.000975323
-0.000759513
0.000906495
-0.00082826
0.000800948
-0.000901662
0.000652404
-0.000979687
0.000456437
-0.00106166
0.00021082
-0.00114485
-8.44805e-05
-0.00122457
-0.00042656
-0.00129145
-0.00081117
-0.00133023
-0.00122755
-0.00131887
-0.00165376
-0.00123061
-0.002047
-0.00104237
-0.00233253
-0.000752899
-0.00239963
-0.000408934
-0.00212469
-0.000117639
-0.00144887
-0.000489915
-1.4311e-05
0.000200776
-4.96465e-05
0.000501477
-9.67045e-05
0.000711407
-0.000148114
0.000849562
-0.000199091
0.000935969
-0.00024705
0.000988079
-0.000290977
0.0010194
-0.000330854
0.00103924
-0.000367228
0.00105303
-0.000400958
0.00106279
-0.000433071
0.00106764
-0.000464714
0.00106424
-0.000497166
0.00104728
-0.000531865
0.00101002
-0.000570439
0.000945069
-0.000614696
0.000845205
-0.000666534
0.000704242
-0.000727731
0.000517634
-0.000799616
0.000282705
-0.000881737
-2.35945e-06
-0.00097217
-0.000336128
-0.001064
-0.000719336
-0.00114421
-0.00114735
-0.00119081
-0.00160716
-0.00117236
-0.00206545
-0.0010532
-0.00245169
-0.000811034
-0.0026418
-0.000471618
-0.00246411
-0.000145714
-0.00177477
-0.000635629
-1.64226e-05
0.000217199
-5.53693e-05
0.000540424
-0.000104482
0.00076052
-0.000154683
0.000899763
-0.000200623
0.000981909
-0.000239758
0.00102721
-0.00027133
0.00105097
-0.000295589
0.0010635
-0.000313306
0.00107075
-0.000325534
0.00107502
-0.000333533
0.00107564
-0.000338794
0.0010695
-0.000343115
0.0010516
-0.000348676
0.00101558
-0.000358086
0.000954479
-0.000374348
0.000861466
-0.000400741
0.000730635
-0.000440571
0.000557465
-0.000496706
0.00033884
-0.000571575
7.25096e-05
-0.00066435
-0.000243353
-0.000772031
-0.000611655
-0.000885071
-0.00103431
-0.00098446
-0.00150777
-0.00103827
-0.00201164
-0.00100222
-0.00248773
-0.000832869
-0.00281115
-0.000525697
-0.00277128
-0.000177804
-0.00212266
-0.000813433
-2.0733e-05
0.000237932
-6.65652e-05
0.000586256
-0.000120036
0.000813991
-0.000169776
0.000949503
-0.000210053
0.00102219
-0.000238781
0.00105594
-0.00025585
0.00106804
-0.000262077
0.00106973
-0.000258666
0.00106734
-0.000247011
0.00106336
-0.000228701
0.00105733
-0.000205623
0.00104643
-0.000180095
0.00102607
-0.000154992
0.00099048
-0.000133794
0.000933281
-0.000120497
0.000848169
-0.000119474
0.000729612
-0.000135191
0.000573182
-0.000171863
0.000375512
-0.000233063
0.000133709
-0.000320657
-0.000155759
-0.000434274
-0.000498038
-0.000568735
-0.000899846
-0.000710342
-0.00136616
-0.000831196
-0.00189079
-0.000884292
-0.00243464
-0.000808752
-0.00288669
-0.000564209
-0.00301582
-0.000213982
-0.00247289
-0.00102741
-2.89048e-05
0.000266837
-8.65446e-05
0.000643896
-0.000147315
0.000874761
-0.000197135
0.000999323
-0.00023052
0.00105557
-0.000246602
0.00107202
-0.000246524
0.00106796
-0.000232076
0.00105528
-0.000205151
0.00104041
-0.000167639
0.00102585
-0.000121537
0.00101123
-6.91409e-05
0.00099403
-1.32519e-05
0.000970184
4.27171e-05
0.000934511
9.46871e-05
0.000881311
0.000137898
0.000804958
0.000167184
0.000700326
0.000177246
0.00056312
0.000162997
0.000389761
0.000119906
0.000176801
4.4312e-05
-8.01651e-05
-6.5476e-05
-0.00038825
-0.000208952
-0.00075637
-0.000379216
-0.0011959
-0.000556071
-0.00171393
-0.000696714
-0.00229399
-0.000729853
-0.00285356
-0.000578772
-0.0031669
-0.000253444
-0.00279822
-0.00128086
-4.3942e-05
0.000310779
-0.000120316
0.00072027
-0.000191256
0.000945701
-0.000240335
0.0010484
-0.000263797
0.00107903
-0.00026328
0.00107151
-0.000242013
0.0010467
-0.000203251
0.00101652
-0.000149844
0.000987003
-8.43043e-05
0.00096031
-9.05609e-06
0.000935977
7.32422e-05
0.000911732
0.000159498
0.000883928
0.000245954
0.000848055
0.000328131
0.000799134
0.000400921
0.000732169
0.000458746
0.0006425
0.000495861
0.000526005
0.000506651
0.000378971
0.000485889
0.000197563
0.000428605
-2.28807e-05
0.000330865
-0.00029051
0.000189514
-0.000615019
4.83983e-06
-0.00101122
-0.000214051
-0.00149504
-0.000434929
-0.00207312
-0.000585554
-0.00270293
-0.000557657
-0.0031948
-0.000292634
-0.00306324
-0.00157349
-7.13165e-05
0.000382095
-0.000175035
0.000823989
-0.000256639
0.00102731
-0.000300007
0.00109177
-0.00030613
0.00108516
-0.000281125
0.0010465
-0.000231384
0.000996955
-0.000162151
0.000947287
-7.74497e-05
0.000902302
1.95442e-05
0.000863316
0.000126017
0.000829504
0.000239177
0.000798572
0.000355838
0.000767267
0.000472234
0.000731659
0.000583913
0.000687455
0.000685769
0.000630313
0.000772193
0.000556076
0.000837305
0.000460893
0.000875175
0.0003411
0.00087995
0.000192788
0.000845734
1.13358e-05
0.000766569
-0.000211345
0.000636077
-0.000484527
0.000448271
-0.000823417
0.000202093
-0.00124886
-8.62811e-05
-0.00178474
-0.000359036
-0.00243018
-0.000482231
-0.0030716
-0.000322267
-0.00322321
-0.00189576
-0.000120727
0.000502823
-0.000258846
0.000962108
-0.000342476
0.00111093
-0.00036443
0.00111372
-0.000335955
0.00105668
-0.000270407
0.000980955
-0.000178511
0.00090506
-6.78805e-05
0.000836656
5.63013e-05
0.00077812
0.000190391
0.000729226
0.000331559
0.000688336
0.000477176
0.000652956
0.000624411
0.000620032
0.000769936
0.000586134
0.000909764
0.000547627
0.00103923
0.000500844
0.00115308
0.000442227
0.00124559
0.000368382
0.00131071
0.000275985
0.00134201
0.000161488
0.00133257
2.07767e-05
0.00127473
-0.000153506
0.00115937
-0.000369169
0.000975683
-0.000639732
0.000712867
-0.000986048
0.000370151
-0.00144203
-1.20563e-05
-0.00204797
-0.000321613
-0.00276205
-0.000328704
-0.00321611
-0.00222446
-0.000208098
0.000710921
-0.000370562
0.00112457
-0.00041966
0.00116003
-0.00037941
0.00107347
-0.000279858
0.000957129
-0.000144285
0.000845382
1.21234e-05
0.000748651
0.000180156
0.000668624
0.000354434
0.000603842
0.000531828
0.000551832
0.00071032
0.000509844
0.000888243
0.000475033
0.00106377
0.0004445
0.0012346
0.000415308
0.00139771
0.000384514
0.00154933
0.000349225
0.00168491
0.000306649
0.0017992
0.000254094
0.00188629
0.000188894
0.00193947
0.000108308
0.00195035
9.89466e-06
0.00191066
-0.00011381
0.00180852
-0.000267028
0.00162965
-0.000460866
0.00135634
-0.000712736
0.000970886
-0.00105658
0.000476592
-0.00155367
-2.08266e-05
-0.00226463
-0.00026979
-0.00296715
-0.00249425
-0.000344504
0.00105542
-0.000437444
0.00121751
-0.000347782
0.00107037
-0.000160972
0.000886664
6.79542e-05
0.000728204
0.000310533
0.000602803
0.000552579
0.000506605
0.000787792
0.000433411
0.00101398
0.00037765
0.0012309
0.000334916
0.00143899
0.000301753
0.0016387
0.000275321
0.00183004
0.000253159
0.0020123
0.000233046
0.0021839
0.000212921
0.00234227
0.000190854
0.00248388
0.000165041
0.0026042
0.000133776
0.00269775
9.53409e-05
0.00275804
4.8017e-05
0.00277709
-9.15295e-06
0.00274468
-8.14005e-05
0.00264816
-0.000170506
0.00247119
-0.000283901
0.00219183
-0.000433378
0.00178115
-0.000645896
0.00120848
-0.000980999
0.000517533
-0.00157368
-2.27147e-05
-0.0024269
-0.00251697
-0.00030462
0.00136004
-5.42566e-05
0.000967148
0.000372491
0.000643623
0.000792304
0.000466851
0.00117469
0.000345821
0.00151566
0.00026183
0.00181783
0.000204436
0.00208636
0.000164877
0.002327
0.000137011
0.00254496
0.000116961
0.00274449
0.000102215
0.00292881
9.10011e-05
0.0031
8.19735e-05
0.003259
7.40453e-05
0.00340563
6.6296e-05
0.00353856
5.79199e-05
0.00365539
4.82057e-05
0.00375265
3.65194e-05
0.00382564
2.23545e-05
0.00386825
5.40188e-06
0.00387574
-1.664e-05
0.00383687
-4.25297e-05
0.00374052
-7.41568e-05
0.00357124
-0.00011462
0.00330614
-0.000168283
0.00290953
-0.000249282
0.00232211
-0.000393581
0.00148746
-0.000739028
0.000505466
-0.00144491
-0.0020115
0.00136004
0.00232719
0.00297082
0.00343767
0.00378349
0.00404532
0.00424975
0.00441463
0.00455164
0.0046686
0.00477082
0.00486182
0.00494379
0.00501784
0.00508413
0.00514205
0.00519026
0.00522678
0.00524913
0.00525454
0.0052379
0.00519537
0.00512121
0.00500659
0.00483831
0.00458902
0.00419544
0.00345641
0.0020115
)
;

boundaryField
{
    movingWall
    {
        type            calculated;
        value           uniform 0;
    }
    fixedWalls
    {
        type            calculated;
        value           uniform 0;
    }
    frontAndBack
    {
        type            empty;
        value           nonuniform 0();
    }
}


// ************************************************************************* //
