/*--------------------------------*- C++ -*----------------------------------*\
  =========                 |
  \\      /  F ield         | OpenFOAM: The Open Source CFD Toolbox
   \\    /   O peration     | Website:  https://openfoam.org
    \\  /    A nd           | Version:  7
     \\/     M anipulation  |
\*---------------------------------------------------------------------------*/
FoamFile
{
    version     2.0;
    format      ascii;
    class       volVectorField;
    location    "7.8";
    object      U;
}
// * * * * * * * * * * * * * * * * * * * * * * * * * * * * * * * * * * * * * //

dimensions      [0 1 -1 0 0 0 0];

internalField   nonuniform List<vector> 
900
(
(8.52638e-05 -8.414e-05 0)
(7.71594e-05 -7.59088e-07 0)
(-0.000260282 0.000102997 0)
(-0.000860948 0.00018175 0)
(-0.00165101 0.00023136 0)
(-0.00256285 0.000258084 0)
(-0.00354012 0.000269486 0)
(-0.00454067 0.000271072 0)
(-0.00553239 0.000265742 0)
(-0.00648789 0.0002543 0)
(-0.00738025 0.000236106 0)
(-0.00818018 0.000209696 0)
(-0.00885487 0.000173361 0)
(-0.00936836 0.000125723 0)
(-0.00968361 6.6322e-05 0)
(-0.00976606 -3.89472e-06 0)
(-0.00958812 -8.26304e-05 0)
(-0.00913475 -0.00016498 0)
(-0.0084092 -0.000244402 0)
(-0.00743695 -0.000313088 0)
(-0.00626769 -0.000362875 0)
(-0.00497411 -0.000386544 0)
(-0.00364665 -0.000379153 0)
(-0.00238484 -0.000339161 0)
(-0.00128583 -0.000268968 0)
(-0.000430864 -0.000175298 0)
(0.000120247 -7.05082e-05 0)
(0.000347017 3.26205e-05 0)
(0.00028926 0.000107044 0)
(9.90369e-05 9.91222e-05 0)
(3.50891e-06 -8.01154e-05 0)
(-0.000398193 0.000393191 0)
(-0.00151127 0.000910273 0)
(-0.00316654 0.00132324 0)
(-0.00523522 0.00160876 0)
(-0.00758617 0.00178106 0)
(-0.0100978 0.00186399 0)
(-0.0126686 0.00187783 0)
(-0.015213 0.00183489 0)
(-0.0176541 0.00173964 0)
(-0.0199168 0.00159058 0)
(-0.0219231 0.00138283 0)
(-0.0235904 0.00111088 0)
(-0.0248327 0.00077156 0)
(-0.0255662 0.000366749 0)
(-0.0257168 -9.43566e-05 0)
(-0.0252291 -0.000593183 0)
(-0.0240779 -0.00110123 0)
(-0.0222804 -0.00158163 0)
(-0.0199019 -0.00199208 0)
(-0.0170598 -0.00228977 0)
(-0.0139199 -0.00243779 0)
(-0.0106848 -0.00241177 0)
(-0.00757576 -0.0022055 0)
(-0.00480838 -0.00183423 0)
(-0.00256546 -0.00133588 0)
(-0.000971866 -0.000772458 0)
(-6.78091e-05 -0.000224144 0)
(0.000217226 0.000190592 0)
(0.000110691 0.000285613 0)
(-0.000110132 0.000264655 0)
(-0.000978242 0.00152182 0)
(-0.00290323 0.00276531 0)
(-0.00555197 0.00376611 0)
(-0.00874737 0.00447862 0)
(-0.012321 0.00492321 0)
(-0.0161103 0.00514181 0)
(-0.0199737 0.0051734 0)
(-0.0237868 0.0050434 0)
(-0.0274343 0.00476208 0)
(-0.030803 0.00432762 0)
(-0.033777 0.00373137 0)
(-0.0362357 0.00296432 0)
(-0.038057 0.00202381 0)
(-0.0391241 0.000920027 0)
(-0.0393353 -0.000318745 0)
(-0.0386168 -0.00164192 0)
(-0.0369378 -0.00297661 0)
(-0.0343244 -0.00423061 0)
(-0.0308689 -0.00529989 0)
(-0.026734 -0.00608043 0)
(-0.0221483 -0.00648312 0)
(-0.0173924 -0.00644952 0)
(-0.0127736 -0.00596542 0)
(-0.0085938 -0.00506948 0)
(-0.0051123 -0.00385598 0)
(-0.00250878 -0.00247343 0)
(-0.000848691 -0.00112137 0)
(-5.90792e-05 -5.60009e-05 0)
(6.81318e-05 0.000378453 0)
(-0.000213984 0.00092959 0)
(-0.00153198 0.00331324 0)
(-0.00424367 0.00548562 0)
(-0.0078273 0.00720624 0)
(-0.0120471 0.00843248 0)
(-0.0167021 0.00920098 0)
(-0.0216002 0.00957512 0)
(-0.0265727 0.00961317 0)
(-0.0314685 0.0093535 0)
(-0.0361459 0.00881185 0)
(-0.0404638 0.00798571 0)
(-0.0442779 0.00686275 0)
(-0.0474389 0.00543118 0)
(-0.0497962 0.00369089 0)
(-0.0512057 0.00166411 0)
(-0.0515413 -0.000595717 0)
(-0.0507098 -0.00299908 0)
(-0.0486676 -0.00541749 0)
(-0.045439 -0.00769028 0)
(-0.0411273 -0.0096368 0)
(-0.0359222 -0.011076 0)
(-0.0300975 -0.0118515 0)
(-0.0239949 -0.011859 0)
(-0.0179966 -0.0110703 0)
(-0.0124848 -0.00954962 0)
(-0.00779509 -0.00745906 0)
(-0.00416912 -0.00505347 0)
(-0.00171025 -0.00266992 0)
(-0.000364181 -0.000717323 0)
(2.35449e-05 0.000304918 0)
(-0.00030158 0.00188219 0)
(-0.00202938 0.00573048 0)
(-0.00547474 0.00902283 0)
(-0.00992664 0.0115709 0)
(-0.0150865 0.0133704 0)
(-0.0207207 0.0144918 0)
(-0.0266132 0.0150274 0)
(-0.0325767 0.0150571 0)
(-0.0384437 0.0146322 0)
(-0.0440552 0.0137732 0)
(-0.0492524 0.0124756 0)
(-0.0538707 0.0107224 0)
(-0.0577388 0.00849812 0)
(-0.0606813 0.00580476 0)
(-0.0625272 0.00267694 0)
(-0.0631228 -0.000805517 0)
(-0.0623458 -0.00451051 0)
(-0.0601263 -0.0082475 0)
(-0.056469 -0.0117777 0)
(-0.0514694 -0.0148303 0)
(-0.0453267 -0.0171301 0)
(-0.0383458 -0.0184345 0)
(-0.0309245 -0.0185755 0)
(-0.023523 -0.017498 0)
(-0.0166159 -0.0152879 0)
(-0.0106338 -0.0121813 0)
(-0.00590167 -0.0085556 0)
(-0.00257981 -0.00490503 0)
(-0.000646814 -0.00180881 0)
(-7.15123e-06 7.47178e-05 0)
(-0.000375026 0.00308958 0)
(-0.0024686 0.00872265 0)
(-0.00658405 0.0133226 0)
(-0.0118345 0.0168013 0)
(-0.01786 0.019227 0)
(-0.0243952 0.020725 0)
(-0.0312044 0.0214275 0)
(-0.038088 0.0214407 0)
(-0.0448703 0.0208303 0)
(-0.0513846 0.0196203 0)
(-0.0574622 0.0178029 0)
(-0.062926 0.0153532 0)
(-0.0675872 0.0122485 0)
(-0.0712473 0.00848876 0)
(-0.0737054 0.00411656 0)
(-0.0747716 -0.000765334 0)
(-0.07428 -0.00598216 0)
(-0.0721136 -0.0112806 0)
(-0.0682351 -0.0163358 0)
(-0.0627075 -0.0207716 0)
(-0.055718 -0.0241966 0)
(-0.0475893 -0.0262547 0)
(-0.038773 -0.0266852 0)
(-0.0298193 -0.0253822 0)
(-0.021321 -0.0224401 0)
(-0.0138384 -0.0181718 0)
(-0.00781611 -0.0130955 0)
(-0.00350052 -0.00789164 0)
(-0.000916988 -0.00334162 0)
(-2.44397e-05 -0.000290566 0)
(-0.000437796 0.0045201 0)
(-0.00285617 0.0122317 0)
(-0.007577 0.0183176 0)
(-0.0135571 0.0228274 0)
(-0.0203803 0.0259326 0)
(-0.0277533 0.0278345 0)
(-0.0354247 0.0287179 0)
(-0.0431896 0.0287222 0)
(-0.0508715 0.0279295 0)
(-0.0583042 0.0263675 0)
(-0.0653178 0.0240216 0)
(-0.0717292 0.0208546 0)
(-0.077337 0.0168298 0)
(-0.0819199 0.0119366 0)
(-0.0852419 0.00621532 0)
(-0.0870646 -0.000218046 0)
(-0.0871617 -0.00715063 0)
(-0.0853455 -0.0142724 0)
(-0.0815054 -0.0211663 0)
(-0.0756413 -0.0273345 0)
(-0.0679 -0.0322413 0)
(-0.0586025 -0.0353786 0)
(-0.0482494 -0.0363489 0)
(-0.037495 -0.0349549 0)
(-0.0270848 -0.0312725 0)
(-0.0177587 -0.0256877 0)
(-0.0101347 -0.0188813 0)
(-0.0045893 -0.0117627 0)
(-0.0012169 -0.00536833 0)
(-3.49042e-05 -0.00078613 0)
(-0.000492334 0.00614689 0)
(-0.00319841 0.016203 0)
(-0.00846199 0.0239419 0)
(-0.0151045 0.0295818 0)
(-0.0226614 0.0334245 0)
(-0.0308166 0.0357674 0)
(-0.0393091 0.0368613 0)
(-0.0479347 0.0368868 0)
(-0.0565244 0.0359459 0)
(-0.0649208 0.0340696 0)
(-0.0729613 0.0312335 0)
(-0.0804645 0.0273811 0)
(-0.0872209 0.0224517 0)
(-0.0929875 0.0164106 0)
(-0.0974887 0.00928073 0)
(-0.100423 0.00117478 0)
(-0.101486 -0.00767527 0)
(-0.100396 -0.0169077 0)
(-0.0969297 -0.026012 0)
(-0.0909875 -0.0343534 0)
(-0.0826383 -0.0412187 0)
(-0.0721706 -0.045897 0)
(-0.0601185 -0.0477916 0)
(-0.0472492 -0.0465499 0)
(-0.0344973 -0.0421807 0)
(-0.0228446 -0.0351256 0)
(-0.0131582 -0.0262515 0)
(-0.00601124 -0.016757 0)
(-0.00160766 -0.00801308 0)
(-4.81105e-05 -0.00143715 0)
(-0.000539711 0.00794647 0)
(-0.00349843 0.0205851 0)
(-0.00924336 0.030132 0)
(-0.0164811 0.0370001 0)
(-0.0247079 0.0416448 0)
(-0.033591 0.0444784 0)
(-0.042866 0.0458318 0)
(-0.0523369 0.0459351 0)
(-0.0618496 0.0449151 0)
(-0.0712646 0.042806 0)
(-0.0804357 0.0395696 0)
(-0.0891912 0.0351219 0)
(-0.0973196 0.0293649 0)
(-0.104559 0.0222219 0)
(-0.11059 0.0136762 0)
(-0.115042 0.00381307 0)
(-0.117514 -0.00714226 0)
(-0.117597 -0.0187904 0)
(-0.114928 -0.0305333 0)
(-0.109261 -0.0415874 0)
(-0.100541 -0.0510266 0)
(-0.0889776 -0.0578768 0)
(-0.0751056 -0.0612596 0)
(-0.0597953 -0.0605738 0)
(-0.0441988 -0.0556797 0)
(-0.0296093 -0.0470313 0)
(-0.0172417 -0.0356984 0)
(-0.00796421 -0.0232452 0)
(-0.0021612 -0.0114907 0)
(-7.42666e-05 -0.00230421 0)
(-0.000579927 0.00989625 0)
(-0.00375593 0.0253274 0)
(-0.00991948 0.0368241 0)
(-0.0176825 0.0450162 0)
(-0.0265105 0.0505332 0)
(-0.0360609 0.05392 0)
(-0.0460721 0.0556011 0)
(-0.0563628 0.0558659 0)
(-0.0668019 0.0548709 0)
(-0.0772768 0.0526548 0)
(-0.0876664 0.0491615 0)
(-0.097818 0.0442698 0)
(-0.107526 0.0378285 0)
(-0.116513 0.0296964 0)
(-0.12442 0.0197895 0)
(-0.130802 0.00813276 0)
(-0.135148 -0.00508351 0)
(-0.136905 -0.0194482 0)
(-0.135534 -0.0342947 0)
(-0.130606 -0.0486861 0)
(-0.121885 -0.061453 0)
(-0.109443 -0.071294 0)
(-0.0937544 -0.0769501 0)
(-0.075752 -0.0774462 0)
(-0.0568074 -0.0723665 0)
(-0.0385876 -0.0620883 0)
(-0.0227742 -0.0478758 0)
(-0.0106704 -0.0317465 0)
(-0.00295771 -0.0161207 0)
(-0.000123925 -0.00348806 0)
(-0.000612268 0.0119726 0)
(-0.00396789 0.0303771 0)
(-0.0104832 0.0439505 0)
(-0.018695 0.0535578 0)
(-0.028046 0.0600205 0)
(-0.0381889 0.0640325 0)
(-0.0488705 0.0661253 0)
(-0.05993 0.0666579 0)
(-0.0712663 0.065823 0)
(-0.0828009 0.0636653 0)
(-0.0944471 0.0601071 0)
(-0.10608 0.0549801 0)
(-0.117509 0.0480626 0)
(-0.128452 0.0391246 0)
(-0.138513 0.0279827 0)
(-0.147178 0.0145647 0)
(-0.153823 -0.00101309 0)
(-0.157747 -0.0183601 0)
(-0.158222 -0.0367726 0)
(-0.154598 -0.0551704 0)
(-0.146409 -0.0721248 0)
(-0.133514 -0.0859535 0)
(-0.116237 -0.0949133 0)
(-0.0954901 -0.0975015 0)
(-0.0728144 -0.0928417 0)
(-0.0502786 -0.0810735 0)
(-0.0301557 -0.063589 0)
(-0.0143711 -0.0429375 0)
(-0.00408566 -0.0223379 0)
(-0.000208413 -0.00513326 0)
(-0.000635653 0.0141494 0)
(-0.00412983 0.0356769 0)
(-0.0109242 0.0514369 0)
(-0.019499 0.0625427 0)
(-0.0292801 0.0700228 0)
(-0.0399193 0.0747348 0)
(-0.051175 0.0773312 0)
(-0.0629111 0.0782512 0)
(-0.0750604 0.0777312 0)
(-0.0875846 0.0758244 0)
(-0.100438 0.0724291 0)
(-0.113532 0.0673203 0)
(-0.1267 0.0601892 0)
(-0.139665 0.0506926 0)
(-0.152012 0.0385156 0)
(-0.163169 0.0234525 0)
(-0.172414 0.00550341 0)
(-0.17891 -0.0150167 0)
(-0.181754 -0.0373932 0)
(-0.18006 -0.060436 0)
(-0.173095 -0.0824696 0)
(-0.160431 -0.101405 0)
(-0.142127 -0.114929 0)
(-0.118934 -0.120846 0)
(-0.0924363 -0.11758 0)
(-0.0650603 -0.104766 0)
(-0.0397635 -0.0837527 0)
(-0.0193206 -0.0576465 0)
(-0.00564369 -0.0307008 0)
(-0.000340922 -0.00743279 0)
(-0.000649018 0.016398 0)
(-0.00423752 0.0411644 0)
(-0.0112323 0.0592006 0)
(-0.020074 0.0718751 0)
(-0.0301751 0.0804351 0)
(-0.041187 0.0859156 0)
(-0.0528806 0.0891031 0)
(-0.065145 0.0905289 0)
(-0.0779484 0.0904804 0)
(-0.0912945 0.089024 0)
(-0.105182 0.0860321 0)
(-0.119564 0.0812159 0)
(-0.134307 0.0741655 0)
(-0.149153 0.064403 0)
(-0.163684 0.0514549 0)
(-0.177302 0.0349481 0)
(-0.189225 0.0147269 0)
(-0.198514 -0.00901755 0)
(-0.204122 -0.035607 0)
(-0.204962 -0.0637948 0)
(-0.200025 -0.0917084 0)
(-0.188538 -0.116876 0)
(-0.170174 -0.136377 0)
(-0.14533 -0.147184 0)
(-0.11542 -0.146738 0)
(-0.0830603 -0.133794 0)
(-0.0518941 -0.109304 0)
(-0.0257742 -0.0768281 0)
(-0.00774302 -0.0418958 0)
(-0.000538252 -0.0106344 0)
(-0.000651787 0.0186874 0)
(-0.00428927 0.0467732 0)
(-0.0114028 0.0671513 0)
(-0.0204067 0.0814453 0)
(-0.0306998 0.0911288 0)
(-0.0419308 0.0974268 0)
(-0.0538801 0.101273 0)
(-0.066459 0.103301 0)
(-0.079668 0.103859 0)
(-0.0935506 0.103031 0)
(-0.108149 0.100664 0)
(-0.123458 0.0964019 0)
(-0.139386 0.089724 0)
(-0.155707 0.0800042 0)
(-0.172026 0.0665916 0)
(-0.187756 0.0489219 0)
(-0.202111 0.0266545 0)
(-0.214115 -0.000174783 0)
(-0.222645 -0.0309921 0)
(-0.226482 -0.0645597 0)
(-0.224382 -0.0989038 0)
(-0.215209 -0.13126 0)
(-0.19815 -0.158148 0)
(-0.173041 -0.175635 0)
(-0.140821 -0.179925 0)
(-0.103976 -0.168404 0)
(-0.0666638 -0.141044 0)
(-0.0339589 -0.1015 0)
(-0.0105074 -0.0567316 0)
(-0.00082292 -0.0150484 0)
(-0.000644434 0.0209867 0)
(-0.00428873 0.0524369 0)
(-0.0114427 0.0751951 0)
(-0.0205009 0.0911316 0)
(-0.030844 0.101952 0)
(-0.0421114 0.109081 0)
(-0.0540872 0.113613 0)
(-0.066698 0.116296 0)
(-0.07997 0.117546 0)
(-0.0939786 0.117471 0)
(-0.108803 0.115895 0)
(-0.124481 0.112394 0)
(-0.140962 0.106337 0)
(-0.158068 0.0969458 0)
(-0.175456 0.0833888 0)
(-0.192596 0.0649044 0)
(-0.208761 0.0409549 0)
(-0.223029 0.0113949 0)
(-0.234293 -0.0233592 0)
(-0.241309 -0.0621625 0)
(-0.242699 -0.103071 0)
(-0.237006 -0.14319 0)
(-0.222887 -0.178633 0)
(-0.199448 -0.204627 0)
(-0.166809 -0.215973 0)
(-0.126864 -0.208179 0)
(-0.0838595 -0.179405 0)
(-0.0440155 -0.132622 0)
(-0.0140664 -0.0761151 0)
(-0.00122509 -0.0210556 0)
(-0.000629149 0.0232687 0)
(-0.00424831 0.0580967 0)
(-0.0113783 0.0832421 0)
(-0.0203893 0.100807 0)
(-0.0306337 0.112732 0)
(-0.0417322 0.120655 0)
(-0.0534637 0.125841 0)
(-0.0657614 0.129162 0)
(-0.0786667 0.131112 0)
(-0.0922772 0.131827 0)
(-0.1067 0.131115 0)
(-0.122007 0.128491 0)
(-0.138195 0.123218 0)
(-0.155145 0.11438 0)
(-0.172593 0.100976 0)
(-0.190114 0.082062 0)
(-0.20711 0.0569149 0)
(-0.222803 0.0252042 0)
(-0.236214 -0.0128446 0)
(-0.246204 -0.0562978 0)
(-0.2514 -0.103357 0)
(-0.250141 -0.151222 0)
(-0.240612 -0.19587 0)
(-0.221106 -0.231919 0)
(-0.19064 -0.252804 0)
(-0.149971 -0.251758 0)
(-0.102758 -0.224131 0)
(-0.0559042 -0.170894 0)
(-0.0185396 -0.100991 0)
(-0.00178443 -0.0291098 0)
(-0.000610656 0.0255159 0)
(-0.00419324 0.0637124 0)
(-0.0112641 0.0912185 0)
(-0.0201465 0.11035 0)
(-0.0301486 0.123289 0)
(-0.0408608 0.131897 0)
(-0.0520474 0.137625 0)
(-0.0636392 0.141479 0)
(-0.0756828 0.144036 0)
(-0.088287 0.145468 0)
(-0.101577 0.145574 0)
(-0.115653 0.143819 0)
(-0.130558 0.139379 0)
(-0.146244 0.131221 0)
(-0.162553 0.11821 0)
(-0.179204 0.0992522 0)
(-0.195786 0.0734692 0)
(-0.211749 0.0403653 0)
(-0.226368 -3.48591e-05 0)
(-0.238714 -0.0470849 0)
(-0.247552 -0.0992651 0)
(-0.251228 -0.154119 0)
(-0.24761 -0.20784 0)
(-0.234245 -0.254844 0)
(-0.208906 -0.287505 0)
(-0.170745 -0.296669 0)
(-0.121984 -0.273942 0)
(-0.0692863 -0.216466 0)
(-0.0240124 -0.13223 0)
(-0.00255274 -0.0397333 0)
(-0.000597359 0.027729 0)
(-0.00416668 0.0692789 0)
(-0.0111928 0.0990834 0)
(-0.0199033 0.119659 0)
(-0.0295391 0.133443 0)
(-0.0396486 0.142542 0)
(-0.0499754 0.148604 0)
(-0.0604426 0.152781 0)
(-0.0710958 0.15574 0)
(-0.0820471 0.157692 0)
(-0.0934323 0.15844 0)
(-0.105378 0.157413 0)
(-0.117973 0.153728 0)
(-0.131253 0.146271 0)
(-0.145185 0.133813 0)
(-0.159663 0.115163 0)
(-0.174501 0.0893313 0)
(-0.189431 0.0556891 0)
(-0.204066 0.0140768 0)
(-0.217777 -0.0351268 0)
(-0.229609 -0.0908463 0)
(-0.238111 -0.151177 0)
(-0.241078 -0.212901 0)
(-0.235546 -0.270769 0)
(-0.218131 -0.316685 0)
(-0.186125 -0.33943 0)
(-0.139515 -0.326316 0)
(-0.0834222 -0.268599 0)
(-0.0305098 -0.170461 0)
(-0.00359942 -0.0535023 0)
(-0.00060326 0.0299383 0)
(-0.00423714 0.0748471 0)
(-0.0113085 0.10685 0)
(-0.0198614 0.12867 0)
(-0.0290406 0.143034 0)
(-0.0383448 0.152324 0)
(-0.0474981 0.158408 0)
(-0.0564195 0.162589 0)
(-0.0651549 0.16563 0)
(-0.0738195 0.167789 0)
(-0.0825595 0.16888 0)
(-0.0915273 0.168321 0)
(-0.100866 0.1652 0)
(-0.110703 0.158364 0)
(-0.121143 0.146544 0)
(-0.132272 0.128502 0)
(-0.144154 0.103195 0)
(-0.156815 0.069905 0)
(-0.17021 0.0283226 0)
(-0.184082 -0.0214208 0)
(-0.197872 -0.0787459 0)
(-0.21047 -0.142445 0)
(-0.219873 -0.210205 0)
(-0.222963 -0.277674 0)
(-0.215537 -0.337093 0)
(-0.19311 -0.376001 0)
(-0.152918 -0.377545 0)
(-0.0971442 -0.325367 0)
(-0.0379772 -0.215839 0)
(-0.00502337 -0.071027 0)
(-0.00065176 0.0322214 0)
(-0.00451041 0.0805529 0)
(-0.0118244 0.114609 0)
(-0.020311 0.13737 0)
(-0.0289859 0.151929 0)
(-0.0373017 0.160992 0)
(-0.0449785 0.166672 0)
(-0.0519477 0.170436 0)
(-0.0582692 0.17314 0)
(-0.0640712 0.175098 0)
(-0.0695175 0.176143 0)
(-0.0747942 0.175706 0)
(-0.0801057 0.172879 0)
(-0.085678 0.166517 0)
(-0.0917631 0.155359 0)
(-0.0986419 0.138176 0)
(-0.106618 0.11392 0)
(-0.116004 0.0818334 0)
(-0.127069 0.0415036 0)
(-0.139919 -0.00717036 0)
(-0.15442 -0.064096 0)
(-0.169899 -0.128751 0)
(-0.184786 -0.199921 0)
(-0.196212 -0.274622 0)
(-0.199687 -0.346305 0)
(-0.189395 -0.402486 0)
(-0.159773 -0.423148 0)
(-0.10894 -0.383551 0)
(-0.0462729 -0.267789 0)
(-0.00697464 -0.0929392 0)
(-0.000783773 0.0347301 0)
(-0.00515114 0.0866543 0)
(-0.0130491 0.122555 0)
(-0.0216497 0.145814 0)
(-0.0298113 0.160027 0)
(-0.0369662 0.168309 0)
(-0.0428686 0.17305 0)
(-0.0474979 0.175885 0)
(-0.0509557 0.177766 0)
(-0.0534032 0.179053 0)
(-0.0550377 0.179618 0)
(-0.0560902 0.178918 0)
(-0.0568349 0.176085 0)
(-0.0576009 0.170022 0)
(-0.0587832 0.159522 0)
(-0.0608452 0.143407 0)
(-0.0643078 0.120661 0)
(-0.0697224 0.0905236 0)
(-0.0776243 0.0525041 0)
(-0.0884753 0.00630968 0)
(-0.102465 -0.0483148 0)
(-0.119343 -0.111522 0)
(-0.138164 -0.183195 0)
(-0.156656 -0.261958 0)
(-0.170652 -0.343211 0)
(-0.173758 -0.415863 0)
(-0.158082 -0.458547 0)
(-0.117133 -0.438832 0)
(-0.055151 -0.324769 0)
(-0.00967952 -0.119895 0)
(-0.00107549 0.0377383 0)
(-0.00642283 0.0935833 0)
(-0.0154273 0.131008 0)
(-0.0244043 0.154115 0)
(-0.0320498 0.167244 0)
(-0.0378446 0.174037 0)
(-0.0416489 0.177201 0)
(-0.0435486 0.178535 0)
(-0.0437289 0.179069 0)
(-0.0424133 0.179209 0)
(-0.0398517 0.178859 0)
(-0.0363328 0.177526 0)
(-0.0322048 0.174405 0)
(-0.0278959 0.16848 0)
(-0.0239305 0.158633 0)
(-0.0209278 0.143766 0)
(-0.019587 0.122919 0)
(-0.0206541 0.0953448 0)
(-0.0248679 0.0604953 0)
(-0.0329012 0.0179317 0)
(-0.0452354 -0.0328182 0)
(-0.062049 -0.0924794 0)
(-0.0829762 -0.161856 0)
(-0.106582 -0.241147 0)
(-0.129593 -0.328133 0)
(-0.145961 -0.41444 0)
(-0.146421 -0.479733 0)
(-0.120026 -0.486222 0)
(-0.0641882 -0.384114 0)
(-0.0134436 -0.152586 0)
(-0.00167673 0.0417275 0)
(-0.00876171 0.102012 0)
(-0.0195969 0.140418 0)
(-0.0292383 0.162406 0)
(-0.0362829 0.173454 0)
(-0.0404028 0.177887 0)
(-0.0416834 0.17875 0)
(-0.0404003 0.177982 0)
(-0.036876 0.176662 0)
(-0.0314294 0.175215 0)
(-0.0243819 0.173574 0)
(-0.0160873 0.171299 0)
(-0.00696327 0.167666 0)
(0.00247878 0.16176 0)
(0.0116107 0.152572 0)
(0.0196966 0.139106 0)
(0.0259125 0.120471 0)
(0.0293796 0.0959375 0)
(0.0292227 0.0649211 0)
(0.0246281 0.0268783 0)
(0.014903 -0.0188661 0)
(-0.000465164 -0.0733651 0)
(-0.0216494 -0.138043 0)
(-0.0481226 -0.214388 0)
(-0.0778993 -0.302587 0)
(-0.106198 -0.397923 0)
(-0.123698 -0.483679 0)
(-0.115855 -0.520553 0)
(-0.0725808 -0.441954 0)
(-0.018571 -0.19168 0)
(-0.00289064 0.047551 0)
(-0.0129047 0.112926 0)
(-0.0264451 0.151315 0)
(-0.0368922 0.17073 0)
(-0.0429631 0.17837 0)
(-0.0447862 0.179402 0)
(-0.0428514 0.177189 0)
(-0.0377306 0.173746 0)
(-0.0299433 0.170134 0)
(-0.0199343 0.166756 0)
(-0.00810836 0.163552 0)
(0.00511977 0.160129 0)
(0.0192773 0.155847 0)
(0.0337985 0.149897 0)
(0.0480003 0.141393 0)
(0.061084 0.129446 0)
(0.0721577 0.113241 0)
(0.0802722 0.0920719 0)
(0.0844741 0.0653249 0)
(0.0838528 0.0323782 0)
(0.07755 -0.00756744 0)
(0.0648263 -0.0557152 0)
(0.045052 -0.113807 0)
(0.0178697 -0.184133 0)
(-0.0161623 -0.268819 0)
(-0.0542607 -0.367177 0)
(-0.088606 -0.468397 0)
(-0.102461 -0.536709 0)
(-0.0787464 -0.493043 0)
(-0.0250946 -0.237515 0)
(-0.00532846 0.0567524 0)
(-0.0200826 0.127673 0)
(-0.0370674 0.164106 0)
(-0.0478548 0.178753 0)
(-0.051828 0.181256 0)
(-0.0500209 0.177705 0)
(-0.0435745 0.171665 0)
(-0.03348 0.165079 0)
(-0.0205095 0.158888 0)
(-0.0052533 0.153405 0)
(0.0118066 0.148536 0)
(0.0302144 0.14391 0)
(0.0494776 0.138958 0)
(0.0690265 0.13298 0)
(0.0881805 0.125206 0)
(0.106144 0.114857 0)
(0.122024 0.101197 0)
(0.134858 0.0835554 0)
(0.14366 0.0613082 0)
(0.147448 0.0337946 0)
(0.145238 0.000172107 0)
(0.136073 -0.0407722 0)
(0.118927 -0.0908392 0)
(0.0927522 -0.152598 0)
(0.0567561 -0.229349 0)
(0.0113274 -0.323966 0)
(-0.0388342 -0.432923 0)
(-0.076602 -0.529506 0)
(-0.0797703 -0.530361 0)
(-0.0322557 -0.289556 0)
(-0.0101757 0.0722208 0)
(-0.0322063 0.147828 0)
(-0.052223 0.178512 0)
(-0.0610844 0.185111 0)
(-0.060058 0.180331 0)
(-0.051766 0.170997 0)
(-0.0382975 0.160556 0)
(-0.0211698 0.150633 0)
(-0.00142606 0.141881 0)
(0.0202236 0.134419 0)
(0.0432623 0.128059 0)
(0.0672522 0.122411 0)
(0.091751 0.116957 0)
(0.116256 0.111087 0)
(0.140164 0.104143 0)
(0.162757 0.0954565 0)
(0.183209 0.0843808 0)
(0.200605 0.0703042 0)
(0.213962 0.0526322 0)
(0.222252 0.0307266 0)
(0.224355 0.00379409 0)
(0.219106 -0.0293129 0)
(0.205132 -0.0702048 0)
(0.18082 -0.121309 0)
(0.144336 -0.186295 0)
(0.0939832 -0.270445 0)
(0.0300382 -0.377545 0)
(-0.0327272 -0.493821 0)
(-0.0709004 -0.544987 0)
(-0.0379004 -0.346126 0)
(-0.0194792 0.0990533 0)
(-0.0514345 0.173891 0)
(-0.0695501 0.191928 0)
(-0.0694749 0.185914 0)
(-0.0567884 0.171577 0)
(-0.0364577 0.155698 0)
(-0.0116562 0.14092 0)
(0.0156686 0.128129 0)
(0.0443649 0.117451 0)
(0.0737723 0.108683 0)
(0.103494 0.101467 0)
(0.133246 0.0953592 0)
(0.162753 0.0898649 0)
(0.191684 0.0844538 0)
(0.219602 0.0785765 0)
(0.245947 0.0716834 0)
(0.270028 0.0632393 0)
(0.29103 0.0527276 0)
(0.308026 0.039633 0)
(0.319981 0.0234022 0)
(0.325622 0.00337001 0)
(0.32364 -0.0213387 0)
(0.312362 -0.0520495 0)
(0.289719 -0.0907976 0)
(0.25308 -0.140881 0)
(0.199244 -0.208405 0)
(0.125092 -0.302897 0)
(0.0387931 -0.426626 0)
(-0.0446248 -0.527482 0)
(-0.0373845 -0.40256 0)
(-0.0348528 0.143207 0)
(-0.0743351 0.19867 0)
(-0.0706296 0.193241 0)
(-0.0449879 0.170315 0)
(-0.00883832 0.146034 0)
(0.0312683 0.124985 0)
(0.072048 0.107845 0)
(0.111995 0.0942113 0)
(0.150504 0.0834665 0)
(0.18743 0.0750119 0)
(0.222822 0.0683074 0)
(0.256778 0.0628613 0)
(0.289349 0.0582147 0)
(0.320488 0.0539298 0)
(0.350012 0.0495843 0)
(0.377579 0.0447724 0)
(0.402685 0.039107 0)
(0.424662 0.0322174 0)
(0.442678 0.0237349 0)
(0.455751 0.0132598 0)
(0.462641 0.000283055 0)
(0.461963 -0.0156537 0)
(0.451776 -0.0354632 0)
(0.429804 -0.0606185 0)
(0.392884 -0.093577 0)
(0.337172 -0.139641 0)
(0.256312 -0.210233 0)
(0.152198 -0.324714 0)
(0.0149436 -0.465762 0)
(-0.017253 -0.441597 0)
(-0.0376845 0.235686 0)
(-0.0483334 0.203009 0)
(0.0264367 0.152438 0)
(0.0981055 0.116794 0)
(0.165121 0.0904746 0)
(0.225555 0.0712583 0)
(0.279112 0.0574785 0)
(0.326514 0.0475516 0)
(0.368759 0.0402904 0)
(0.406799 0.0348973 0)
(0.441439 0.0308226 0)
(0.473306 0.0276561 0)
(0.502842 0.0250692 0)
(0.530303 0.022783 0)
(0.555754 0.0205517 0)
(0.579073 0.0181528 0)
(0.599949 0.0153841 0)
(0.61789 0.012059 0)
(0.632228 0.00800629 0)
(0.642066 0.0030522 0)
(0.646454 -0.00296354 0)
(0.64417 -0.0103858 0)
(0.633329 -0.0196232 0)
(0.611873 -0.0313561 0)
(0.576433 -0.0468516 0)
(0.523378 -0.069494 0)
(0.442886 -0.107532 0)
(0.333505 -0.188057 0)
(0.143258 -0.335817 0)
(0.0605748 -0.412737 0)
(0.231255 0.158598 0)
(0.29115 0.116933 0)
(0.440213 0.0757244 0)
(0.538637 0.0504125 0)
(0.605359 0.0341443 0)
(0.654738 0.0234755 0)
(0.692939 0.01658 0)
(0.7233 0.0121425 0)
(0.748131 0.00925127 0)
(0.769046 0.00733174 0)
(0.78713 0.0060287 0)
(0.803103 0.00511342 0)
(0.817428 0.00443007 0)
(0.830372 0.00386635 0)
(0.842037 0.00333669 0)
(0.852385 0.00277259 0)
(0.86125 0.00211785 0)
(0.868355 0.00132359 0)
(0.873327 0.000355746 0)
(0.875704 -0.000825218 0)
(0.874883 -0.00215672 0)
(0.870112 -0.00382751 0)
(0.860483 -0.00593471 0)
(0.845005 -0.00860152 0)
(0.821292 -0.0120826 0)
(0.787625 -0.0174241 0)
(0.732324 -0.0268162 0)
(0.655561 -0.048823 0)
(0.453992 -0.109932 0)
(0.31315 -0.177431 0)
)
;

boundaryField
{
    movingWall
    {
        type            fixedValue;
        value           uniform (1 0 0);
    }
    fixedWalls
    {
        type            noSlip;
    }
    frontAndBack
    {
        type            empty;
    }
}


// ************************************************************************* //
