/*--------------------------------*- C++ -*----------------------------------*\
  =========                 |
  \\      /  F ield         | OpenFOAM: The Open Source CFD Toolbox
   \\    /   O peration     | Website:  https://openfoam.org
    \\  /    A nd           | Version:  7
     \\/     M anipulation  |
\*---------------------------------------------------------------------------*/
FoamFile
{
    version     2.0;
    format      ascii;
    class       volVectorField;
    location    "0.88";
    object      U;
}
// * * * * * * * * * * * * * * * * * * * * * * * * * * * * * * * * * * * * * //

dimensions      [0 1 -1 0 0 0 0];

internalField   nonuniform List<vector> 
1936
(
(-15.2207 3.02583 0)
(-65.7492 195.34 0)
(-14.1609 398.286 0)
(1.37213 384.333 0)
(-10.3994 359.572 0)
(-5.45638 382.008 0)
(5.08327 388.592 0)
(15.8724 356.187 0)
(16.8391 305.267 0)
(7.98053 272.969 0)
(-4.52462 269.636 0)
(-13.6184 304.68 0)
(-20.3842 412.328 0)
(16.4061 465.678 0)
(44.102 348.185 0)
(28.331 237.621 0)
(14.4982 223.836 0)
(-0.626341 244.012 0)
(-20.4325 335.363 0)
(-15.5126 446.775 0)
(22.9804 404.025 0)
(23.1872 266.084 0)
(-4.3848 218.737 0)
(-12.9181 230.098 0)
(-32.5275 316.802 0)
(-15.5204 463.746 0)
(35.1387 433.238 0)
(32.0146 274.391 0)
(10.7667 213.422 0)
(-0.723649 215.262 0)
(-25.1737 289.643 0)
(-22.0391 449.552 0)
(29.9013 447.545 0)
(34.6105 282.808 0)
(8.88306 211.099 0)
(-1.99195 216.582 0)
(-23.5719 281.356 0)
(-28.5893 433.603 0)
(19.2411 453.74 0)
(38.8079 298.37 0)
(12.7411 215.076 0)
(3.30673 214.373 0)
(-23.3725 281.399 0)
(-25.2569 434.64 0)
(-16.4808 7.41165 0)
(-73.3467 -0.407869 0)
(-17.6734 -4.14691 0)
(-0.595462 -1.45739 0)
(-11.9545 -0.153447 0)
(-6.11668 -1.36036 0)
(4.72355 -1.87063 0)
(14.8512 -1.02699 0)
(14.7877 0.621321 0)
(6.45398 2.04269 0)
(-2.51554 2.25876 0)
(-11.0624 0.598041 0)
(-21.0304 -2.93541 0)
(16.2859 -4.50931 0)
(42.4107 -1.67344 0)
(22.2934 2.02073 0)
(13.0949 3.40981 0)
(1.16937 2.95982 0)
(-22.561 0.736015 0)
(-17.0475 -2.89239 0)
(23.0817 -3.08945 0)
(20.2518 1.31096 0)
(-5.07907 3.72315 0)
(-7.14923 2.58519 0)
(-30.1336 -1.06721 0)
(-16.677 -4.8695 0)
(35.8037 -3.57951 0)
(28.6483 0.818784 0)
(6.89954 3.44167 0)
(2.98323 3.52398 0)
(-23.2537 0.499086 0)
(-23.6369 -3.88818 0)
(30.7196 -3.96605 0)
(31.277 0.417935 0)
(4.43824 3.53002 0)
(1.3955 3.46213 0)
(-21.9993 1.11786 0)
(-30.3868 -3.11081 0)
(19.6919 -4.82248 0)
(35.0827 -0.802032 0)
(7.62989 3.22649 0)
(6.17199 3.77637 0)
(-21.3361 1.06384 0)
(-26.931 -3.21818 0)
(-6.05661 15.4825 0)
(-68.9334 -0.200667 0)
(-21.0684 -9.03362 0)
(-2.43776 -3.17062 0)
(-10.1233 -0.345136 0)
(-5.81188 -2.84829 0)
(4.58613 -3.8818 0)
(14.7632 -2.0499 0)
(14.5664 1.36477 0)
(5.81598 4.02429 0)
(-2.95178 4.45083 0)
(-11.748 1.61992 0)
(-22.8847 -5.90896 0)
(14.9344 -9.61577 0)
(41.2647 -2.83951 0)
(16.3724 4.66483 0)
(4.37141 6.6423 0)
(-6.39482 6.01061 0)
(-25.9945 1.3551 0)
(-13.2732 -6.72637 0)
(28.0482 -6.42856 0)
(22.5785 3.00651 0)
(-0.52598 7.17361 0)
(-3.04895 5.41794 0)
(-29.9291 -1.31705 0)
(-19.0294 -10.2736 0)
(35.5461 -7.58318 0)
(29.0957 2.29191 0)
(4.56483 6.8709 0)
(0.305731 7.03598 0)
(-26.0278 1.56098 0)
(-25.6164 -8.41172 0)
(31.5522 -8.49251 0)
(31.6588 1.55135 0)
(2.2583 7.13722 0)
(-1.3022 6.85992 0)
(-25.2532 2.70487 0)
(-29.7098 -6.84879 0)
(23.345 -10.1491 0)
(34.5212 -0.759811 0)
(2.72785 6.61655 0)
(1.08704 7.37443 0)
(-25.1015 2.5863 0)
(-28.6988 -7.14762 0)
(4.10179 21.6867 0)
(-57.7647 1.19573 0)
(-20.4401 -12.4954 0)
(-7.55929 -5.23028 0)
(-9.94518 -1.04012 0)
(-5.2891 -4.13772 0)
(2.46511 -5.54456 0)
(9.416 -2.84627 0)
(8.72733 2.02444 0)
(2.52252 5.58136 0)
(-1.20144 6.1347 0)
(-5.29346 2.48541 0)
(-17.3132 -8.23173 0)
(10.1173 -13.6732 0)
(29.2222 -3.31555 0)
(4.39345 7.41281 0)
(-2.14691 9.37319 0)
(-6.80029 8.0077 0)
(-20.1817 0.953012 0)
(-7.24391 -10.4424 0)
(23.7248 -9.0164 0)
(15.061 4.32403 0)
(1.90198 9.72853 0)
(4.96156 7.99903 0)
(-18.6487 -0.943366 0)
(-16.0964 -14.43 0)
(26.4358 -10.9304 0)
(19.0469 3.62613 0)
(-1.15302 9.81457 0)
(2.28001 9.82193 0)
(-17.6131 2.34182 0)
(-20.7714 -12.2062 0)
(24.4847 -12.1876 0)
(20.7323 2.70275 0)
(-3.28439 10.211 0)
(0.99487 9.60537 0)
(-18.0356 3.70067 0)
(-21.6514 -10.2866 0)
(19.94 -14.1963 0)
(21.8391 -0.0232616 0)
(-5.34464 9.62423 0)
(0.75434 10.0658 0)
(-17.5375 3.49451 0)
(-23.3215 -10.6228 0)
(12.0295 26.3627 0)
(-47.3882 3.51502 0)
(-19.0508 -14.3286 0)
(-10.9636 -7.39372 0)
(-10.0092 -2.46214 0)
(-5.38207 -5.35449 0)
(-0.189945 -6.72652 0)
(3.93098 -3.33663 0)
(3.26722 2.49148 0)
(-0.433151 6.46258 0)
(-0.176221 6.99712 0)
(-0.880906 2.91678 0)
(-12.3775 -9.61919 0)
(5.42492 -16.084 0)
(18.7135 -3.17973 0)
(-3.78453 9.58153 0)
(-4.47716 11.2179 0)
(-6.06695 8.89488 0)
(-14.667 -0.129553 0)
(-1.76133 -13.2586 0)
(19.0774 -10.5008 0)
(8.68578 5.056 0)
(2.37453 11.0894 0)
(8.78407 9.79831 0)
(-9.94989 -0.24145 0)
(-12.9448 -16.703 0)
(18.0342 -13.0872 0)
(10.9002 4.56058 0)
(-5.29538 11.7314 0)
(4.24511 11.414 0)
(-11.0166 2.78221 0)
(-16.2144 -14.5926 0)
(17.8226 -14.4479 0)
(12.0715 3.61536 0)
(-6.91627 12.1369 0)
(3.8431 11.258 0)
(-12.1077 4.10747 0)
(-14.2022 -12.7407 0)
(16.1757 -16.3376 0)
(11.451 1.04228 0)
(-9.75283 11.5639 0)
(1.9823 11.4566 0)
(-11.5661 3.80756 0)
(-18.3209 -12.9521 0)
(17.7554 29.4175 0)
(-36.2875 6.47092 0)
(-16.2934 -14.5631 0)
(-11.9904 -9.3415 0)
(-10.0799 -4.34923 0)
(-5.92049 -6.43098 0)
(-2.99449 -7.37853 0)
(-1.10571 -3.55305 0)
(-1.465 2.66632 0)
(-2.7763 6.59406 0)
(0.368362 7.02396 0)
(1.74693 2.90541 0)
(-8.21584 -10.0467 0)
(1.5182 -16.7988 0)
(10.039 -2.68053 0)
(-8.25286 10.7532 0)
(-3.60055 12.0454 0)
(-2.8482 8.87475 0)
(-9.16072 -1.5967 0)
(2.41657 -14.9155 0)
(14.1048 -10.7884 0)
(2.76631 5.34192 0)
(0.91753 11.4395 0)
(9.44333 10.5987 0)
(-3.92458 0.521798 0)
(-9.52253 -17.1656 0)
(10.968 -13.9626 0)
(4.2344 4.99848 0)
(-7.3698 12.4898 0)
(6.14328 11.8603 0)
(-5.68477 2.98633 0)
(-11.9383 -15.5353 0)
(11.9038 -15.2722 0)
(5.29886 4.14977 0)
(-8.47846 12.8003 0)
(6.41847 11.8175 0)
(-6.85799 4.04288 0)
(-7.94284 -14.0369 0)
(12.0944 -16.6029 0)
(3.69833 2.12601 0)
(-10.9267 12.2486 0)
(4.1974 11.734 0)
(-6.44135 3.74598 0)
(-13.7016 -14.0998 0)
(20.8141 30.5381 0)
(-23.594 9.63038 0)
(-11.6898 -13.215 0)
(-10.5389 -10.668 0)
(-9.48548 -6.25851 0)
(-6.412 -7.28737 0)
(-5.28359 -7.51682 0)
(-4.93405 -3.56501 0)
(-4.91045 2.44083 0)
(-4.17656 6.01208 0)
(0.516201 6.29225 0)
(2.96579 2.51399 0)
(-4.83142 -9.62128 0)
(-1.20705 -15.9517 0)
(3.31632 -2.08798 0)
(-9.62662 10.6907 0)
(-1.49572 11.7397 0)
(1.53021 8.16759 0)
(-4.1666 -3.00549 0)
(4.77019 -15.1778 0)
(9.14715 -9.86102 0)
(-2.49139 5.28429 0)
(-0.935368 10.8828 0)
(8.34924 10.3287 0)
(-0.116434 1.06958 0)
(-5.90916 -16.087 0)
(5.52982 -13.5148 0)
(-0.887364 4.88156 0)
(-7.27907 12.0585 0)
(6.82594 11.33 0)
(-1.4769 2.97442 0)
(-7.88815 -15.0661 0)
(6.93469 -14.7354 0)
(0.308876 4.18073 0)
(-7.99156 12.2525 0)
(7.368 11.368 0)
(-2.35262 3.59364 0)
(-3.2404 -14.0109 0)
(7.86054 -15.259 0)
(-1.35333 2.87814 0)
(-9.71896 11.7025 0)
(5.5288 11.1286 0)
(-2.05769 3.44824 0)
(-9.43055 -14.0372 0)
(20.9604 29.371 0)
(-9.70545 12.3459 0)
(-5.36183 -10.3749 0)
(-6.94292 -10.922 0)
(-7.66005 -7.67928 0)
(-6.22951 -7.79047 0)
(-6.40822 -7.24114 0)
(-6.96338 -3.46929 0)
(-6.6215 1.81121 0)
(-4.51802 4.86015 0)
(0.476681 5.04126 0)
(3.24695 1.79322 0)
(-2.16349 -8.57848 0)
(-2.70984 -13.8378 0)
(-1.43219 -1.58925 0)
(-9.02466 9.47323 0)
(0.240423 10.3744 0)
(4.98117 6.94179 0)
(-0.336877 -3.91513 0)
(5.16135 -14.0434 0)
(4.70462 -7.99768 0)
(-6.02428 4.95814 0)
(-2.0779 9.55506 0)
(6.78737 9.16631 0)
(2.27241 1.16447 0)
(-2.40551 -13.827 0)
(1.78484 -11.843 0)
(-4.31333 4.28409 0)
(-5.9708 10.5998 0)
(6.21945 10.0072 0)
(1.64782 2.71404 0)
(-4.13608 -13.344 0)
(3.06804 -13.0198 0)
(-3.01324 3.71438 0)
(-6.3939 10.7192 0)
(6.75176 10.0659 0)
(1.22833 2.87503 0)
(-0.135901 -12.6656 0)
(3.8381 -12.7643 0)
(-4.12175 3.09488 0)
(-7.48686 10.1939 0)
(5.51092 9.8092 0)
(1.48177 2.96241 0)
(-5.5977 -12.8188 0)
(17.6616 25.9027 0)
(2.37921 13.8382 0)
(1.63048 -6.43246 0)
(-1.96611 -9.81061 0)
(-4.50704 -8.16455 0)
(-4.96616 -7.75892 0)
(-6.11631 -6.66821 0)
(-7.11529 -3.33363 0)
(-6.62445 0.912505 0)
(-4.02801 3.35909 0)
(0.40528 3.52982 0)
(2.95306 0.847161 0)
(-0.324027 -7.1261 0)
(-3.26538 -10.9025 0)
(-4.20251 -1.25541 0)
(-7.48386 7.47456 0)
(0.859086 8.23356 0)
(6.28884 5.31484 0)
(2.04028 -4.07971 0)
(4.02624 -11.7249 0)
(1.12526 -5.7503 0)
(-7.08057 4.35286 0)
(-2.1535 7.69559 0)
(5.37479 7.40112 0)
(3.62854 0.848476 0)
(0.271533 -10.833 0)
(-0.426099 -9.26567 0)
(-5.91006 3.36952 0)
(-4.45511 8.48751 0)
(5.03098 8.14663 0)
(3.66699 2.16 0)
(-1.03647 -10.7178 0)
(0.447349 -10.429 0)
(-4.75672 2.87211 0)
(-4.68154 8.56781 0)
(5.40905 8.16863 0)
(3.62921 2.0064 0)
(1.54897 -10.2377 0)
(0.686944 -9.65775 0)
(-5.1926 2.75875 0)
(-5.35046 8.14523 0)
(4.71346 7.98478 0)
(3.902 2.26304 0)
(-2.45276 -10.6387 0)
(11.995 20.863 0)
(9.31832 13.5412 0)
(7.18708 -2.32769 0)
(3.01233 -7.47094 0)
(-0.661546 -7.49346 0)
(-2.75835 -7.08018 0)
(-4.64814 -5.84581 0)
(-5.85434 -3.16486 0)
(-5.44492 -0.0477277 0)
(-3.12679 1.79498 0)
(0.30177 1.97726 0)
(2.32336 -0.0803277 0)
(0.514422 -5.47215 0)
(-3.18505 -7.73627 0)
(-5.14014 -1.0316 0)
(-5.65833 5.15855 0)
(0.742727 5.73349 0)
(5.61259 3.52847 0)
(2.99298 -3.57289 0)
(2.25152 -8.67876 0)
(-1.34643 -3.66791 0)
(-6.1947 3.45108 0)
(-1.68487 5.5909 0)
(4.0084 5.3745 0)
(3.95682 0.39747 0)
(1.53927 -7.60144 0)
(-1.47674 -6.33246 0)
(-5.73421 2.34809 0)
(-3.11061 6.15347 0)
(3.78799 6.02114 0)
(4.37771 1.40836 0)
(0.871998 -7.67187 0)
(-0.889115 -7.41871 0)
(-4.95632 1.8865 0)
(-3.29877 6.19428 0)
(3.9619 5.97023 0)
(4.50473 1.17608 0)
(2.06339 -7.23282 0)
(-1.01573 -6.47313 0)
(-4.94006 2.06415 0)
(-3.60697 5.95048 0)
(3.72827 5.88593 0)
(4.80039 1.43951 0)
(-0.305881 -7.87001 0)
(6.58687 15.4746 0)
(10.3538 11.6231 0)
(9.50413 0.770044 0)
(6.29862 -4.57922 0)
(2.54538 -5.83458 0)
(-0.33557 -5.77535 0)
(-2.59599 -4.80226 0)
(-3.89828 -2.91437 0)
(-3.7499 -0.843364 0)
(-2.12492 0.431473 0)
(0.200527 0.603067 0)
(1.59645 -0.775008 0)
(0.531566 -3.8698 0)
(-2.66291 -4.92136 0)
(-4.5711 -0.892346 0)
(-3.89616 2.95971 0)
(0.40274 3.38633 0)
(3.90073 1.89422 0)
(2.69178 -2.67284 0)
(0.695246 -5.56592 0)
(-2.45964 -2.06572 0)
(-4.53985 2.38118 0)
(-1.24261 3.62915 0)
(2.58975 3.40235 0)
(3.27127 0.0504336 0)
(1.47382 -4.64304 0)
(-1.75121 -3.67211 0)
(-4.37079 1.47676 0)
(-1.99542 3.96054 0)
(2.58595 3.91162 0)
(3.83917 0.736955 0)
(1.49227 -4.77052 0)
(-1.26038 -4.55971 0)
(-3.98954 1.0554 0)
(-2.18172 3.95153 0)
(2.59432 3.80877 0)
(3.90169 0.5816 0)
(1.81915 -4.32502 0)
(-1.3976 -3.70227 0)
(-3.78908 1.34775 0)
(-2.18242 3.87968 0)
(2.71859 3.79935 0)
(4.24879 0.735579 0)
(0.779955 -5.05531 0)
(3.36291 10.7181 0)
(7.8658 8.93132 0)
(8.60567 2.3936 0)
(6.90789 -2.02735 0)
(4.02336 -3.7467 0)
(1.36976 -4.10884 0)
(-0.717099 -3.62315 0)
(-1.93921 -2.53636 0)
(-2.05674 -1.33189 0)
(-1.14942 -0.535322 0)
(0.200836 -0.397914 0)
(0.973092 -1.14057 0)
(0.231438 -2.55187 0)
(-1.91875 -2.85347 0)
(-3.227 -0.812458 0)
(-2.45867 1.22825 0)
(0.0322524 1.56342 0)
(2.07786 0.685855 0)
(1.63424 -1.72293 0)
(-0.234832 -3.01777 0)
(-2.37132 -1.01258 0)
(-2.95875 1.39988 0)
(-0.963263 2.08201 0)
(1.29982 1.79316 0)
(1.99859 -0.107881 0)
(0.784914 -2.37531 0)
(-1.51053 -1.73125 0)
(-2.77083 0.86467 0)
(-1.19774 2.22704 0)
(1.47305 2.16638 0)
(2.54034 0.300822 0)
(1.16979 -2.49116 0)
(-1.09915 -2.33961 0)
(-2.60224 0.514953 0)
(-1.31289 2.16506 0)
(1.42425 2.06657 0)
(2.50894 0.260873 0)
(1.19426 -2.08619 0)
(-1.06853 -1.68607 0)
(-2.3367 0.814775 0)
(-1.1107 2.19891 0)
(1.75065 2.09268 0)
(2.91855 0.285879 0)
(0.975432 -2.72644 0)
(1.90368 7.19746 0)
(4.71283 6.33325 0)
(5.90974 2.76961 0)
(5.34029 -0.282975 0)
(3.6868 -1.87303 0)
(1.9052 -2.50701 0)
(0.415408 -2.49831 0)
(-0.504755 -2.07646 0)
(-0.722341 -1.52788 0)
(-0.350973 -1.11062 0)
(0.238652 -0.987994 0)
(0.511307 -1.22451 0)
(-0.00262537 -1.64022 0)
(-1.17402 -1.60408 0)
(-1.88545 -0.743875 0)
(-1.45791 0.159242 0)
(-0.248462 0.383893 0)
(0.729458 -0.0110585 0)
(0.536763 -0.98231 0)
(-0.618693 -1.3671 0)
(-1.73624 -0.418072 0)
(-1.80044 0.693261 0)
(-0.769846 1.01101 0)
(0.377912 0.758897 0)
(0.786911 -0.112811 0)
(0.108809 -0.9546 0)
(-1.09443 -0.610754 0)
(-1.57278 0.471586 0)
(-0.739906 1.08051 0)
(0.594593 0.99305 0)
(1.21163 0.0985326 0)
(0.524269 -1.03716 0)
(-0.78294 -0.950513 0)
(-1.46547 0.232558 0)
(-0.765445 0.994447 0)
(0.567121 0.93676 0)
(1.17541 0.138097 0)
(0.544104 -0.725067 0)
(-0.621011 -0.503474 0)
(-1.1675 0.490131 0)
(-0.459833 1.06838 0)
(0.963902 0.965125 0)
(1.592 0.08978 0)
(0.68262 -1.16905 0)
(1.12184 4.95098 0)
(2.45362 4.40361 0)
(3.32514 2.46908 0)
(3.25691 0.644743 0)
(2.52272 -0.596429 0)
(1.59729 -1.30794 0)
(0.75643 -1.61361 0)
(0.195338 -1.63547 0)
(-0.0141236 -1.51149 0)
(0.0502911 -1.35688 0)
(0.195884 -1.22522 0)
(0.193335 -1.15359 0)
(-0.111303 -1.11571 0)
(-0.627966 -0.982387 0)
(-0.951368 -0.67518 0)
(-0.816312 -0.352722 0)
(-0.365592 -0.220536 0)
(-0.00831079 -0.302326 0)
(-0.127527 -0.53016 0)
(-0.662768 -0.528575 0)
(-1.10851 -0.129992 0)
(-1.06512 0.283521 0)
(-0.609488 0.386376 0)
(-0.120804 0.239269 0)
(0.0394306 -0.0565482 0)
(-0.258326 -0.259032 0)
(-0.727806 -0.109978 0)
(-0.866358 0.248433 0)
(-0.501818 0.444963 0)
(0.0579058 0.374091 0)
(0.320384 0.041141 0)
(0.0344964 -0.30239 0)
(-0.518811 -0.261126 0)
(-0.776607 0.11612 0)
(-0.480242 0.378999 0)
(0.0614948 0.352496 0)
(0.328646 0.103409 0)
(0.106511 -0.0955161 0)
(-0.323634 0.0198134 0)
(-0.490293 0.307104 0)
(-0.159449 0.450972 0)
(0.434198 0.376166 0)
(0.683731 0.0510925 0)
(0.331855 -0.343081 0)
(0.672688 3.50597 0)
(1.39435 3.21575 0)
(1.8713 2.10398 0)
(1.90752 1.00063 0)
(1.60871 0.0969051 0)
(1.15477 -0.569396 0)
(0.708412 -1.00907 0)
(0.372648 -1.25662 0)
(0.178986 -1.34826 0)
(0.0918769 -1.32006 0)
(0.0396312 -1.20206 0)
(-0.0404345 -1.03457 0)
(-0.17986 -0.86888 0)
(-0.355598 -0.733384 0)
(-0.471565 -0.622138 0)
(-0.457265 -0.524372 0)
(-0.354115 -0.435506 0)
(-0.286856 -0.363742 0)
(-0.362196 -0.302486 0)
(-0.544669 -0.194064 0)
(-0.671429 -0.0305735 0)
(-0.628582 0.0845116 0)
(-0.455557 0.0966843 0)
(-0.290734 0.0407217 0)
(-0.250843 -0.0116884 0)
(-0.349351 -0.00865176 0)
(-0.473434 0.0565485 0)
(-0.486795 0.13441 0)
(-0.353726 0.158417 0)
(-0.169585 0.116492 0)
(-0.08851 0.0345647 0)
(-0.176521 -0.0221646 0)
(-0.342754 -0.00321356 0)
(-0.412449 0.0713575 0)
(-0.315431 0.116053 0)
(-0.145903 0.106888 0)
(-0.048112 0.0808945 0)
(-0.0835637 0.09592 0)
(-0.16991 0.155187 0)
(-0.177865 0.192715 0)
(-0.0496666 0.175139 0)
(0.142949 0.131306 0)
(0.214392 0.0601873 0)
(0.116414 -0.0104551 0)
(0.420651 2.50752 0)
(0.946213 2.43256 0)
(1.28319 1.7906 0)
(1.3404 1.10221 0)
(1.2105 0.445156 0)
(0.966411 -0.131052 0)
(0.677903 -0.587317 0)
(0.412635 -0.911455 0)
(0.202236 -1.0926 0)
(0.040391 -1.13499 0)
(-0.078431 -1.06211 0)
(-0.164944 -0.91977 0)
(-0.230987 -0.768377 0)
(-0.278577 -0.655397 0)
(-0.309064 -0.58712 0)
(-0.32066 -0.531485 0)
(-0.322848 -0.452968 0)
(-0.334765 -0.341023 0)
(-0.368467 -0.217243 0)
(-0.406762 -0.107734 0)
(-0.414896 -0.0349667 0)
(-0.37902 -0.00562027 0)
(-0.323675 -0.00885205 0)
(-0.285064 -0.0136571 0)
(-0.278633 0.00809888 0)
(-0.293236 0.0495139 0)
(-0.302353 0.0796352 0)
(-0.285844 0.0767877 0)
(-0.244668 0.0548433 0)
(-0.199581 0.0319965 0)
(-0.17952 0.0322999 0)
(-0.194409 0.0453717 0)
(-0.220332 0.0540141 0)
(-0.225375 0.0464664 0)
(-0.199979 0.0277329 0)
(-0.160136 0.0249265 0)
(-0.129703 0.0549242 0)
(-0.112068 0.104192 0)
(-0.0926057 0.135049 0)
(-0.0624823 0.118508 0)
(-0.0208721 0.0761535 0)
(0.0225472 0.0567179 0)
(0.0357537 0.0688994 0)
(0.0262378 0.0796952 0)
(0.258673 1.77255 0)
(0.650673 1.8244 0)
(0.942702 1.47609 0)
(1.05853 1.05571 0)
(1.03559 0.601905 0)
(0.912653 0.149212 0)
(0.721444 -0.257586 0)
(0.501466 -0.576344 0)
(0.290416 -0.784879 0)
(0.103495 -0.876377 0)
(-0.0439033 -0.867097 0)
(-0.145505 -0.795372 0)
(-0.208869 -0.700648 0)
(-0.244381 -0.618179 0)
(-0.265758 -0.555497 0)
(-0.283216 -0.495626 0)
(-0.300261 -0.416816 0)
(-0.313566 -0.315249 0)
(-0.317489 -0.209239 0)
(-0.307399 -0.123953 0)
(-0.283884 -0.0739552 0)
(-0.255265 -0.0535482 0)
(-0.23289 -0.0449722 0)
(-0.221535 -0.0264317 0)
(-0.21574 0.00637499 0)
(-0.206633 0.038603 0)
(-0.190608 0.0515164 0)
(-0.171288 0.0423983 0)
(-0.155216 0.0239051 0)
(-0.145364 0.0168925 0)
(-0.140286 0.0268708 0)
(-0.135635 0.0419514 0)
(-0.127733 0.0446412 0)
(-0.118502 0.030324 0)
(-0.110898 0.0124764 0)
(-0.104456 0.0112944 0)
(-0.0955576 0.0344618 0)
(-0.0779457 0.0687366 0)
(-0.0525191 0.0872149 0)
(-0.0293437 0.0766087 0)
(-0.01496 0.0547627 0)
(-0.00824983 0.0511723 0)
(-0.00615443 0.0709419 0)
(0.0023206 0.0824837 0)
(0.150614 1.23596 0)
(0.414061 1.32903 0)
(0.641545 1.15183 0)
(0.781462 0.909167 0)
(0.833166 0.617543 0)
(0.803299 0.300337 0)
(0.713092 -0.011874 0)
(0.577378 -0.279682 0)
(0.414759 -0.479211 0)
(0.252098 -0.59843 0)
(0.106742 -0.644059 0)
(-0.00852732 -0.63671 0)
(-0.0921959 -0.600068 0)
(-0.151445 -0.553191 0)
(-0.19323 -0.50323 0)
(-0.223844 -0.44694 0)
(-0.245378 -0.37885 0)
(-0.256181 -0.300655 0)
(-0.253682 -0.223383 0)
(-0.23843 -0.159906 0)
(-0.21595 -0.116044 0)
(-0.193736 -0.0875904 0)
(-0.176851 -0.0647251 0)
(-0.16506 -0.0397614 0)
(-0.153912 -0.0131079 0)
(-0.139144 0.00848487 0)
(-0.121282 0.0185181 0)
(-0.104987 0.0172673 0)
(-0.0938727 0.0120351 0)
(-0.0875802 0.0114268 0)
(-0.0826074 0.0174201 0)
(-0.0753903 0.0244141 0)
(-0.0659357 0.0249461 0)
(-0.0580495 0.0177039 0)
(-0.0547495 0.00972431 0)
(-0.0544248 0.0101275 0)
(-0.051584 0.0220851 0)
(-0.0428436 0.0396928 0)
(-0.0302295 0.0516686 0)
(-0.0189985 0.0527853 0)
(-0.0131582 0.0497058 0)
(-0.0113175 0.0531397 0)
(-0.00950395 0.0648938 0)
(-0.00120112 0.0662212 0)
(0.0858673 0.855187 0)
(0.252131 0.943275 0)
(0.408537 0.853071 0)
(0.528699 0.717334 0)
(0.605169 0.541261 0)
(0.631039 0.337764 0)
(0.608407 0.126484 0)
(0.545238 -0.0718034 0)
(0.454065 -0.23467 0)
(0.348395 -0.352275 0)
(0.240712 -0.423899 0)
(0.141524 -0.456789 0)
(0.05632 -0.461614 0)
(-0.0131841 -0.44766 0)
(-0.0681143 -0.420455 0)
(-0.110666 -0.382303 0)
(-0.140999 -0.334963 0)
(-0.15906 -0.282 0)
(-0.165773 -0.22928 0)
(-0.162863 -0.182663 0)
(-0.15356 -0.144332 0)
(-0.141919 -0.112901 0)
(-0.130366 -0.085405 0)
(-0.119438 -0.0601112 0)
(-0.107911 -0.0378072 0)
(-0.0947434 -0.020613 0)
(-0.0809744 -0.00994249 0)
(-0.0686035 -0.0046752 0)
(-0.0591344 -0.00170345 0)
(-0.0525323 0.00164161 0)
(-0.0471227 0.00594859 0)
(-0.0415017 0.00952645 0)
(-0.0358293 0.010504 0)
(-0.0312645 0.00909356 0)
(-0.0287866 0.00792608 0)
(-0.0279815 0.0101663 0)
(-0.0270681 0.0168577 0)
(-0.0243566 0.025926 0)
(-0.0199002 0.0343174 0)
(-0.0153828 0.0400423 0)
(-0.0122215 0.0443283 0)
(-0.00974677 0.0496511 0)
(-0.00739078 0.0561394 0)
(-0.00103078 0.0529802 0)
(0.0503483 0.586305 0)
(0.155129 0.65479 0)
(0.25668 0.605792 0)
(0.34325 0.529101 0)
(0.409748 0.426194 0)
(0.449172 0.303191 0)
(0.459217 0.170054 0)
(0.442156 0.0387137 0)
(0.402796 -0.0781962 0)
(0.347626 -0.17355 0)
(0.284 -0.244115 0)
(0.218118 -0.290612 0)
(0.15482 -0.316228 0)
(0.0972919 -0.324647 0)
(0.0471676 -0.319094 0)
(0.00522127 -0.302259 0)
(-0.0279255 -0.276886 0)
(-0.0518806 -0.246225 0)
(-0.0678759 -0.213515 0)
(-0.0771485 -0.181529 0)
(-0.0807189 -0.151809 0)
(-0.0805323 -0.124563 0)
(-0.0778548 -0.0996588 0)
(-0.0733243 -0.0773294 0)
(-0.0672558 -0.0580752 0)
(-0.0600656 -0.0426102 0)
(-0.0525319 -0.0309108 0)
(-0.0454868 -0.0221847 0)
(-0.039511 -0.0153364 0)
(-0.0346207 -0.00953479 0)
(-0.0305488 -0.00458521 0)
(-0.0270845 -0.000716043 0)
(-0.0240781 0.00202459 0)
(-0.0217754 0.00408987 0)
(-0.0204324 0.0063596 0)
(-0.0198254 0.00970078 0)
(-0.0193852 0.0145106 0)
(-0.0184283 0.0204366 0)
(-0.0166583 0.0266776 0)
(-0.014362 0.0325437 0)
(-0.011863 0.0378699 0)
(-0.00887867 0.0427463 0)
(-0.00607308 0.0467907 0)
(-0.000842384 0.042822 0)
(0.0305509 0.393684 0)
(0.0975352 0.442272 0)
(0.162506 0.414015 0)
(0.220551 0.369863 0)
(0.26891 0.310535 0)
(0.303491 0.238971 0)
(0.322366 0.159881 0)
(0.325055 0.0791925 0)
(0.313052 0.00205716 0)
(0.289448 -0.0658072 0)
(0.257745 -0.121859 0)
(0.221099 -0.16483 0)
(0.182443 -0.194889 0)
(0.144204 -0.212994 0)
(0.108202 -0.220465 0)
(0.075737 -0.218864 0)
(0.0476544 -0.209982 0)
(0.0244151 -0.195788 0)
(0.00611774 -0.178343 0)
(-0.00780885 -0.158998 0)
(-0.0179685 -0.139067 0)
(-0.024793 -0.119312 0)
(-0.0288966 -0.100333 0)
(-0.0307884 -0.082704 0)
(-0.0309597 -0.0669488 0)
(-0.0299205 -0.0533806 0)
(-0.0281907 -0.0419707 0)
(-0.026212 -0.0324025 0)
(-0.0242671 -0.0243029 0)
(-0.0224567 -0.0173883 0)
(-0.0207851 -0.0115396 0)
(-0.0192857 -0.00664037 0)
(-0.0181255 -0.00250122 0)
(-0.0173758 0.00117019 0)
(-0.016933 0.00478485 0)
(-0.0166568 0.00865127 0)
(-0.0163196 0.0129047 0)
(-0.0156659 0.017493 0)
(-0.014518 0.0222206 0)
(-0.0128362 0.0268305 0)
(-0.0106405 0.0310822 0)
(-0.0077853 0.034745 0)
(-0.00499739 0.0374949 0)
(-0.000865125 0.0338947 0)
(0.0188678 0.253988 0)
(0.0619042 0.286232 0)
(0.103322 0.269769 0)
(0.141301 0.244464 0)
(0.174385 0.210821 0)
(0.20034 0.170286 0)
(0.218114 0.124969 0)
(0.227159 0.0774914 0)
(0.227671 0.0306012 0)
(0.220376 -0.0132523 0)
(0.206934 -0.0518988 0)
(0.189154 -0.0842516 0)
(0.168346 -0.109695 0)
(0.145935 -0.128122 0)
(0.123204 -0.139807 0)
(0.10119 -0.145333 0)
(0.0806804 -0.145517 0)
(0.0622099 -0.141329 0)
(0.046082 -0.133789 0)
(0.0323902 -0.123872 0)
(0.0210894 -0.112337 0)
(0.0118847 -0.0999245 0)
(0.00468645 -0.0872409 0)
(-0.000646618 -0.0748158 0)
(-0.0045543 -0.0630779 0)
(-0.00731329 -0.0523053 0)
(-0.00920791 -0.0426105 0)
(-0.0104957 -0.0339752 0)
(-0.011367 -0.0263225 0)
(-0.0119481 -0.0195728 0)
(-0.0123173 -0.0136572 0)
(-0.0124882 -0.00848786 0)
(-0.0125689 -0.00392754 0)
(-0.0126779 0.000187593 0)
(-0.0127657 0.00403638 0)
(-0.0127404 0.00775365 0)
(-0.0125101 0.0114078 0)
(-0.0119864 0.015003 0)
(-0.0110988 0.0184879 0)
(-0.00980817 0.0217653 0)
(-0.00809997 0.0247068 0)
(-0.00591762 0.0271701 0)
(-0.0036777 0.0289679 0)
(-0.000817643 0.0259574 0)
(0.0122487 0.156101 0)
(0.041132 0.176108 0)
(0.0686289 0.166664 0)
(0.0943054 0.152374 0)
(0.117355 0.133581 0)
(0.136469 0.111011 0)
(0.151078 0.0856402 0)
(0.160777 0.0586601 0)
(0.165483 0.0313495 0)
(0.165628 0.00489135 0)
(0.16156 -0.0194476 0)
(0.153805 -0.0409482 0)
(0.143319 -0.0590242 0)
(0.130886 -0.0733459 0)
(0.117245 -0.0838196 0)
(0.103084 -0.0905539 0)
(0.0889873 -0.0938259 0)
(0.0754245 -0.0940386 0)
(0.0627404 -0.0916711 0)
(0.0511677 -0.0872308 0)
(0.0408422 -0.0812162 0)
(0.0318122 -0.0741024 0)
(0.024068 -0.066315 0)
(0.0175235 -0.0582412 0)
(0.0120572 -0.0502012 0)
(0.00754389 -0.0424369 0)
(0.00388036 -0.0351094 0)
(0.000922344 -0.0283094 0)
(-0.0014903 -0.0220768 0)
(-0.00343794 -0.0164216 0)
(-0.0049916 -0.0113314 0)
(-0.00621426 -0.0067702 0)
(-0.0071595 -0.00269819 0)
(-0.00785225 0.000978301 0)
(-0.00830944 0.00433314 0)
(-0.00853697 0.00742929 0)
(-0.00851009 0.0103068 0)
(-0.00820506 0.01298 0)
(-0.00760793 0.0154389 0)
(-0.00671602 0.0176511 0)
(-0.00553275 0.0195656 0)
(-0.00405467 0.0211207 0)
(-0.00247028 0.0222297 0)
(-0.000665878 0.0197612 0)
(0.00874604 0.0927759 0)
(0.0300431 0.104556 0)
(0.0500393 0.0990758 0)
(0.0689948 0.0908802 0)
(0.0863878 0.0801829 0)
(0.101341 0.0673674 0)
(0.113505 0.0529286 0)
(0.122616 0.0374595 0)
(0.128553 0.0216112 0)
(0.131367 0.00603711 0)
(0.131218 -0.00881957 0)
(0.128405 -0.0222938 0)
(0.123352 -0.0339983 0)
(0.116482 -0.0436667 0)
(0.108239 -0.0511512 0)
(0.0990598 -0.0564216 0)
(0.0893542 -0.0595514 0)
(0.0794809 -0.0607003 0)
(0.0697404 -0.0600921 0)
(0.0603721 -0.0579916 0)
(0.0515566 -0.0546831 0)
(0.0434187 -0.0504544 0)
(0.0360301 -0.0455834 0)
(0.0294105 -0.0403245 0)
(0.0235461 -0.0348986 0)
(0.0184088 -0.0294915 0)
(0.0139548 -0.024245 0)
(0.0101209 -0.0192599 0)
(0.00683779 -0.0146015 0)
(0.00403378 -0.0103102 0)
(0.00171352 -0.00640206 0)
(-0.00016944 -0.00287048 0)
(-0.00168208 0.000302871 0)
(-0.00285659 0.00314977 0)
(-0.00374909 0.00570799 0)
(-0.00436065 0.00801179 0)
(-0.00469161 0.0100878 0)
(-0.00474844 0.0119522 0)
(-0.00454331 0.0136095 0)
(-0.00409328 0.0150533 0)
(-0.00341715 0.0162675 0)
(-0.00253816 0.0172287 0)
(-0.00153766 0.0179001 0)
(-0.000475306 0.0158084 0)
(0.00677999 0.0517261 0)
(0.0238304 0.0580897 0)
(0.0395553 0.0548651 0)
(0.054666 0.0501074 0)
(0.0687669 0.0439408 0)
(0.0811695 0.0365691 0)
(0.091623 0.0282609 0)
(0.0999429 0.0193431 0)
(0.106021 0.0101645 0)
(0.109806 0.00103785 0)
(0.111396 -0.00767329 0)
(0.11097 -0.015662 0)
(0.10871 -0.022676 0)
(0.104856 -0.0285284 0)
(0.0996852 -0.0331015 0)
(0.0934883 -0.0363454 0)
(0.0865522 -0.0382738 0)
(0.079146 -0.0389555 0)
(0.0715116 -0.0385046 0)
(0.0638597 -0.0370685 0)
(0.0563667 -0.0348142 0)
(0.0491723 -0.0319185 0)
(0.0423799 -0.0285577 0)
(0.0360615 -0.0248992 0)
(0.0302563 -0.0210939 0)
(0.0249845 -0.0172645 0)
(0.0202576 -0.0135323 0)
(0.0160645 -0.00997607 0)
(0.012375 -0.00662932 0)
(0.00916539 -0.00354695 0)
(0.00642611 -0.000747947 0)
(0.00411183 0.00176225 0)
(0.00215486 0.00399484 0)
(0.000579353 0.00597128 0)
(-0.000634696 0.00771395 0)
(-0.00155405 0.0092478 0)
(-0.00217961 0.0105956 0)
(-0.00252523 0.0117754 0)
(-0.00261396 0.0127987 0)
(-0.00247332 0.0136707 0)
(-0.00213148 0.01439 0)
(-0.00162629 0.01495 0)
(-0.000992157 0.0153368 0)
(-0.00034257 0.0134748 0)
(0.0053536 0.023521 0)
(0.0192642 0.0261805 0)
(0.0317205 0.024349 0)
(0.0438418 0.0217112 0)
(0.0553292 0.0183334 0)
(0.0655589 0.0143155 0)
(0.0743085 0.00980398 0)
(0.081452 0.00497215 0)
(0.086873 7.18673e-06 0)
(0.0905943 -0.00484042 0)
(0.0926861 -0.00942005 0)
(0.0931302 -0.0135746 0)
(0.0920397 -0.0171567 0)
(0.0895708 -0.0200556 0)
(0.08591 -0.0222004 0)
(0.0812651 -0.0235589 0)
(0.0758508 -0.0241356 0)
(0.0698772 -0.0239688 0)
(0.0635426 -0.0231258 0)
(0.0570308 -0.0216976 0)
(0.0505044 -0.0197849 0)
(0.0441002 -0.0174988 0)
(0.0379293 -0.0149517 0)
(0.0320778 -0.0122513 0)
(0.0266219 -0.00949588 0)
(0.0215839 -0.00677042 0)
(0.0170183 -0.00414296 0)
(0.0129966 -0.00166227 0)
(0.00945925 0.000596339 0)
(0.00634455 0.00263419 0)
(0.00364277 0.00443962 0)
(0.00136248 0.00603175 0)
(-0.000483525 0.00738605 0)
(-0.00191772 0.00854064 0)
(-0.00297766 0.00951566 0)
(-0.00369133 0.0103349 0)
(-0.00408061 0.0110227 0)
(-0.00417087 0.0116004 0)
(-0.00399244 0.012085 0)
(-0.00357953 0.0124883 0)
(-0.00296661 0.0128165 0)
(-0.00219572 0.0130698 0)
(-0.00129597 0.0132462 0)
(-0.000434649 0.0115964 0)
(0.00387404 0.00425768 0)
(0.0145116 0.00444599 0)
(0.0234307 0.00355668 0)
(0.0322645 0.00234445 0)
(0.0407258 0.000814082 0)
(0.0482544 -0.000980498 0)
(0.0547475 -0.00295901 0)
(0.0600225 -0.00503372 0)
(0.0640031 -0.0071011 0)
(0.0666078 -0.00902133 0)
(0.0677335 -0.0107537 0)
(0.0674783 -0.012207 0)
(0.0659629 -0.0133144 0)
(0.0633138 -0.0140284 0)
(0.0596772 -0.0143218 0)
(0.0552165 -0.0141878 0)
(0.050104 -0.0136396 0)
(0.0445148 -0.0127034 0)
(0.0386271 -0.0114288 0)
(0.0326294 -0.00990536 0)
(0.026679 -0.00816013 0)
(0.0208907 -0.00626575 0)
(0.0153794 -0.00429638 0)
(0.0102291 -0.00232028 0)
(0.00549885 -0.000397024 0)
(0.00123229 0.00141508 0)
(-0.00256562 0.0030926 0)
(-0.00589918 0.00460385 0)
(-0.00871312 0.00590431 0)
(-0.0109529 0.00700493 0)
(-0.0126159 0.00790781 0)
(-0.0138274 0.00862441 0)
(-0.0146118 0.00917208 0)
(-0.0149061 0.00956949 0)
(-0.0147807 0.00984174 0)
(-0.0142764 0.0100148 0)
(-0.0134239 0.0101148 0)
(-0.0122562 0.0101661 0)
(-0.010809 0.010189 0)
(-0.00912141 0.0101996 0)
(-0.00723044 0.0102078 0)
(-0.00517205 0.0102173 0)
(-0.00299002 0.0102304 0)
(-0.000948648 0.00893242 0)
(0.00209814 -0.00693341 0)
(0.00895359 -0.00808097 0)
(0.0138343 -0.00839689 0)
(0.0187976 -0.00869944 0)
(0.0235044 -0.0090127 0)
(0.0274215 -0.00931514 0)
(0.0304342 -0.00957038 0)
(0.0324342 -0.00973929 0)
(0.0333689 -0.00978415 0)
(0.0331992 -0.00973207 0)
(0.0319035 -0.00952105 0)
(0.0295293 -0.0091328 0)
(0.0261832 -0.00856171 0)
(0.0220126 -0.00780672 0)
(0.0171616 -0.00687406 0)
(0.0117662 -0.00577718 0)
(0.00596949 -0.00453645 0)
(-9.19756e-05 -0.00318568 0)
(-0.00625469 -0.00180005 0)
(-0.0122595 -0.000324175 0)
(-0.0179405 0.00113581 0)
(-0.023257 0.00253774 0)
(-0.028142 0.00384671 0)
(-0.0324976 0.0050304 0)
(-0.0362367 0.00606115 0)
(-0.0393202 0.00691714 0)
(-0.0417262 0.00758552 0)
(-0.0434471 0.00805565 0)
(-0.0444742 0.00836545 0)
(-0.0448082 0.00850146 0)
(-0.0444729 0.00848092 0)
(-0.0435186 0.00830356 0)
(-0.041978 0.00803743 0)
(-0.0398894 0.00768809 0)
(-0.0373289 0.0072857 0)
(-0.0343628 0.00685741 0)
(-0.0310507 0.00642767 0)
(-0.0274401 0.00601833 0)
(-0.0235706 0.00564734 0)
(-0.0194821 0.00532939 0)
(-0.0152086 0.00507511 0)
(-0.0107688 0.00488884 0)
(-0.00621938 0.00477517 0)
(-0.00195342 0.00414783 0)
(-2.50004e-05 -0.0108436 0)
(0.00209177 -0.0123492 0)
(0.00188814 -0.0123574 0)
(0.00202727 -0.0120999 0)
(0.00201613 -0.0116075 0)
(0.00133859 -0.0108969 0)
(-0.000131657 -0.00998397 0)
(-0.00247827 -0.00888633 0)
(-0.00565823 -0.00763404 0)
(-0.00961564 -0.00626175 0)
(-0.014334 -0.00479376 0)
(-0.0197905 -0.00326061 0)
(-0.0258621 -0.00169459 0)
(-0.0323443 -0.000125336 0)
(-0.0390874 0.00142168 0)
(-0.045981 0.00292013 0)
(-0.0528865 0.00433889 0)
(-0.0596984 0.00563824 0)
(-0.0661988 0.00684586 0)
(-0.072283 0.00791707 0)
(-0.0779208 0.00879034 0)
(-0.0829276 0.00945018 0)
(-0.0871898 0.00988575 0)
(-0.0906304 0.0100909 0)
(-0.0931895 0.0100638 0)
(-0.0948283 0.00980834 0)
(-0.0955237 0.00933589 0)
(-0.0952702 0.00866508 0)
(-0.0940742 0.00782602 0)
(-0.0919531 0.00684556 0)
(-0.0889496 0.00575766 0)
(-0.0851166 0.00459832 0)
(-0.0804772 0.00341047 0)
(-0.0751124 0.00223206 0)
(-0.0691521 0.00109959 0)
(-0.0627054 4.49486e-05 0)
(-0.0558866 -0.000907875 0)
(-0.04878 -0.00174355 0)
(-0.0414479 -0.00245343 0)
(-0.0339497 -0.00303443 0)
(-0.0263272 -0.00348655 0)
(-0.0185772 -0.00381449 0)
(-0.0107467 -0.00401875 0)
(-0.00337783 -0.00359446 0)