/*--------------------------------*- C++ -*----------------------------------*\
  =========                 |
  \\      /  F ield         | OpenFOAM: The Open Source CFD Toolbox
   \\    /   O peration     | Website:  https://openfoam.org
    \\  /    A nd           | Version:  7
     \\/     M anipulation  |
\*---------------------------------------------------------------------------*/
FoamFile
{
    version     2.0;
    format      ascii;
    class       volVectorField;
    location    "0.75";
    object      U;
}
// * * * * * * * * * * * * * * * * * * * * * * * * * * * * * * * * * * * * * //

dimensions      [0 1 -1 0 0 0 0];

internalField   nonuniform List<vector> 
1936
(
(-13.8594 3.24833 0)
(-69.6769 192.453 0)
(-23.0205 419.951 0)
(0.178759 426.299 0)
(-10.3463 399.05 0)
(-5.25228 422.886 0)
(8.75181 429.198 0)
(22.4723 383.169 0)
(23.9472 315.998 0)
(14.4618 277.343 0)
(-0.632872 274.817 0)
(-10.7612 300.103 0)
(-23.3144 390.25 0)
(-12.0006 499.317 0)
(30.3132 448.929 0)
(31.5196 295.049 0)
(6.8143 236.859 0)
(-5.64069 242.522 0)
(-28.8777 316.621 0)
(-28.5413 475.191 0)
(20.9641 480.127 0)
(27.7049 321.384 0)
(0.961285 245.824 0)
(-8.89423 243.852 0)
(-35.5854 320.907 0)
(-23.7839 484.165 0)
(29.2479 473.454 0)
(27.4787 312.737 0)
(5.21836 246.019 0)
(-5.57027 244.827 0)
(-29.5631 310.958 0)
(-30.2974 469.284 0)
(19.2944 481.853 0)
(28.8418 325.6 0)
(2.14496 247.455 0)
(-7.9778 245.678 0)
(-32.6556 315.538 0)
(-25.2105 475.341 0)
(27.0668 478.351 0)
(30.2066 321.263 0)
(6.58994 248.702 0)
(-2.98727 245.585 0)
(-28.674 313.544 0)
(-27.1375 470.161 0)
(-15.1431 7.87644 0)
(-77.0495 0.231401 0)
(-27.2614 -4.31453 0)
(-1.80818 -2.10844 0)
(-11.5202 -0.510086 0)
(-6.31983 -1.75688 0)
(8.45274 -2.40388 0)
(21.9771 -1.353 0)
(21.5572 0.601984 0)
(11.3852 2.29961 0)
(0.245168 2.72082 0)
(-8.19583 1.7983 0)
(-23.9828 -0.703588 0)
(-13.0656 -3.9125 0)
(30.8396 -3.38278 0)
(27.8742 0.92129 0)
(3.35397 3.80201 0)
(-1.61906 3.56998 0)
(-26.8398 0.708836 0)
(-29.8516 -3.49822 0)
(22.2527 -3.94149 0)
(25.4346 0.381885 0)
(-2.61967 3.63721 0)
(-4.58649 3.51892 0)
(-32.053 -0.176941 0)
(-24.4812 -4.61585 0)
(30.8967 -3.65213 0)
(25.0995 0.720834 0)
(0.988761 3.41323 0)
(-1.81739 3.51275 0)
(-26.9505 0.827819 0)
(-31.4788 -3.45972 0)
(20.3755 -4.14011 0)
(26.5192 0.139942 0)
(-1.46355 3.53697 0)
(-3.76086 3.49131 0)
(-29.1683 0.081351 0)
(-26.1887 -4.35224 0)
(28.1685 -3.89242 0)
(27.7679 0.42644 0)
(2.30101 3.33082 0)
(0.75778 3.55893 0)
(-25.6836 0.602503 0)
(-28.652 -3.86038 0)
(-5.23462 16.3864 0)
(-71.6772 1.15278 0)
(-29.4357 -9.32124 0)
(-4.08363 -4.54711 0)
(-10.2965 -1.0504 0)
(-5.78109 -3.66401 0)
(8.15765 -5.02255 0)
(21.257 -2.66883 0)
(20.4314 1.49711 0)
(9.08511 4.66804 0)
(-2.12244 5.31329 0)
(-10.877 3.86568 0)
(-25.8749 -1.27348 0)
(-11.8407 -8.60201 0)
(33.4882 -6.99419 0)
(28.2306 2.51875 0)
(2.18534 7.55011 0)
(-2.90905 7.14526 0)
(-28.9311 1.96827 0)
(-29.9918 -7.65318 0)
(25.1168 -8.50923 0)
(27.9023 1.33654 0)
(-0.213314 7.20153 0)
(-2.14634 7.07012 0)
(-32.1463 0.397551 0)
(-27.3854 -9.7646 0)
(30.8084 -7.89767 0)
(26.984 2.08501 0)
(1.02254 6.84195 0)
(-2.39497 7.00348 0)
(-28.8569 2.23 0)
(-31.6265 -7.50764 0)
(23.2191 -8.91764 0)
(28.8105 0.83664 0)
(0.470739 7.02664 0)
(-1.72921 6.96739 0)
(-29.338 0.906011 0)
(-28.618 -9.15813 0)
(28.2992 -8.40868 0)
(29.3464 1.4576 0)
(2.1245 6.68323 0)
(-0.210475 7.0805 0)
(-27.7422 1.83956 0)
(-30.021 -8.32241 0)
(4.34309 22.9842 0)
(-59.6828 3.02404 0)
(-26.7386 -12.7934 0)
(-8.86849 -7.10393 0)
(-10.269 -2.10959 0)
(-5.36039 -5.37215 0)
(5.28026 -7.16492 0)
(14.3024 -3.62566 0)
(12.4149 2.44465 0)
(3.04971 6.71382 0)
(-2.93304 7.40421 0)
(-7.14117 5.43796 0)
(-18.7844 -2.07691 0)
(-8.36647 -12.7105 0)
(26.4365 -9.77237 0)
(17.9231 4.1184 0)
(-1.83354 10.6719 0)
(0.793571 10.0485 0)
(-19.9133 2.88574 0)
(-22.8037 -11.273 0)
(20.9071 -12.28 0)
(19.0218 2.1087 0)
(-2.16777 9.97153 0)
(3.84443 10.0372 0)
(-20.3574 1.27656 0)
(-22.7167 -13.7733 0)
(23.2597 -11.5468 0)
(18.1155 3.17577 0)
(-3.08676 9.7202 0)
(1.35956 9.88457 0)
(-19.7609 3.31503 0)
(-23.9945 -11.0213 0)
(19.4459 -12.8443 0)
(19.6288 1.43572 0)
(-2.11335 9.75061 0)
(3.62453 9.83967 0)
(-18.2086 1.91936 0)
(-23.3404 -12.9097 0)
(21.2913 -12.2235 0)
(19.933 2.30484 0)
(-2.51065 9.49087 0)
(2.74709 9.95543 0)
(-18.2036 2.84738 0)
(-24.041 -12.0424 0)
(12.5015 28.0465 0)
(-48.7587 5.6128 0)
(-23.4331 -14.6092 0)
(-11.9405 -9.56619 0)
(-10.3945 -3.88128 0)
(-5.61608 -6.98069 0)
(1.64169 -8.69157 0)
(6.9959 -4.13783 0)
(4.93983 3.31194 0)
(-1.84765 8.13978 0)
(-3.18738 8.72276 0)
(-4.3385 6.24308 0)
(-12.7282 -3.00082 0)
(-5.30553 -15.5633 0)
(19.47 -11.3543 0)
(9.64518 5.40237 0)
(-4.62965 12.6457 0)
(4.21693 11.8348 0)
(-12.61 3.40669 0)
(-16.128 -13.6938 0)
(16.7634 -14.6096 0)
(12.0001 2.59032 0)
(-3.97811 11.4809 0)
(7.78339 11.8362 0)
(-10.7915 2.19282 0)
(-17.9935 -16.0146 0)
(16.2751 -13.9396 0)
(11.2342 3.85807 0)
(-6.18786 11.5012 0)
(4.8106 11.6412 0)
(-12.3481 3.97115 0)
(-16.8596 -13.367 0)
(15.733 -15.2512 0)
(12.1686 1.84647 0)
(-4.44828 11.2406 0)
(7.0059 11.5468 0)
(-9.45717 2.85315 0)
(-18.1396 -15.0183 0)
(14.7557 -14.6751 0)
(12.4189 2.84985 0)
(-6.05964 11.2126 0)
(5.27136 11.6327 0)
(-10.6705 3.49307 0)
(-18.4204 -14.3512 0)
(18.7947 31.4035 0)
(-37.2533 8.70112 0)
(-19.0702 -14.8135 0)
(-12.6175 -11.6167 0)
(-10.4542 -6.05662 0)
(-6.39737 -8.35539 0)
(-2.32671 -9.50646 0)
(0.0840019 -4.26148 0)
(-1.49515 3.8924 0)
(-5.19116 8.73716 0)
(-2.71426 9.17295 0)
(-1.68506 6.30436 0)
(-7.65918 -3.91372 0)
(-2.97941 -17.0286 0)
(12.8148 -11.7538 0)
(3.03142 6.22529 0)
(-6.13186 13.3737 0)
(6.91672 12.4889 0)
(-6.53897 3.59938 0)
(-10.3412 -14.8472 0)
(12.6233 -15.4871 0)
(6.36919 2.84161 0)
(-5.68436 11.8091 0)
(9.49812 12.4059 0)
(-3.43808 2.99082 0)
(-13.2748 -16.4925 0)
(10.2594 -15.0032 0)
(5.74499 4.10512 0)
(-7.86947 12.1081 0)
(7.23436 12.2448 0)
(-6.09526 4.21264 0)
(-10.6194 -14.4618 0)
(12.0142 -16.0952 0)
(6.08957 2.12618 0)
(-6.43267 11.568 0)
(8.40107 12.0465 0)
(-2.92363 3.56604 0)
(-13.1016 -15.5038 0)
(9.11108 -15.7007 0)
(6.36296 3.07381 0)
(-8.09495 11.7849 0)
(6.93707 12.1198 0)
(-4.62101 3.7957 0)
(-13.2848 -15.2276 0)
(22.1597 32.6964 0)
(-24.0928 11.8962 0)
(-13.1758 -13.4286 0)
(-10.8672 -12.8713 0)
(-9.84727 -8.13952 0)
(-7.14976 -9.34854 0)
(-5.73931 -9.60614 0)
(-5.40817 -4.10348 0)
(-6.2356 3.95329 0)
(-6.88452 8.42143 0)
(-2.05479 8.71156 0)
(0.6289 5.72862 0)
(-3.64178 -4.65265 0)
(-1.49234 -17.0258 0)
(6.75283 -11.087 0)
(-1.98228 6.42356 0)
(-6.17092 12.8922 0)
(7.82615 12.089 0)
(-1.70011 3.46948 0)
(-5.64027 -14.6816 0)
(8.49279 -14.9881 0)
(2.01312 2.84984 0)
(-6.29887 11.1489 0)
(8.95005 11.8208 0)
(1.68078 3.46001 0)
(-8.66577 -15.3889 0)
(5.44233 -14.7033 0)
(1.48811 3.87103 0)
(-7.70369 11.613 0)
(7.75885 11.7653 0)
(-1.00256 4.02713 0)
(-5.51454 -14.2551 0)
(8.27646 -15.4459 0)
(1.37372 2.25179 0)
(-7.03744 10.9136 0)
(7.88172 11.4329 0)
(1.53692 3.87591 0)
(-8.3078 -14.5308 0)
(4.61421 -15.2918 0)
(1.67879 2.91858 0)
(-8.13198 11.276 0)
(7.03269 11.5371 0)
(0.0553119 3.73279 0)
(-8.67137 -14.717 0)
(22.164 31.5517 0)
(-9.56667 14.5447 0)
(-5.8254 -10.5174 0)
(-7.06623 -12.9013 0)
(-8.01565 -9.58565 0)
(-7.1406 -9.79482 0)
(-7.65115 -9.09671 0)
(-8.58255 -3.80199 0)
(-8.76084 3.41445 0)
(-7.13354 7.2904 0)
(-1.45019 7.494 0)
(2.2482 4.6309 0)
(-0.710157 -5.10182 0)
(-0.734336 -15.6185 0)
(1.68329 -9.59251 0)
(-5.39536 5.95501 0)
(-5.32159 11.3761 0)
(7.1019 10.7647 0)
(1.88765 3.03391 0)
(-2.07472 -13.2575 0)
(4.59542 -13.3056 0)
(-1.1621 2.58277 0)
(-5.77302 9.72673 0)
(7.07746 10.3105 0)
(4.74594 3.45965 0)
(-4.42286 -13.0664 0)
(1.92014 -13.1399 0)
(-1.60934 3.21958 0)
(-6.39286 10.2038 0)
(6.81065 10.3556 0)
(2.78934 3.45491 0)
(-1.68483 -12.8167 0)
(4.70613 -13.5253 0)
(-1.9888 2.1654 0)
(-6.2763 9.49457 0)
(6.32496 9.93015 0)
(4.22568 3.69329 0)
(-3.99173 -12.4171 0)
(1.34614 -13.5768 0)
(-1.70069 2.41279 0)
(-6.87007 9.87024 0)
(5.9568 10.0769 0)
(3.35637 3.31348 0)
(-4.67212 -12.9846 0)
(18.4058 27.9447 0)
(3.27798 15.8488 0)
(1.94606 -6.42827 0)
(-1.93972 -11.4304 0)
(-4.84899 -9.9414 0)
(-5.91528 -9.54622 0)
(-7.6863 -8.14559 0)
(-9.23206 -3.46383 0)
(-9.05165 2.42069 0)
(-6.33632 5.59428 0)
(-0.907316 5.75987 0)
(3.00091 3.16626 0)
(1.14785 -5.11156 0)
(-0.52834 -13.1089 0)
(-1.88403 -7.58424 0)
(-7.07838 4.88574 0)
(-4.3261 9.16953 0)
(5.59355 8.77195 0)
(4.15546 2.31985 0)
(0.333457 -10.8436 0)
(1.45293 -10.7652 0)
(-3.20697 2.01411 0)
(-4.75887 7.84652 0)
(5.02764 8.21671 0)
(6.00987 2.97559 0)
(-1.03792 -10.0176 0)
(-0.27175 -10.5979 0)
(-3.54481 2.29819 0)
(-4.87796 8.20662 0)
(5.31698 8.30924 0)
(5.03297 2.56826 0)
(0.771582 -10.396 0)
(1.74815 -10.7186 0)
(-3.9777 1.79473 0)
(-4.94699 7.60268 0)
(4.67249 7.89602 0)
(5.41437 3.0414 0)
(-0.665258 -9.60707 0)
(-0.685427 -10.873 0)
(-3.78563 1.66897 0)
(-5.2817 7.88727 0)
(4.55367 8.04097 0)
(5.17886 2.57119 0)
(-1.53949 -10.3485 0)
(12.1737 22.6382 0)
(10.5754 15.2346 0)
(7.98231 -2.11068 0)
(3.16888 -8.62733 0)
(-0.992264 -8.99194 0)
(-3.64845 -8.54318 0)
(-6.18489 -6.89733 0)
(-7.9325 -3.11529 0)
(-7.71438 1.25366 0)
(-5.00284 3.65966 0)
(-0.493928 3.79723 0)
(2.91974 1.60518 0)
(1.93784 -4.64812 0)
(-0.714172 -9.97148 0)
(-3.78345 -5.4648 0)
(-7.08569 3.44636 0)
(-3.48324 6.67091 0)
(3.97037 6.41952 0)
(4.85759 1.44548 0)
(1.53009 -7.89833 0)
(-0.446696 -7.80134 0)
(-4.03954 1.27236 0)
(-3.70977 5.7769 0)
(3.36871 5.92805 0)
(5.65359 2.15594 0)
(0.926786 -6.8156 0)
(-1.20949 -7.5528 0)
(-4.17869 1.3454 0)
(-3.52598 5.95835 0)
(3.88703 5.97986 0)
(5.4773 1.56544 0)
(1.8558 -7.46118 0)
(-0.125125 -7.55044 0)
(-4.49377 1.2157 0)
(-3.63246 5.53132 0)
(3.29685 5.69685 0)
(5.22016 2.11027 0)
(1.16642 -6.6069 0)
(-1.53486 -7.69039 0)
(-4.44539 0.889693 0)
(-3.82744 5.66181 0)
(3.28181 5.76485 0)
(5.35217 1.65956 0)
(0.399371 -7.29296 0)
(6.53379 16.931 0)
(11.4321 12.953 0)
(10.3731 1.17008 0)
(6.51735 -5.25465 0)
(2.27899 -6.94986 0)
(-1.0921 -6.85686 0)
(-3.89842 -5.45615 0)
(-5.64158 -2.72667 0)
(-5.62685 0.202627 0)
(-3.56843 1.8345 0)
(-0.278188 1.92499 0)
(2.25392 0.248951 0)
(1.79153 -3.82628 0)
(-1.01225 -6.80029 0)
(-4.19376 -3.61613 0)
(-5.88741 1.99992 0)
(-2.73125 4.22508 0)
(2.43147 4.03994 0)
(4.05638 0.665064 0)
(1.66137 -5.01991 0)
(-1.21674 -4.94378 0)
(-3.76585 0.639679 0)
(-2.69709 3.74004 0)
(2.04643 3.78852 0)
(4.22645 1.29754 0)
(1.52513 -4.02256 0)
(-1.28446 -4.61963 0)
(-3.60974 0.63719 0)
(-2.32284 3.76098 0)
(2.60148 3.72794 0)
(4.4435 0.750421 0)
(1.89724 -4.62642 0)
(-0.913147 -4.60958 0)
(-3.79476 0.672165 0)
(-2.44961 3.53793 0)
(2.13087 3.63556 0)
(4.03651 1.23395 0)
(1.62951 -3.92584 0)
(-1.53552 -4.6743 0)
(-3.8019 0.320579 0)
(-2.5175 3.50483 0)
(2.15233 3.58159 0)
(4.21386 0.862161 0)
(1.16136 -4.4219 0)
(3.34862 11.8743 0)
(8.52362 9.96709 0)
(9.3081 2.87445 0)
(7.18261 -2.3051 0)
(3.87793 -4.44479 0)
(0.81546 -4.79465 0)
(-1.69077 -3.94246 0)
(-3.24615 -2.25702 0)
(-3.47069 -0.530739 0)
(-2.2288 0.420853 0)
(-0.159681 0.419288 0)
(1.41552 -0.678136 0)
(1.11659 -2.873 0)
(-1.14342 -4.16193 0)
(-3.5559 -2.24487 0)
(-4.25147 0.822529 0)
(-2.09073 2.17483 0)
(1.06773 2.04191 0)
(2.43433 0.117008 0)
(1.05615 -2.74726 0)
(-1.30702 -2.67111 0)
(-2.84369 0.233688 0)
(-1.82681 2.04304 0)
(0.982828 2.06575 0)
(2.48693 0.644219 0)
(1.19901 -1.99926 0)
(-0.984239 -2.3397 0)
(-2.43549 0.236008 0)
(-1.35218 1.97839 0)
(1.4902 1.93567 0)
(2.80041 0.247087 0)
(1.34779 -2.41037 0)
(-0.935328 -2.35849 0)
(-2.5388 0.308652 0)
(-1.47344 1.9308 0)
(1.17582 1.99329 0)
(2.51024 0.620028 0)
(1.25308 -1.93268 0)
(-1.12245 -2.36405 0)
(-2.50443 0.0117856 0)
(-1.43904 1.7795 0)
(1.19744 1.84647 0)
(2.58746 0.324151 0)
(1.07158 -2.23608 0)
(1.95017 8.11812 0)
(5.04067 7.16267 0)
(6.36862 3.24845 0)
(5.60661 -0.281714 0)
(3.67248 -2.1932 0)
(1.58683 -2.82764 0)
(-0.20677 -2.5513 0)
(-1.35901 -1.74269 0)
(-1.65743 -0.922609 0)
(-1.06607 -0.503028 0)
(-0.00213022 -0.574257 0)
(0.753234 -1.13599 0)
(0.440734 -2.01556 0)
(-1.01033 -2.34778 0)
(-2.46494 -1.3648 0)
(-2.75583 0.047578 0)
(-1.57584 0.741933 0)
(0.0911828 0.675878 0)
(0.923119 -0.19094 0)
(0.276249 -1.31356 0)
(-1.10489 -1.21766 0)
(-1.86253 0.0222465 0)
(-1.21459 0.878289 0)
(0.2314 0.899186 0)
(1.07861 0.247049 0)
(0.568479 -0.80222 0)
(-0.64337 -0.940789 0)
(-1.35363 0.0578349 0)
(-0.725693 0.810735 0)
(0.666429 0.776323 0)
(1.36678 0.0153489 0)
(0.674791 -1.01695 0)
(-0.648444 -0.955617 0)
(-1.4003 0.141432 0)
(-0.794477 0.878 0)
(0.518412 0.909527 0)
(1.25515 0.286363 0)
(0.68482 -0.726134 0)
(-0.638263 -0.947895 0)
(-1.30998 -0.0861089 0)
(-0.707061 0.68068 0)
(0.531678 0.726201 0)
(1.24069 0.0497046 0)
(0.643815 -0.911839 0)
(1.17009 5.70782 0)
(2.60197 5.0923 0)
(3.56158 2.9126 0)
(3.44385 0.807143 0)
(2.56176 -0.628373 0)
(1.45919 -1.34123 0)
(0.440293 -1.47527 0)
(-0.239208 -1.28483 0)
(-0.468448 -1.06058 0)
(-0.264487 -0.987557 0)
(0.136617 -1.06043 0)
(0.347831 -1.22625 0)
(0.0533569 -1.38747 0)
(-0.706555 -1.30923 0)
(-1.42735 -0.868063 0)
(-1.58805 -0.346672 0)
(-1.08419 -0.0736813 0)
(-0.350028 -0.079031 0)
(0.03779 -0.329349 0)
(-0.21717 -0.599065 0)
(-0.821936 -0.49661 0)
(-1.12405 -0.0748778 0)
(-0.807653 0.229472 0)
(-0.163371 0.246448 0)
(0.241467 0.0381859 0)
(0.086336 -0.2516 0)
(-0.404891 -0.284125 0)
(-0.675575 -0.0129688 0)
(-0.398594 0.203261 0)
(0.170389 0.178871 0)
(0.466304 -0.0597634 0)
(0.193626 -0.325945 0)
(-0.37402 -0.266013 0)
(-0.666698 0.0830621 0)
(-0.396672 0.319203 0)
(0.162633 0.329438 0)
(0.500218 0.137402 0)
(0.288228 -0.156746 0)
(-0.272747 -0.263622 0)
(-0.545725 -0.0724557 0)
(-0.298015 0.13598 0)
(0.177859 0.152834 0)
(0.454228 -0.0540414 0)
(0.276004 -0.297982 0)
(0.701691 4.14525 0)
(1.47819 3.81218 0)
(1.98965 2.52234 0)
(2.03193 1.2453 0)
(1.67385 0.238264 0)
(1.13974 -0.423142 0)
(0.626563 -0.772227 0)
(0.2653 -0.9308 0)
(0.099226 -1.02182 0)
(0.0916224 -1.1063 0)
(0.142333 -1.14962 0)
(0.109106 -1.11666 0)
(-0.087935 -1.00174 0)
(-0.409162 -0.819702 0)
(-0.700514 -0.630722 0)
(-0.7896 -0.49164 0)
(-0.635456 -0.429469 0)
(-0.390518 -0.400522 0)
(-0.26334 -0.376733 0)
(-0.347509 -0.330243 0)
(-0.542509 -0.235504 0)
(-0.632112 -0.125144 0)
(-0.510562 -0.0656674 0)
(-0.275771 -0.0570567 0)
(-0.113801 -0.0694412 0)
(-0.131057 -0.0819427 0)
(-0.265396 -0.0728882 0)
(-0.337847 -0.0480188 0)
(-0.24192 -0.0409237 0)
(-0.0575271 -0.0562429 0)
(0.0394952 -0.0739922 0)
(-0.0392752 -0.0687349 0)
(-0.208549 -0.0176973 0)
(-0.288244 0.0503495 0)
(-0.184625 0.0790792 0)
(0.0173108 0.079143 0)
(0.148159 0.0697474 0)
(0.101431 0.0378377 0)
(-0.0672534 -0.0114914 0)
(-0.162529 -0.0454578 0)
(-0.0939109 -0.0567684 0)
(0.0458803 -0.0642578 0)
(0.116998 -0.0856702 0)
(0.0818879 -0.0878742 0)
(0.448165 3.04381 0)
(1.03838 2.95538 0)
(1.40563 2.19223 0)
(1.47512 1.39322 0)
(1.33901 0.667763 0)
(1.07336 0.0878446 0)
(0.769353 -0.333787 0)
(0.517758 -0.637092 0)
(0.337455 -0.855053 0)
(0.213664 -0.991378 0)
(0.116462 -1.02305 0)
(0.0144288 -0.943326 0)
(-0.0981078 -0.790526 0)
(-0.209814 -0.636701 0)
(-0.301186 -0.54432 0)
(-0.340976 -0.518952 0)
(-0.319258 -0.516521 0)
(-0.271815 -0.476662 0)
(-0.249547 -0.38232 0)
(-0.271954 -0.269946 0)
(-0.313798 -0.189526 0)
(-0.327527 -0.163562 0)
(-0.289257 -0.172442 0)
(-0.22069 -0.168101 0)
(-0.16678 -0.125603 0)
(-0.15271 -0.0736106 0)
(-0.165883 -0.0518786 0)
(-0.171954 -0.0721062 0)
(-0.148782 -0.108937 0)
(-0.109659 -0.115605 0)
(-0.0865734 -0.074427 0)
(-0.0939292 -0.0138726 0)
(-0.114162 0.0248386 0)
(-0.11352 0.0198072 0)
(-0.0737255 -0.00408844 0)
(-0.0120534 -0.00589169 0)
(0.0373039 0.0303174 0)
(0.0457423 0.0649592 0)
(0.0174731 0.0432702 0)
(-0.00486408 -0.0252676 0)
(0.00289196 -0.0831871 0)
(0.0214139 -0.102864 0)
(0.0257404 -0.0836624 0)
(0.0185765 -0.0419101 0)
(0.289566 2.20172 0)
(0.753194 2.26409 0)
(1.09406 1.84269 0)
(1.23783 1.35282 0)
(1.22533 0.853447 0)
(1.11476 0.381265 0)
(0.936494 -0.0233857 0)
(0.727338 -0.351536 0)
(0.526993 -0.598235 0)
(0.34947 -0.751586 0)
(0.200577 -0.803496 0)
(0.081783 -0.761286 0)
(-0.00295403 -0.663583 0)
(-0.0565525 -0.567564 0)
(-0.0912832 -0.513841 0)
(-0.114877 -0.50193 0)
(-0.129896 -0.495458 0)
(-0.139043 -0.45444 0)
(-0.145172 -0.371298 0)
(-0.148238 -0.277594 0)
(-0.1468 -0.213054 0)
(-0.140065 -0.193731 0)
(-0.128443 -0.197687 0)
(-0.112821 -0.188286 0)
(-0.0979172 -0.150175 0)
(-0.0865439 -0.103137 0)
(-0.0770761 -0.079503 0)
(-0.0709367 -0.0900358 0)
(-0.0683668 -0.112346 0)
(-0.0667828 -0.111612 0)
(-0.0638987 -0.0762359 0)
(-0.057119 -0.0290771 0)
(-0.0448836 -0.00316442 0)
(-0.0283893 -0.00985095 0)
(-0.0104001 -0.0281528 0)
(0.00786817 -0.0263878 0)
(0.0275671 0.00384149 0)
(0.0431536 0.0339773 0)
(0.0489675 0.0281591 0)
(0.0477702 -0.014702 0)
(0.0409176 -0.0601711 0)
(0.027927 -0.0789707 0)
(0.0149589 -0.0683052 0)
(0.00431211 -0.0430191 0)
(0.180295 1.55702 0)
(0.505323 1.67236 0)
(0.787634 1.45762 0)
(0.968211 1.17659 0)
(1.04591 0.855701 0)
(1.03692 0.521133 0)
(0.961149 0.194758 0)
(0.833936 -0.0908294 0)
(0.678031 -0.319187 0)
(0.519323 -0.476166 0)
(0.375618 -0.556974 0)
(0.255637 -0.570808 0)
(0.16741 -0.542276 0)
(0.109391 -0.502561 0)
(0.0681423 -0.474157 0)
(0.0349556 -0.46023 0)
(0.00610815 -0.444778 0)
(-0.0169389 -0.409838 0)
(-0.0310382 -0.352582 0)
(-0.0346267 -0.288856 0)
(-0.0304053 -0.239693 0)
(-0.0239783 -0.214129 0)
(-0.019472 -0.202467 0)
(-0.0166481 -0.186767 0)
(-0.0133416 -0.159048 0)
(-0.00816854 -0.126797 0)
(-0.00195697 -0.105125 0)
(0.00244104 -0.100848 0)
(0.00242404 -0.103859 0)
(-0.000859907 -0.0980742 0)
(-0.00262452 -0.0773372 0)
(0.00107129 -0.0508905 0)
(0.0101537 -0.0337802 0)
(0.0209931 -0.0318123 0)
(0.0289291 -0.035608 0)
(0.0337387 -0.0303789 0)
(0.0400793 -0.0119434 0)
(0.0485881 0.00603052 0)
(0.0550485 0.00777588 0)
(0.0554046 -0.010115 0)
(0.0473938 -0.0334815 0)
(0.0320478 -0.046612 0)
(0.0174267 -0.0462448 0)
(0.0030402 -0.0357259 0)
(0.108993 1.0795 0)
(0.318087 1.19141 0)
(0.519704 1.08525 0)
(0.677317 0.931926 0)
(0.782222 0.740091 0)
(0.831382 0.523542 0)
(0.828518 0.299904 0)
(0.780086 0.0868125 0)
(0.69801 -0.0960764 0)
(0.599246 -0.237165 0)
(0.498593 -0.331817 0)
(0.405276 -0.383571 0)
(0.325442 -0.403373 0)
(0.261455 -0.405491 0)
(0.209203 -0.401041 0)
(0.165036 -0.393907 0)
(0.128151 -0.380865 0)
(0.0982359 -0.356995 0)
(0.0765863 -0.322067 0)
(0.0638219 -0.282449 0)
(0.0581821 -0.246913 0)
(0.0560896 -0.22028 0)
(0.0539237 -0.20044 0)
(0.0512058 -0.181364 0)
(0.0497226 -0.159342 0)
(0.0497776 -0.13622 0)
(0.0504162 -0.117099 0)
(0.0504268 -0.104866 0)
(0.0488708 -0.0971955 0)
(0.0456075 -0.0883032 0)
(0.0423163 -0.0752953 0)
(0.0413586 -0.0603913 0)
(0.0428533 -0.0483949 0)
(0.0449689 -0.0414465 0)
(0.0456008 -0.0367787 0)
(0.0447365 -0.0294567 0)
(0.044626 -0.017873 0)
(0.0460066 -0.00644208 0)
(0.0469776 -0.0015251 0)
(0.0449749 -0.00522463 0)
(0.0384326 -0.0132546 0)
(0.0274146 -0.0196562 0)
(0.0161102 -0.0219941 0)
(0.00339085 -0.0190899 0)
(0.0660709 0.733334 0)
(0.197922 0.821603 0)
(0.331395 0.76747 0)
(0.446452 0.684585 0)
(0.537313 0.575064 0)
(0.598444 0.445041 0)
(0.628123 0.303969 0)
(0.627572 0.162939 0)
(0.601225 0.0331496 0)
(0.556642 -0.0772858 0)
(0.502317 -0.1639 0)
(0.445237 -0.226241 0)
(0.389817 -0.267336 0)
(0.338233 -0.292087 0)
(0.291582 -0.305523 0)
(0.250011 -0.309884 0)
(0.213589 -0.306328 0)
(0.182441 -0.294894 0)
(0.156935 -0.276523 0)
(0.137197 -0.253857 0)
(0.122569 -0.230336 0)
(0.111703 -0.208457 0)
(0.103039 -0.188667 0)
(0.0955995 -0.169859 0)
(0.0891936 -0.151044 0)
(0.0838403 -0.132534 0)
(0.0793556 -0.115678 0)
(0.0752567 -0.101533 0)
(0.0709963 -0.0898029 0)
(0.0663674 -0.0792456 0)
(0.0615889 -0.0685561 0)
(0.0572228 -0.057819 0)
(0.0535952 -0.0479454 0)
(0.050299 -0.039467 0)
(0.0465901 -0.0317943 0)
(0.0427037 -0.0237407 0)
(0.0394341 -0.0149028 0)
(0.0368842 -0.00650075 0)
(0.0344776 -0.00056133 0)
(0.0311533 0.00187628 0)
(0.0261716 0.00162967 0)
(0.0192805 0.00038475 0)
(0.0117332 -0.000607232 0)
(0.00306412 -0.000882202 0)
(0.0406371 0.482759 0)
(0.125158 0.545172 0)
(0.211677 0.51618 0)
(0.289986 0.470864 0)
(0.356758 0.409675 0)
(0.408343 0.33523 0)
(0.443132 0.25191 0)
(0.460746 0.165266 0)
(0.461972 0.0807742 0)
(0.449295 0.00367002 0)
(0.426829 -0.0629856 0)
(0.398178 -0.117489 0)
(0.36627 -0.159744 0)
(0.333351 -0.190681 0)
(0.300752 -0.211718 0)
(0.269566 -0.22418 0)
(0.240559 -0.229132 0)
(0.214211 -0.22751 0)
(0.190862 -0.220375 0)
(0.170634 -0.209094 0)
(0.153435 -0.195207 0)
(0.138946 -0.180057 0)
(0.126671 -0.164488 0)
(0.116047 -0.148841 0)
(0.106637 -0.133251 0)
(0.0982336 -0.11797 0)
(0.0907248 -0.103432 0)
(0.0839357 -0.0900462 0)
(0.0776133 -0.0779413 0)
(0.0714806 -0.066927 0)
(0.0654217 -0.0567161 0)
(0.0595007 -0.0470981 0)
(0.0537969 -0.0379877 0)
(0.0483535 -0.029452 0)
(0.0431213 -0.021375 0)
(0.0380974 -0.0135624 0)
(0.0334115 -0.00599756 0)
(0.0291792 0.000991166 0)
(0.0252932 0.00684112 0)
(0.0214207 0.0111326 0)
(0.0172662 0.013872 0)
(0.0127082 0.0153848 0)
(0.00776133 0.0161087 0)
(0.00228663 0.0142643 0)
(0.0250804 0.300212 0)
(0.0799775 0.340361 0)
(0.135797 0.324478 0)
(0.187938 0.299697 0)
(0.234146 0.266152 0)
(0.272486 0.224966 0)
(0.302087 0.178008 0)
(0.32235 0.127741 0)
(0.333466 0.0768256 0)
(0.335575 0.0277721 0)
(0.330088 -0.0171602 0)
(0.319131 -0.0567112 0)
(0.303983 -0.0900512 0)
(0.285966 -0.116856 0)
(0.26627 -0.137202 0)
(0.24591 -0.151415 0)
(0.225676 -0.159986 0)
(0.20614 -0.16349 0)
(0.187715 -0.162613 0)
(0.170668 -0.158118 0)
(0.155159 -0.150808 0)
(0.141232 -0.141452 0)
(0.128788 -0.130712 0)
(0.117643 -0.119112 0)
(0.10759 -0.107052 0)
(0.0984685 -0.0948632 0)
(0.090176 -0.082847 0)
(0.0825825 -0.0712601 0)
(0.0755127 -0.0602762 0)
(0.0688628 -0.0499622 0)
(0.0625656 -0.0402992 0)
(0.0566442 -0.0312335 0)
(0.050918 -0.0227538 0)
(0.0452709 -0.0147554 0)
(0.0398691 -0.00721167 0)
(0.0347338 -0.000115624 0)
(0.0298784 0.0064934 0)
(0.0253432 0.0125065 0)
(0.021097 0.017761 0)
(0.0170539 0.0221035 0)
(0.013156 0.025459 0)
(0.00942065 0.0278428 0)
(0.00573521 0.0293403 0)
(0.00152741 0.0260733 0)
(0.0161556 0.171535 0)
(0.0533365 0.194545 0)
(0.0908228 0.185804 0)
(0.126692 0.172334 0)
(0.159123 0.154212 0)
(0.187178 0.131943 0)
(0.210479 0.106324 0)
(0.228511 0.0784305 0)
(0.241208 0.0494773 0)
(0.24895 0.0206097 0)
(0.251631 -0.00688264 0)
(0.249547 -0.0321417 0)
(0.243762 -0.054463 0)
(0.235071 -0.0733581 0)
(0.224213 -0.0885613 0)
(0.21185 -0.0999978 0)
(0.198586 -0.107754 0)
(0.184952 -0.112049 0)
(0.171386 -0.113198 0)
(0.158093 -0.111593 0)
(0.145304 -0.10766 0)
(0.133283 -0.101838 0)
(0.12208 -0.0945554 0)
(0.111689 -0.0862054 0)
(0.102078 -0.0771394 0)
(0.0931951 -0.0676602 0)
(0.0849854 -0.0580258 0)
(0.077387 -0.0484507 0)
(0.0703148 -0.0391026 0)
(0.0636835 -0.0301019 0)
(0.0574161 -0.0215165 0)
(0.0514007 -0.0133669 0)
(0.0457493 -0.00573006 0)
(0.0405218 0.00143979 0)
(0.0355719 0.00813998 0)
(0.0308821 0.0143509 0)
(0.0264533 0.0200414 0)
(0.0222761 0.025162 0)
(0.0183328 0.029651 0)
(0.0146081 0.0334457 0)
(0.0110819 0.0364972 0)
(0.0077779 0.0387769 0)
(0.00480209 0.0402827 0)
(0.000939734 0.0355292 0)
(0.0115924 0.0876124 0)
(0.039018 0.0989782 0)
(0.0666953 0.0940504 0)
(0.0935306 0.0865937 0)
(0.118078 0.0766647 0)
(0.139906 0.0645093 0)
(0.158867 0.0504941 0)
(0.17453 0.0351226 0)
(0.186714 0.0189917 0)
(0.195495 0.00273171 0)
(0.200822 -0.0132212 0)
(0.202742 -0.0281526 0)
(0.20166 -0.0416009 0)
(0.198021 -0.0532077 0)
(0.192253 -0.0627145 0)
(0.184786 -0.0699746 0)
(0.176044 -0.0749444 0)
(0.166418 -0.0776734 0)
(0.156253 -0.0782898 0)
(0.145831 -0.0769823 0)
(0.135395 -0.0739805 0)
(0.125139 -0.0695392 0)
(0.115206 -0.0639216 0)
(0.105693 -0.0573888 0)
(0.0966488 -0.0501894 0)
(0.0880998 -0.0425517 0)
(0.0800559 -0.034678 0)
(0.0725095 -0.0267426 0)
(0.0654385 -0.0188911 0)
(0.0588113 -0.0112412 0)
(0.0525876 -0.00388618 0)
(0.0467303 0.00310707 0)
(0.0412536 0.00977826 0)
(0.0361695 0.0160135 0)
(0.0314438 0.0217949 0)
(0.0270459 0.0271033 0)
(0.0229544 0.0319139 0)
(0.0191536 0.0361983 0)
(0.0156254 0.0399245 0)
(0.0123467 0.0430604 0)
(0.00927641 0.0455781 0)
(0.00640713 0.0474552 0)
(0.00403863 0.0486887 0)
(0.00049012 0.0426975 0)
(0.00920104 0.0328599 0)
(0.0309376 0.0365936 0)
(0.0529957 0.0338094 0)
(0.0743639 0.0297217 0)
(0.0940567 0.0243618 0)
(0.111863 0.0178483 0)
(0.127717 0.010356 0)
(0.141258 0.0021347 0)
(0.152276 -0.00651655 0)
(0.1607 -0.015272 0)
(0.166539 -0.0238114 0)
(0.169852 -0.0318066 0)
(0.170786 -0.038968 0)
(0.169565 -0.0450575 0)
(0.166443 -0.0498915 0)
(0.1617 -0.0533495 0)
(0.155624 -0.0553726 0)
(0.148502 -0.0559609 0)
(0.140605 -0.0551673 0)
(0.132179 -0.0530886 0)
(0.123446 -0.0498553 0)
(0.114595 -0.0456213 0)
(0.105787 -0.0405535 0)
(0.0971405 -0.0348258 0)
(0.0887495 -0.0286084 0)
(0.0806899 -0.022064 0)
(0.0730088 -0.0153419 0)
(0.0657342 -0.00857571 0)
(0.0588851 -0.00187931 0)
(0.0524736 0.00465013 0)
(0.0464982 0.0109365 0)
(0.0409634 0.0169611 0)
(0.0358093 0.0226098 0)
(0.0310056 0.027882 0)
(0.0265893 0.0327419 0)
(0.0225458 0.0371667 0)
(0.0188548 0.0411368 0)
(0.0154977 0.0446332 0)
(0.0124511 0.0476368 0)
(0.00969175 0.0501291 0)
(0.00717315 0.052094 0)
(0.00487794 0.0535211 0)
(0.00316634 0.0544253 0)
(0.000142497 0.0475775 0)
(0.00742058 -0.00474866 0)
(0.0248241 -0.00616442 0)
(0.0424103 -0.00760315 0)
(0.059352 -0.00956237 0)
(0.0750919 -0.0120468 0)
(0.089437 -0.0150292 0)
(0.102337 -0.0184237 0)
(0.113481 -0.0221018 0)
(0.122693 -0.0259874 0)
(0.129901 -0.0298356 0)
(0.135136 -0.0334354 0)
(0.138429 -0.0366631 0)
(0.139791 -0.0393593 0)
(0.139328 -0.0413853 0)
(0.13723 -0.042633 0)
(0.133708 -0.0430265 0)
(0.128956 -0.0425267 0)
(0.123188 -0.0411298 0)
(0.116622 -0.0388651 0)
(0.109465 -0.0357907 0)
(0.101912 -0.031988 0)
(0.0941383 -0.0275556 0)
(0.0862992 -0.0226036 0)
(0.0785268 -0.0172478 0)
(0.070935 -0.0116047 0)
(0.0636168 -0.00578731 0)
(0.0566387 9.80742e-05 0)
(0.0500422 0.0059544 0)
(0.0438551 0.011699 0)
(0.0381325 0.017263 0)
(0.0329626 0.0226573 0)
(0.0281619 0.0277016 0)
(0.0237032 0.0323907 0)
(0.0197408 0.036759 0)
(0.0162162 0.0407229 0)
(0.01311 0.0442918 0)
(0.0104038 0.0474527 0)
(0.00807592 0.0501931 0)
(0.00610135 0.0525028 0)
(0.00446059 0.0543718 0)
(0.00310397 0.0557907 0)
(0.00203325 0.0567576 0)
(0.00153688 0.0573127 0)
(-0.000305019 0.0500244 0)
(0.0056273 -0.0300895 0)
(0.0186869 -0.0348106 0)
(0.0315418 -0.0353496 0)
(0.0437742 -0.0358851 0)
(0.0553307 -0.036479 0)
(0.0659106 -0.0371859 0)
(0.0753913 -0.0379385 0)
(0.0833203 -0.038686 0)
(0.0897187 -0.0392518 0)
(0.0948191 -0.0396612 0)
(0.0983764 -0.0398483 0)
(0.100223 -0.0397477 0)
(0.100468 -0.0392813 0)
(0.0992107 -0.0383866 0)
(0.0966249 -0.0370137 0)
(0.0929011 -0.0351307 0)
(0.0881757 -0.0327225 0)
(0.0826268 -0.0297953 0)
(0.0764461 -0.026375 0)
(0.0698167 -0.0225034 0)
(0.0629098 -0.0182365 0)
(0.0558839 -0.0136413 0)
(0.048888 -0.00879118 0)
(0.0420508 -0.00376369 0)
(0.0354749 0.00136442 0)
(0.0292485 0.00651876 0)
(0.0234657 0.0116266 0)
(0.0181865 0.016625 0)
(0.0134301 0.0215309 0)
(0.00928586 0.026232 0)
(0.00557164 0.0305921 0)
(0.00224038 0.0346298 0)
(-0.00042247 0.038397 0)
(-0.00252978 0.0418337 0)
(-0.00416285 0.0449299 0)
(-0.00526185 0.0476727 0)
(-0.00589567 0.0500553 0)
(-0.00610408 0.0520729 0)
(-0.00591891 0.0537214 0)
(-0.00537133 0.0549962 0)
(-0.00450523 0.0558909 0)
(-0.00325368 0.0564053 0)
(-0.00148441 0.0565954 0)
(-0.00110137 0.0493702 0)
(0.00355551 -0.0455901 0)
(0.0118438 -0.052206 0)
(0.0192537 -0.0522688 0)
(0.0261272 -0.0519063 0)
(0.0326583 -0.0511804 0)
(0.0384407 -0.0501312 0)
(0.0434673 -0.0488779 0)
(0.0476125 -0.0474365 0)
(0.0506072 -0.0457109 0)
(0.0521676 -0.0437717 0)
(0.0523607 -0.0416437 0)
(0.0512704 -0.0392808 0)
(0.0489843 -0.0366713 0)
(0.0455671 -0.0338076 0)
(0.0411792 -0.0306832 0)
(0.0360131 -0.0273003 0)
(0.0301814 -0.0236684 0)
(0.0238565 -0.0198041 0)
(0.0172164 -0.0157341 0)
(0.01042 -0.0114927 0)
(0.00363043 -0.00712023 0)
(-0.00299584 -0.00266289 0)
(-0.0093132 0.0018311 0)
(-0.015198 0.00631386 0)
(-0.0205604 0.0107398 0)
(-0.0253327 0.0150679 0)
(-0.0294492 0.0192797 0)
(-0.0327441 0.0233423 0)
(-0.0352787 0.027132 0)
(-0.037266 0.0307058 0)
(-0.038526 0.0339588 0)
(-0.0389331 0.0370064 0)
(-0.0386015 0.0397921 0)
(-0.037607 0.0422645 0)
(-0.036002 0.0444812 0)
(-0.0338254 0.0464068 0)
(-0.0311345 0.0480375 0)
(-0.0279805 0.0493714 0)
(-0.0244118 0.0504042 0)
(-0.0204692 0.0511286 0)
(-0.0161906 0.0515344 0)
(-0.01144 0.0516149 0)
(-0.00619361 0.0514295 0)
(-0.00240103 0.0448427 0)
(0.000974177 -0.0521752 0)
(0.00375761 -0.0593188 0)
(0.00503178 -0.0590071 0)
(0.00630726 -0.0579716 0)
(0.00758897 -0.056331 0)
(0.00809028 -0.0541455 0)
(0.00773826 -0.0515374 0)
(0.00653288 -0.0485722 0)
(0.00441665 -0.0454093 0)
(0.00131396 -0.0420051 0)
(-0.00273565 -0.0383949 0)
(-0.00766568 -0.0346174 0)
(-0.0133722 -0.0307081 0)
(-0.0196534 -0.0266948 0)
(-0.0264845 -0.0226011 0)
(-0.0337927 -0.018448 0)
(-0.0413294 -0.0142605 0)
(-0.0489474 -0.0100645 0)
(-0.0565105 -0.00588854 0)
(-0.0638686 -0.00176282 0)
(-0.0708461 0.00228154 0)
(-0.0772785 0.00621389 0)
(-0.0830572 0.0100039 0)
(-0.0880755 0.0136266 0)
(-0.0922215 0.0170561 0)
(-0.0953939 0.0202836 0)
(-0.0975544 0.0232845 0)
(-0.098768 0.0260614 0)
(-0.0989123 0.0285281 0)
(-0.0979131 0.0307563 0)
(-0.0958467 0.0328407 0)
(-0.0927424 0.0347039 0)
(-0.0886732 0.0363497 0)
(-0.0836997 0.0377879 0)
(-0.0779115 0.0390358 0)
(-0.0714106 0.040096 0)
(-0.0643011 0.0409674 0)
(-0.0566776 0.0416436 0)
(-0.0486247 0.0421104 0)
(-0.0402059 0.0423434 0)
(-0.0314605 0.0423113 0)
(-0.022188 0.0419869 0)
(-0.0123941 0.0414266 0)
(-0.00417777 0.0360396 0)
(-0.00170422 -0.0510984 0)
(-0.00471742 -0.0577009 0)
(-0.0101423 -0.0571113 0)
(-0.0151645 -0.0555719 0)
(-0.0201258 -0.0533296 0)
(-0.0257535 -0.0505308 0)
(-0.032014 -0.0472071 0)
(-0.0389149 -0.0434685 0)
(-0.0464162 -0.0394402 0)
(-0.0544425 -0.0352034 0)
(-0.0628959 -0.0308304 0)
(-0.0716759 -0.0263795 0)
(-0.0806811 -0.021901 0)
(-0.0897815 -0.0174403 0)
(-0.0989366 -0.0130424 0)
(-0.108095 -0.00873457 0)