/*--------------------------------*- C++ -*----------------------------------*\
  =========                 |
  \\      /  F ield         | OpenFOAM: The Open Source CFD Toolbox
   \\    /   O peration     | Website:  https://openfoam.org
    \\  /    A nd           | Version:  7
     \\/     M anipulation  |
\*---------------------------------------------------------------------------*/
FoamFile
{
    version     2.0;
    format      ascii;
    class       volScalarField;
    location    "0.27";
    object      p;
}
// * * * * * * * * * * * * * * * * * * * * * * * * * * * * * * * * * * * * * //

dimensions      [0 2 -2 0 0 0 0];

internalField   nonuniform List<scalar> 
1936
(
-4.73102e-05
-2754.25
-6712.5
-6715.35
-5660.22
-5624.41
-5462.74
-5030.85
-4564.07
-4396.36
-4603.8
-5654.87
-7209.12
-6709.27
-4357.78
-3284.12
-3377.16
-4263.4
-6600.72
-7302.93
-4987.17
-3394.28
-3285.89
-4219.06
-6847.94
-7439.7
-4943.6
-3399.4
-3214.99
-3889.06
-6392.54
-7599.41
-5404.53
-3466.91
-3200.58
-3579.11
-5376.91
-7331.98
-6469.23
-4126.25
-3304.12
-3431.53
-4659.92
-7317.1
-96.7626
-2771.61
-6660.66
-6662.53
-5642.51
-5611.98
-5450.12
-5029.06
-4580.98
-4424.55
-4622.99
-5640.49
-7157.84
-6660.05
-4358.65
-3339.67
-3436.01
-4280.81
-6569.1
-7245.9
-4972.56
-3447.7
-3347.3
-4218.66
-6783.69
-7378.36
-4932.47
-3445.29
-3279.13
-3908.57
-6345.9
-7538.46
-5386.07
-3507.82
-3262.3
-3614.52
-5369.29
-7277.84
-6412.09
-4136.28
-3365.65
-3478.08
-4648.55
-7254.54
-396.039
-2832.89
-6465.61
-6516.64
-5607.54
-5569.42
-5413.13
-5025.48
-4624.08
-4492.31
-4681.87
-5617.84
-7000.11
-6513.55
-4384.93
-3481.11
-3581.5
-4358.21
-6474.91
-7060.58
-4952.89
-3588.76
-3495.99
-4245.86
-6597.87
-7183.6
-4931.58
-3569.2
-3431.99
-3986.08
-6217.54
-7339.24
-5355.82
-3629.03
-3407.38
-3726.32
-5368.39
-7102.44
-6247.53
-4182.85
-3514.14
-3597.66
-4651.64
-7063.02
-815.221
-2930.11
-6176.37
-6303.05
-5562.46
-5511.77
-5362.15
-5023.05
-4686.96
-4587.07
-4767.14
-5585.23
-6760.33
-6300.43
-4440.78
-3685.45
-3782.52
-4468.1
-6318.36
-6777.48
-4932.54
-3784.97
-3703.45
-4308.13
-6334.76
-6886.19
-4935.99
-3749.55
-3644.3
-4106.86
-6031.73
-7031.32
-5310.89
-3805.83
-3612.32
-3892.43
-5356.94
-6826.97
-6015.29
-4259.75
-3717.21
-3772.16
-4674.61
-6777.57
-1304.15
-3056.54
-5843.1
-6047.84
-5500.47
-5442.41
-5305.28
-5024.25
-4760.1
-4691.62
-4859.04
-5541.59
-6476.63
-6058.4
-4520.65
-3920.55
-4004.93
-4587.46
-6122.6
-6445.64
-4912.02
-3998.58
-3932.41
-4397.01
-6044.96
-6537.26
-4941.87
-3956.44
-3879.05
-4248.25
-5820.91
-6666.99
-5254.39
-4007.26
-3845.69
-4086.87
-5330.42
-6494.8
-5757.85
-4350.5
-3937.79
-3973.47
-4713.24
-6448.27
-1824.72
-3209.24
-5503.9
-5774.54
-5418.57
-5365.38
-5248.51
-5029.87
-4835.12
-4793.64
-4943.03
-5485.61
-6180.26
-5816.32
-4617.1
-4160.85
-4224.86
-4702.16
-5905.86
-6104.88
-4894.81
-4205.03
-4157.27
-4502.34
-5765.4
-6177.47
-4947.74
-4166.12
-4111.14
-4394.36
-5609.12
-6288.12
-5191.87
-4209.36
-4084.14
-4285.91
-5285.67
-6145
-5509.36
-4446.25
-4152.36
-4178.54
-4761.23
-6113.12
-2347.63
-3385.03
-5188.14
-5504.14
-5318.43
-5283.7
-5195.41
-5037.91
-4904.72
-4883.7
-5009.46
-5419.69
-5895.54
-5595.35
-4719.97
-4386.64
-4427.56
-4802.7
-5685.81
-5786.12
-4885.52
-4391.16
-4361.36
-4611.25
-5519.69
-5839.18
-4951.76
-4361.62
-4323.85
-4532.22
-5416.01
-5928
-5129.6
-4396.71
-4307.73
-4469.61
-5224.14
-5811.63
-5295.56
-4541.48
-4346.86
-4369.18
-4811.34
-5799
-2849.75
-3578.43
-4918.48
-5254.54
-5205.2
-5199.58
-5145.88
-5045.08
-4962.5
-4954.95
-5055.91
-5345.41
-5641.77
-5409.53
-4817.45
-4583.87
-4603.78
-4883.42
-5479.41
-5511.37
-4887.39
-4550.97
-4534.8
-4711.91
-5319.52
-5545.32
-4952.6
-4531.53
-4506.74
-4653.4
-5253.62
-5611.97
-5073.77
-4559.48
-4501.44
-4624.62
-5151.74
-5520.02
-5132.31
-4632.13
-4512.55
-4533.61
-4855.11
-5524.85
-3307.57
-3783.31
-4712.53
-5039.81
-5086.99
-5114.86
-5098.21
-5047.11
-5004.21
-5005.05
-5080.72
-5267.38
-5431.19
-5265.6
-4899.28
-4743.56
-4748.84
-4940.46
-5301.51
-5294.56
-4898.44
-4681.34
-4673.49
-4795.42
-5167.47
-5309.86
-4949.14
-4670.43
-4654.04
-4753.01
-5127.46
-5356.21
-5025.89
-4693.18
-4656.57
-4744.58
-5078.67
-5285.49
-5021.38
-4714.58
-4646.12
-4665.98
-4886.91
-5301.54
-3696.86
-3988.87
-4582.84
-4871.29
-4974.34
-5032.62
-5050.71
-5040.37
-5027.09
-5033.85
-5085.19
-5191.84
-5269.02
-5163.15
-4959.15
-4861.59
-4859.25
-4973.66
-5162.91
-5139.82
-4912.23
-4781.98
-4777.51
-4857.24
-5060.9
-5138.29
-4942.28
-4776.47
-4764.31
-4827.7
-5037.98
-5167.32
-4987.33
-4794.67
-4771.27
-4828.53
-5015.21
-5114.67
-4954.45
-4783.36
-4747.18
-4766.31
-4904.41
-5133.68
-4003.01
-4177.64
-4528.6
-4757.08
-4879.24
-4958.17
-5003.67
-5023.66
-5031.7
-5042.68
-5073.4
-5124.9
-5153.48
-5095.33
-4994.78
-4939.23
-4933.04
-4987.73
-5067.33
-5041.93
-4924.35
-4853.17
-4850.28
-4896.54
-4993.22
-5027.56
-4934.97
-4849.35
-4840.61
-4877.23
-4980.66
-5042.9
-4959.06
-4862.83
-4848.68
-4880.46
-4967.94
-5004.57
-4919.27
-4834.81
-4818.47
-4835.06
-4910.51
-5019.85
-4228.16
-4333.73
-4531.69
-4696.49
-4811.73
-4898.13
-4959.9
-4999.17
-5021.09
-5034.98
-5051.25
-5070.66
-5077.39
-5051.57
-5009.29
-4981.42
-4973.33
-4989.54
-5010.18
-4988.33
-4932.8
-4898.05
-4895.83
-4917.73
-4955.45
-4966.61
-4929.8
-4893.03
-4887.84
-4905.66
-4948.12
-4972.41
-4940.98
-4901.79
-4894.26
-4907.63
-4938.37
-4944.17
-4904.36
-4869.01
-4864.21
-4876.08
-4910.13
-4952.3
-4385.36
-4453.59
-4566.06
-4678.14
-4774.3
-4856.65
-4923.12
-4971.11
-5000.8
-5016.29
-5024.6
-5029.85
-5030.23
-5022.3
-5008.98
-4996.9
-4988.47
-4985.27
-4980.8
-4963.77
-4938.77
-4922.97
-4920.68
-4927.65
-4937.89
-4939.36
-4927.52
-4915.32
-4913.08
-4919.42
-4932.46
-4939.53
-4931.17
-4919.61
-4916.31
-4918.75
-4923.25
-4918
-4901.16
-4889.54
-4890.2
-4896.62
-4907.66
-4918.61
-4497.46
-4541.21
-4609.69
-4685.52
-4761.01
-4832.42
-4894.72
-4942.73
-4974.18
-4990.87
-4997.79
-5000.11
-5001.05
-5001.36
-5000.04
-4996.1
-4988.55
-4978.75
-4967.41
-4954.54
-4942.48
-4934.99
-4932.26
-4931.97
-4931.94
-4930.43
-4927.3
-4924.84
-4924.2
-4925.02
-4926.69
-4927.65
-4926.8
-4925.32
-4924.04
-4921.69
-4917.47
-4910.74
-4903.64
-4901.14
-4902.98
-4905.03
-4905.89
-4905.7
-4582.31
-4608.69
-4651.96
-4704.33
-4761.88
-4820.03
-4873.3
-4916.46
-4946.61
-4964.34
-4973.21
-4977.65
-4981.15
-4984.83
-4987.31
-4986.38
-4980.79
-4971.49
-4960.91
-4951.46
-4944.48
-4939.88
-4936.75
-4933.87
-4930.98
-4928.92
-4928.19
-4928.25
-4928.11
-4926.99
-4925.58
-4924.91
-4925.34
-4925.97
-4925.14
-4921.71
-4916.43
-4911.22
-4908.04
-4907.7
-4908.61
-4908.13
-4905.82
-4903.16
-4649.56
-4664.52
-4691.64
-4727.5
-4769.62
-4814.57
-4857.34
-4893.72
-4921.15
-4939.6
-4951.19
-4958.83
-4964.84
-4969.98
-4973.45
-4973.81
-4970.39
-4964.03
-4956.66
-4950.07
-4945.12
-4941.41
-4938.13
-4934.91
-4931.99
-4930.1
-4929.47
-4929.41
-4928.93
-4927.59
-4926.01
-4925.05
-4925.01
-4925.1
-4924.07
-4921.32
-4917.55
-4914.15
-4912.16
-4911.57
-4911.22
-4909.67
-4907.14
-4904.96
-4703.3
-4711.7
-4728.41
-4752.2
-4781.59
-4814.11
-4846.72
-4875.97
-4899.88
-4918.03
-4931.35
-4941.33
-4949.16
-4955.25
-4959.31
-4960.8
-4959.58
-4956.29
-4952.07
-4947.93
-4944.36
-4941.23
-4938.29
-4935.5
-4933.11
-4931.43
-4930.46
-4929.82
-4929.01
-4927.86
-4926.61
-4925.66
-4925.08
-4924.48
-4923.3
-4921.34
-4918.96
-4916.76
-4915.16
-4914.06
-4912.9
-4911.26
-4909.45
-4908.08
-4745.84
-4750.78
-4761.11
-4776.5
-4796.2
-4818.72
-4842.11
-4864.43
-4884.14
-4900.62
-4914.04
-4924.88
-4933.6
-4940.4
-4945.2
-4947.93
-4948.7
-4947.95
-4946.26
-4944.17
-4941.96
-4939.72
-4937.5
-4935.41
-4933.6
-4932.17
-4931.06
-4930.11
-4929.14
-4928.09
-4927.05
-4926.12
-4925.28
-4924.38
-4923.24
-4921.8
-4920.22
-4918.68
-4917.29
-4916.01
-4914.71
-4913.34
-4912.1
-4911.27
-4779.17
-4782.25
-4788.77
-4798.66
-4811.55
-4826.64
-4842.85
-4859.09
-4874.37
-4888.15
-4900.21
-4910.55
-4919.23
-4926.28
-4931.7
-4935.5
-4937.84
-4938.97
-4939.2
-4938.8
-4937.97
-4936.87
-4935.6
-4934.3
-4933.09
-4932
-4931.02
-4930.09
-4929.16
-4928.23
-4927.31
-4926.43
-4925.56
-4924.64
-4923.62
-4922.51
-4921.34
-4920.16
-4919
-4917.85
-4916.73
-4915.68
-4914.84
-4914.33
-4805.02
-4807.02
-4811.22
-4817.61
-4826
-4835.96
-4846.96
-4858.39
-4869.73
-4880.51
-4890.48
-4899.47
-4907.38
-4914.14
-4919.72
-4924.14
-4927.48
-4929.85
-4931.43
-4932.35
-4932.75
-4932.76
-4932.48
-4932.02
-4931.46
-4930.85
-4930.21
-4929.53
-4928.82
-4928.08
-4927.33
-4926.58
-4925.81
-4925.01
-4924.16
-4923.28
-4922.38
-4921.46
-4920.55
-4919.66
-4918.82
-4918.08
-4917.52
-4917.2
-4824.76
-4826.09
-4828.84
-4833.02
-4838.52
-4845.12
-4852.55
-4860.5
-4868.67
-4876.77
-4884.58
-4891.92
-4898.67
-4904.73
-4910.03
-4914.56
-4918.33
-4921.39
-4923.8
-4925.64
-4926.98
-4927.9
-4928.48
-4928.79
-4928.9
-4928.84
-4928.66
-4928.37
-4927.99
-4927.54
-4927.04
-4926.5
-4925.93
-4925.32
-4924.68
-4924.02
-4923.35
-4922.67
-4922.01
-4921.38
-4920.8
-4920.31
-4919.96
-4919.76
-4839.42
-4840.33
-4842.17
-4844.97
-4848.65
-4853.11
-4858.2
-4863.76
-4869.61
-4875.6
-4881.57
-4887.39
-4892.93
-4898.12
-4902.88
-4907.17
-4910.96
-4914.26
-4917.09
-4919.46
-4921.41
-4922.98
-4924.22
-4925.16
-4925.86
-4926.33
-4926.63
-4926.77
-4926.77
-4926.67
-4926.47
-4926.2
-4925.87
-4925.5
-4925.09
-4924.65
-4924.2
-4923.75
-4923.31
-4922.9
-4922.53
-4922.22
-4922.01
-4921.89
-4849.09
-4849.75
-4851.07
-4853.07
-4855.71
-4858.93
-4862.64
-4866.75
-4871.16
-4875.76
-4880.45
-4885.14
-4889.74
-4894.17
-4898.38
-4902.31
-4905.93
-4909.22
-4912.17
-4914.77
-4917.04
-4918.99
-4920.64
-4922.01
-4923.12
-4924.01
-4924.69
-4925.19
-4925.53
-4925.73
-4925.82
-4925.81
-4925.71
-4925.56
-4925.35
-4925.1
-4924.84
-4924.56
-4924.29
-4924.03
-4923.81
-4923.62
-4923.49
-4923.42
-4854.53
-4855.05
-4856.1
-4857.69
-4859.8
-4862.38
-4865.37
-4868.71
-4872.33
-4876.16
-4880.12
-4884.14
-4888.16
-4892.11
-4895.93
-4899.59
-4903.03
-4906.24
-4909.2
-4911.88
-4914.29
-4916.43
-4918.3
-4919.91
-4921.28
-4922.42
-4923.35
-4924.09
-4924.66
-4925.08
-4925.36
-4925.53
-4925.61
-4925.6
-4925.53
-4925.42
-4925.28
-4925.11
-4924.94
-4924.78
-4924.63
-4924.51
-4924.43
-4924.38
-4857.3
-4857.76
-4858.67
-4860.05
-4861.89
-4864.15
-4866.78
-4869.73
-4872.95
-4876.37
-4879.95
-4883.62
-4887.32
-4891
-4894.61
-4898.11
-4901.45
-4904.6
-4907.55
-4910.27
-4912.75
-4914.99
-4916.98
-4918.73
-4920.24
-4921.53
-4922.62
-4923.5
-4924.21
-4924.76
-4925.16
-4925.44
-4925.62
-4925.71
-4925.73
-4925.69
-4925.61
-4925.51
-4925.4
-4925.29
-4925.18
-4925.09
-4925.03
-4925
-4858.54
-4858.97
-4859.8
-4861.09
-4862.8
-4864.9
-4867.35
-4870.11
-4873.14
-4876.37
-4879.76
-4883.26
-4886.81
-4890.36
-4893.86
-4897.29
-4900.58
-4903.72
-4906.68
-4909.43
-4911.96
-4914.26
-4916.33
-4918.16
-4919.76
-4921.15
-4922.31
-4923.29
-4924.08
-4924.7
-4925.17
-4925.52
-4925.75
-4925.89
-4925.95
-4925.95
-4925.91
-4925.84
-4925.75
-4925.66
-4925.58
-4925.5
-4925.45
-4925.42
-4858.9
-4859.31
-4860.11
-4861.35
-4863.01
-4865.04
-4867.42
-4870.1
-4873.05
-4876.2
-4879.52
-4882.95
-4886.45
-4889.96
-4893.44
-4896.85
-4900.14
-4903.29
-4906.27
-4909.06
-4911.63
-4913.98
-4916.1
-4917.99
-4919.65
-4921.08
-4922.3
-4923.32
-4924.15
-4924.81
-4925.32
-4925.69
-4925.94
-4926.1
-4926.18
-4926.2
-4926.17
-4926.11
-4926.03
-4925.94
-4925.86
-4925.79
-4925.74
-4925.72
-4858.79
-4859.19
-4859.99
-4861.21
-4862.85
-4864.87
-4867.24
-4869.9
-4872.83
-4875.98
-4879.29
-4882.72
-4886.22
-4889.74
-4893.24
-4896.66
-4899.98
-4903.16
-4906.17
-4908.99
-4911.6
-4913.98
-4916.14
-4918.06
-4919.74
-4921.2
-4922.44
-4923.48
-4924.32
-4924.99
-4925.51
-4925.88
-4926.14
-4926.29
-4926.37
-4926.38
-4926.35
-4926.28
-4926.2
-4926.11
-4926.03
-4925.96
-4925.91
-4925.89
-4858.49
-4858.9
-4859.69
-4860.92
-4862.57
-4864.61
-4866.99
-4869.68
-4872.63
-4875.8
-4879.15
-4882.61
-4886.14
-4889.69
-4893.22
-4896.68
-4900.03
-4903.24
-4906.28
-4909.13
-4911.76
-4914.16
-4916.33
-4918.26
-4919.95
-4921.41
-4922.65
-4923.67
-4924.51
-4925.16
-4925.66
-4926.02
-4926.25
-4926.39
-4926.45
-4926.44
-4926.39
-4926.31
-4926.22
-4926.12
-4926.03
-4925.95
-4925.9
-4925.88
-4858.2
-4858.61
-4859.41
-4860.65
-4862.33
-4864.39
-4866.8
-4869.53
-4872.53
-4875.75
-4879.14
-4882.65
-4886.22
-4889.82
-4893.39
-4896.88
-4900.26
-4903.5
-4906.55
-4909.41
-4912.05
-4914.45
-4916.61
-4918.52
-4920.2
-4921.63
-4922.84
-4923.84
-4924.64
-4925.25
-4925.71
-4926.03
-4926.23
-4926.33
-4926.36
-4926.32
-4926.25
-4926.15
-4926.03
-4925.92
-4925.82
-4925.74
-4925.68
-4925.66
-4858.03
-4858.44
-4859.25
-4860.51
-4862.21
-4864.31
-4866.77
-4869.55
-4872.6
-4875.86
-4879.3
-4882.85
-4886.47
-4890.1
-4893.7
-4897.22
-4900.62
-4903.87
-4906.93
-4909.78
-4912.41
-4914.79
-4916.93
-4918.81
-4920.45
-4921.84
-4923
-4923.94
-4924.69
-4925.25
-4925.65
-4925.91
-4926.05
-4926.1
-4926.08
-4926
-4925.89
-4925.76
-4925.62
-4925.5
-4925.39
-4925.3
-4925.24
-4925.21
-4858.06
-4858.46
-4859.27
-4860.56
-4862.3
-4864.44
-4866.94
-4869.75
-4872.84
-4876.15
-4879.62
-4883.21
-4886.86
-4890.51
-4894.13
-4897.66
-4901.07
-4904.32
-4907.37
-4910.21
-4912.81
-4915.17
-4917.26
-4919.1
-4920.68
-4922.02
-4923.12
-4923.99
-4924.66
-4925.15
-4925.48
-4925.67
-4925.74
-4925.71
-4925.62
-4925.49
-4925.32
-4925.15
-4924.98
-4924.83
-4924.71
-4924.62
-4924.56
-4924.53
-4858.32
-4858.73
-4859.55
-4860.85
-4862.61
-4864.77
-4867.3
-4870.14
-4873.24
-4876.57
-4880.06
-4883.66
-4887.33
-4890.99
-4894.62
-4898.15
-4901.56
-4904.8
-4907.84
-4910.65
-4913.22
-4915.54
-4917.59
-4919.38
-4920.91
-4922.18
-4923.2
-4924
-4924.59
-4925
-4925.24
-4925.34
-4925.32
-4925.21
-4925.03
-4924.82
-4924.58
-4924.34
-4924.12
-4923.93
-4923.79
-4923.69
-4923.64
-4923.62
-4858.87
-4859.27
-4860.09
-4861.4
-4863.15
-4865.31
-4867.83
-4870.65
-4873.75
-4877.07
-4880.56
-4884.17
-4887.83
-4891.5
-4895.12
-4898.65
-4902.05
-4905.28
-4908.3
-4911.09
-4913.63
-4915.91
-4917.91
-4919.65
-4921.11
-4922.32
-4923.27
-4923.99
-4924.5
-4924.82
-4924.97
-4924.97
-4924.86
-4924.65
-4924.37
-4924.05
-4923.71
-4923.38
-4923.07
-4922.82
-4922.63
-4922.51
-4922.46
-4922.46
-4859.73
-4860.13
-4860.93
-4862.18
-4863.89
-4866
-4868.47
-4871.25
-4874.32
-4877.61
-4881.08
-4884.67
-4888.33
-4891.99
-4895.61
-4899.13
-4902.52
-4905.73
-4908.73
-4911.5
-4914.01
-4916.25
-4918.21
-4919.9
-4921.31
-4922.45
-4923.34
-4923.99
-4924.41
-4924.65
-4924.7
-4924.61
-4924.39
-4924.07
-4923.68
-4923.25
-4922.78
-4922.33
-4921.9
-4921.53
-4921.25
-4921.06
-4921.01
-4921.03
-4860.99
-4861.33
-4862.05
-4863.18
-4864.78
-4866.78
-4869.15
-4871.87
-4874.87
-4878.13
-4881.57
-4885.14
-4888.78
-4892.44
-4896.05
-4899.56
-4902.94
-4906.14
-4909.12
-4911.87
-4914.35
-4916.56
-4918.49
-4920.13
-4921.49
-4922.58
-4923.4
-4923.99
-4924.34
-4924.49
-4924.47
-4924.28
-4923.97
-4923.54
-4923.04
-4922.47
-4921.87
-4921.27
-4920.68
-4920.14
-4919.71
-4919.36
-4919.26
-4919.25
-4862.75
-4862.88
-4863.44
-4864.31
-4865.73
-4867.57
-4869.82
-4872.44
-4875.38
-4878.59
-4881.99
-4885.55
-4889.17
-4892.82
-4896.42
-4899.93
-4903.3
-4906.49
-4909.47
-4912.2
-4914.66
-4916.84
-4918.74
-4920.34
-4921.66
-4922.7
-4923.47
-4924
-4924.29
-4924.38
-4924.27
-4924.01
-4923.6
-4923.08
-4922.46
-4921.77
-4921.03
-4920.26
-4919.49
-4918.73
-4918.07
-4917.45
-4917.21
-4917.04
-4865.14
-4864.74
-4865.01
-4865.48
-4866.66
-4868.3
-4870.42
-4872.94
-4875.81
-4878.97
-4882.34
-4885.88
-4889.5
-4893.13
-4896.74
-4900.24
-4903.61
-4906.79
-4909.76
-4912.48
-4914.92
-4917.09
-4918.96
-4920.53
-4921.82
-4922.82
-4923.55
-4924.02
-4924.26
-4924.29
-4924.12
-4923.79
-4923.31
-4922.7
-4921.98
-4921.18
-4920.31
-4919.38
-4918.41
-4917.4
-4916.45
-4915.41
-4914.91
-4914.24
-4868.3
-4866.82
-4866.64
-4866.6
-4867.49
-4868.93
-4870.92
-4873.34
-4876.14
-4879.26
-4882.61
-4886.13
-4889.74
-4893.38
-4896.98
-4900.49
-4903.86
-4907.04
-4910
-4912.71
-4915.14
-4917.29
-4919.14
-4920.69
-4921.95
-4922.92
-4923.62
-4924.06
-4924.26
-4924.24
-4924.02
-4923.63
-4923.08
-4922.4
-4921.61
-4920.71
-4919.72
-4918.64
-4917.49
-4916.23
-4914.96
-4913.39
-4912.47
-4910.72
-4872.31
-4868.95
-4868.18
-4867.56
-4868.18
-4869.42
-4871.29
-4873.63
-4876.39
-4879.47
-4882.8
-4886.31
-4889.92
-4893.56
-4897.16
-4900.67
-4904.04
-4907.22
-4910.18
-4912.88
-4915.31
-4917.45
-4919.29
-4920.82
-4922.06
-4923.01
-4923.68
-4924.09
-4924.26
-4924.21
-4923.95
-4923.52
-4922.93
-4922.19
-4921.33
-4920.36
-4919.28
-4918.08
-4916.78
-4915.28
-4913.71
-4911.54
-4910.07
-4906.42
-4877.11
-4870.9
-4869.46
-4868.29
-4868.67
-4869.76
-4871.54
-4873.83
-4876.54
-4879.6
-4882.92
-4886.43
-4890.04
-4893.68
-4897.28
-4900.8
-4904.17
-4907.35
-4910.31
-4913.01
-4915.43
-4917.56
-4919.39
-4920.92
-4922.14
-4923.08
-4923.73
-4924.12
-4924.27
-4924.19
-4923.91
-4923.45
-4922.82
-4922.05
-4921.15
-4920.13
-4918.98
-4917.7
-4916.28
-4914.6
-4912.77
-4910.04
-4907.93
-4901.4
-4882.33
-4872.44
-4870.37
-4868.77
-4868.98
-4869.97
-4871.69
-4873.94
-4876.63
-4879.68
-4882.99
-4886.5
-4890.11
-4893.75
-4897.36
-4900.87
-4904.24
-4907.43
-4910.38
-4913.08
-4915.51
-4917.63
-4919.46
-4920.98
-4922.2
-4923.12
-4923.76
-4924.14
-4924.28
-4924.19
-4923.89
-4923.41
-4922.77
-4921.97
-4921.05
-4919.99
-4918.8
-4917.46
-4915.97
-4914.17
-4912.16
-4909
-4906.26
-4896.03
-4887.27
-4873.42
-4870.86
-4869.02
-4869.14
-4870.07
-4871.76
-4873.99
-4876.67
-4879.71
-4883.03
-4886.53
-4890.14
-4893.78
-4897.39
-4900.9
-4904.28
-4907.46
-4910.42
-4913.12
-4915.54
-4917.67
-4919.49
-4921.01
-4922.22
-4923.14
-4923.78
-4924.15
-4924.28
-4924.18
-4923.88
-4923.39
-4922.74
-4921.94
-4921
-4919.92
-4918.72
-4917.35
-4915.82
-4913.96
-4911.86
-4908.45
-4905.23
-4891.03
-4891.22
-4873.85
-4871.02
-4869.1
-4869.19
-4870.11
-4871.79
-4874.01
-4876.69
-4879.72
-4883.04
-4886.54
-4890.15
-4893.79
-4897.4
-4900.91
-4904.29
-4907.47
-4910.43
-4913.13
-4915.55
-4917.68
-4919.5
-4921.01
-4922.23
-4923.15
-4923.78
-4924.16
-4924.28
-4924.18
-4923.88
-4923.39
-4922.73
-4921.93
-4920.98
-4919.9
-4918.69
-4917.32
-4915.77
-4913.89
-4911.75
-4908.27
-4904.78
-4887.06
)
;

boundaryField
{
    movingWall
    {
        type            zeroGradient;
    }
    fixedWalls
    {
        type            zeroGradient;
    }
    frontAndBack
    {
        type            empty;
    }
    defaultFaces
    {
        type            empty;
    }
}


// ************************************************************************* //
