/*--------------------------------*- C++ -*----------------------------------*\
  =========                 |
  \\      /  F ield         | OpenFOAM: The Open Source CFD Toolbox
   \\    /   O peration     | Website:  https://openfoam.org
    \\  /    A nd           | Version:  7
     \\/     M anipulation  |
\*---------------------------------------------------------------------------*/
FoamFile
{
    version     2.0;
    format      ascii;
    class       surfaceScalarField;
    location    "0.27";
    object      phi;
}
// * * * * * * * * * * * * * * * * * * * * * * * * * * * * * * * * * * * * * //

dimensions      [0 3 -1 0 0 0 0];

internalField   nonuniform List<scalar> 
3784
(
-0.00221078
0.00221079
-0.0026078
0.000397016
-0.00143086
-0.00117694
-0.000225609
-0.00120525
0.000180584
-0.000406193
0.000465943
-0.000285359
0.000755413
-0.00028947
0.000796362
-4.09483e-05
0.00040682
0.000389542
-0.000243504
0.000650324
-0.000684663
0.00044116
-0.000356326
-0.000328336
0.000810003
-0.00116633
0.00193116
-0.00112115
0.00191132
1.98359e-05
0.000626111
0.00128521
-0.000735678
0.00136179
-0.00113498
0.000399305
-0.000415724
-0.000719259
0.000880801
-0.00129653
0.00121459
-0.000333786
-1.59041e-05
0.00123049
-0.00143667
0.00142077
-0.00142757
-9.0994e-06
3.41649e-05
-0.00146174
0.00142778
-0.00139361
0.00168264
-0.00025486
0.000621678
0.00106096
-0.000862905
0.00148458
-0.0013109
0.000447995
-0.000248807
-0.00106209
0.00113642
-0.00138523
0.00155794
-0.000421522
0.0006145
0.000943442
-0.000817278
0.00143178
-0.0016348
0.000817526
-0.00146068
-0.00017412
-0.000229995
-0.00123069
0.00107129
-0.00130128
0.000841602
0.000229683
-0.000578925
0.00142053
-0.00165587
0.00107695
-0.00139534
-0.00026053
-0.00139534
-0.00306509
0.00527587
-0.00374422
0.00107614
-0.00158524
-0.00333591
-0.000260377
-0.00253011
-5.16286e-05
-0.000614944
0.000414256
-0.000751243
0.0007762
-0.000651412
0.000800737
-6.54848e-05
0.000432514
0.000757764
-0.000112739
0.00119558
-0.000705983
0.0010344
-0.000645778
-0.000388542
0.000902512
-0.00271462
0.00230925
-0.0025279
0.00186697
0.000462118
0.000632825
0.00251935
-0.000596948
0.00259156
-0.00155277
0.00135512
-0.000653407
-0.00161862
0.00123845
-0.00318838
0.00123733
-0.00033266
-3.23473e-05
0.00250017
-0.00126291
0.00265133
-0.00174887
0.000476864
-1.1691e-05
-0.00319892
0.00194322
-0.00334853
0.00170259
-1.4229e-05
0.000563763
0.00219979
-0.000680819
0.00272916
-0.00159684
0.00136401
-0.000449132
-0.0022098
0.00159518
-0.00342954
0.001693
-0.000519342
0.000491958
0.00214448
-0.000672832
0.00259657
-0.00182845
0.00197314
-0.0019881
-1.44717e-05
-0.000198691
-0.00302009
0.00133286
-0.00283283
0.000740484
0.000822056
-0.000481362
0.00264237
-0.00152934
0.00212492
-0.00184346
5.35953e-05
-0.00323881
-0.00309624
0.00837212
-0.00390427
0.00188417
-0.00177489
-0.00546529
-0.00019231
-0.0041127
8.0352e-05
-0.000887601
0.000467156
-0.00113805
0.000816848
-0.00100111
0.000800074
-4.87103e-05
0.00031343
0.00124441
-0.000376165
0.00188517
-0.00102086
0.0016791
-0.000787843
-0.000621562
0.00106326
-0.00456573
0.00260467
-0.0040693
0.00197238
0.00109441
0.000369298
0.00412243
-0.00109542
0.00405628
-0.00188516
0.00214486
-0.000532818
-0.00297096
0.00166349
-0.00538469
0.00171271
-0.000381879
0.000300735
0.00391214
-0.00124192
0.00419398
-0.00198866
0.0012236
-0.000180304
-0.00500727
0.00212005
-0.00564888
0.00201316
9.2661e-05
0.000594939
0.00361801
-0.000977496
0.0043016
-0.00198624
0.00237276
-0.000657718
-0.00353832
0.00176744
-0.0058547
0.00210062
-0.000852526
0.000726698
0.00351841
-0.000853771
0.00417704
-0.00217974
0.00329911
-0.00198296
-0.000211253
0.000244417
-0.00524747
0.0018421
-0.00443051
0.00115691
0.00150724
-0.000284995
0.00408428
-0.00167067
0.0035106
-0.00206865
0.000451568
-0.00530745
-0.0025445
0.0109166
-0.00334666
0.00268633
-0.00190851
-0.00690345
-0.000613505
-0.0054077
-0.000152526
-0.00134858
0.000224425
-0.001515
0.000461087
-0.00123777
0.000388359
2.40187e-05
1.8914e-05
0.00161386
-0.000419234
0.00232332
-0.000748503
0.00200837
-0.000454101
-0.000915963
0.00090528
-0.00592511
0.00191029
-0.00507431
0.00127781
0.00172689
7.14929e-05
0.00532875
-0.0009123
0.00504007
-0.00133512
0.00256769
-0.000234759
-0.00407132
0.00130303
-0.00692248
0.00134934
-0.000428191
0.000496543
0.00476494
-0.000515017
0.00520554
-0.00122303
0.00193161
-0.000177192
-0.00605311
0.00143921
-0.00726529
0.00139821
0.000133663
0.000371043
0.00464518
-0.000685365
0.00535801
-0.00138815
0.00307555
-0.000519202
-0.00440727
0.00121329
-0.00758719
0.00154019
-0.00117942
0.000587968
0.00447063
-0.000604415
0.00536942
-0.00159791
0.00429261
-0.00126271
-0.000546453
0.000432816
-0.00694299
0.0014059
-0.0054036
0.000945159
0.00196798
4.49895e-05
0.00498445
-0.000984675
0.00454027
-0.00136636
0.000833254
-0.00667381
-0.00185248
0.0127691
-0.00269643
0.00353028
-0.00195203
-0.00764785
-0.00104721
-0.00631252
-0.000451539
-0.00194425
-0.000128546
-0.00183799
-1.15656e-05
-0.00135475
-0.000118554
0.000131007
-0.000327171
0.00182247
-0.000502046
0.00249819
-0.000503516
0.00200984
-0.000138974
-0.0012805
0.000663924
-0.00672801
0.00111329
-0.00552368
0.000564755
0.00227543
-0.000134714
0.00602821
-0.000607016
0.00551237
-0.000730333
0.002691
9.47981e-05
-0.00489645
0.000903194
-0.00773087
0.000868752
-0.00039375
0.000545423
0.00508827
8.83191e-05
0.00566265
-0.00048276
0.00250269
-0.000178023
-0.00635785
0.000699987
-0.0081433
0.000686617
0.000147034
0.000142337
0.00518946
-0.00037668
0.00587702
-0.00078273
0.0034816
-0.000369686
-0.00482032
0.000607428
-0.00856431
0.000849726
-0.00142172
0.000384883
0.00493547
-0.000336673
0.00609098
-0.000860571
0.00481651
-0.00039712
-0.0010099
0.00060625
-0.00794636
0.000892023
-0.00568937
0.000585742
0.00227426
0.000195049
0.00537514
-0.000368778
0.0051041
-0.00066257
0.00112705
-0.00733638
-0.00104631
0.0138154
-0.00189665
0.00438062
-0.00185501
-0.00768949
-0.00143371
-0.00673382
-0.000822858
-0.0025551
-0.000563862
-0.00209699
-0.000548511
-0.0013701
-0.000619825
0.000202323
-0.000630758
0.0018334
-0.000523191
0.00239063
-0.000230772
0.00171742
0.000114421
-0.0016257
0.000346794
-0.00696038
0.000259095
-0.00543598
-8.41431e-05
0.00261867
-0.000209002
0.00615307
-0.00021345
0.00551682
-6.33686e-05
0.00254092
0.000392855
-0.00535268
0.000450596
-0.00778862
0.000288147
-0.000231301
0.000387909
0.00498851
0.000463331
0.00558723
0.000174972
0.00279105
-0.000156991
-0.00602588
-5.20928e-05
-0.0082482
-1.51332e-05
0.000110074
-6.84553e-05
0.00524278
-5.49506e-05
0.00586352
-0.000123301
0.00354995
-0.000205172
-0.00473844
-1.23972e-05
-0.00875708
9.50295e-05
-0.00152915
7.50745e-05
0.00495543
-4.48655e-05
0.00621092
-2.50882e-05
0.00479673
0.000465101
-0.00150009
0.000666251
-0.00814751
0.000266274
-0.00528939
9.23158e-05
0.00244822
0.000159247
0.00530821
0.000122212
0.00514113
-1.54176e-05
0.00126468
-0.0073518
-0.000185699
0.0140011
-0.000939575
0.00513449
-0.00159892
-0.00703015
-0.00172492
-0.00660781
-0.00122834
-0.00305169
-0.00103719
-0.00228814
-0.00104666
-0.00136063
-0.00103492
0.00019058
-0.000823293
0.00162178
-0.000448425
0.00201576
-1.11666e-05
0.00128016
0.000316577
-0.00195344
-2.97034e-05
-0.0066141
-0.000596631
-0.00486905
-0.000616096
0.00263813
-0.00017976
0.00571673
0.00023759
0.00509947
0.000613141
0.00216537
0.000610026
-0.00534956
-3.05294e-05
-0.00714806
-0.000306223
4.43947e-05
0.000113986
0.0045683
0.000649647
0.00505156
0.000700829
0.00273987
-9.11141e-05
-0.00523394
-0.000705016
-0.0076343
-0.000623599
2.86573e-05
-0.000219689
0.00483887
0.000276892
0.00536694
0.0005041
0.00332274
1.45478e-05
-0.00424889
-0.000555959
-0.00818658
-0.000619552
-0.00146555
-0.00024034
0.00457622
0.000254196
0.00571638
0.000754153
0.00429677
0.00113893
-0.00188487
0.000576707
-0.00758529
-0.000399459
-0.00431323
-0.000436477
0.00248524
4.87102e-05
0.00482302
0.000480899
0.00470894
0.000572699
0.00117288
-0.0067791
0.000803706
0.0131974
0.000230303
0.00570789
-0.00113433
-0.00566552
-0.00180044
-0.0059417
-0.00154257
-0.00330957
-0.00143036
-0.00240034
-0.0014232
-0.00136778
-0.0012848
5.21746e-05
-0.000889666
0.00122665
-0.000360736
0.00148683
0.000203119
0.000716304
0.000410698
-0.00216102
-0.000428254
-0.00577515
-0.00133952
-0.00395779
-0.0010119
0.00231051
-0.000109645
0.00481448
0.000625408
0.00436442
0.00119364
0.00159715
0.00069814
-0.00485407
-0.000522711
-0.00592721
-0.000776113
0.000297797
-9.7374e-05
0.00388956
0.000749516
0.00420467
0.00111339
0.002376
5.91607e-05
-0.00417971
-0.00114261
-0.00643252
-0.00101485
-9.91037e-05
-0.000292116
0.00411613
0.000577854
0.00449697
0.00104948
0.00285112
0.000266862
-0.00346627
-0.000947354
-0.00697236
-0.0010836
-0.00132931
-0.000424457
0.00391707
0.000540075
0.00475185
0.00137564
0.00346121
0.0014932
-0.00200242
0.0003167
-0.0064088
-0.00090988
-0.00308665
-0.000791005
0.00236636
-2.168e-05
0.0040537
0.000742283
0.00394498
0.00102536
0.000889795
-0.00575374
0.0018391
0.0113583
0.00162456
0.00592243
-0.000337369
-0.00370359
-0.00149298
-0.00478608
-0.00158271
-0.00321984
-0.00160519
-0.00237786
-0.00158105
-0.00139192
-0.00132912
-0.000199751
-0.000802082
0.000699604
-0.000203466
0.000888212
0.000371032
0.000141807
0.000381164
-0.00217115
-0.000793237
-0.00460075
-0.00184028
-0.00291075
-0.0012558
0.00172603
-6.48422e-05
0.00362352
0.000912863
0.00338671
0.00157095
0.000939061
0.000634295
-0.00391742
-0.000918662
-0.00437425
-0.000993507
0.000372643
-0.00017486
0.00307091
0.000814083
0.00321573
0.00139584
0.00179424
0.00024267
-0.00302654
-0.00133628
-0.00485358
-0.00122392
-0.000211464
-0.000314927
0.00320714
0.000754022
0.00342802
0.0014198
0.00218534
0.000498873
-0.00254534
-0.00113873
-0.00533476
-0.00135199
-0.00111605
-0.000475071
0.00304016
0.000704369
0.00357241
0.00169151
0.00247407
0.00149941
-0.00181032
-7.83184e-05
-0.00483107
-0.00123268
-0.00193228
-0.000889484
0.00202317
3.16162e-05
0.0031326
0.000927036
0.00304956
0.0013244
0.000492429
-0.00442934
0.0025439
0.0088144
0.00296041
0.00550593
0.000813763
-0.00155694
-0.000712186
-0.00326013
-0.00120635
-0.00272567
-0.00143691
-0.0021473
-0.00145519
-0.00137364
-0.00117206
-0.00048288
-0.000637766
0.000165306
-4.77797e-05
0.000298225
0.000435254
-0.000341228
0.000222984
-0.00195888
-0.00104992
-0.00332785
-0.00199638
-0.0019643
-0.00130197
0.00103163
-6.7583e-05
0.00238914
0.00104781
0.00227132
0.00160402
0.000382851
0.000439873
-0.00275327
-0.00111545
-0.00281892
-0.00107204
0.000329226
-0.000185558
0.00218444
0.00077556
0.00225461
0.00143102
0.00113878
0.000360146
-0.00195566
-0.0013116
-0.00318183
-0.00128217
-0.000240899
-0.000284696
0.00220967
0.00076441
0.00237891
0.00150077
0.00144898
0.000621943
-0.00166652
-0.00114105
-0.00357177
-0.00141208
-0.000845022
-0.000421768
0.00204985
0.000735402
0.00241524
0.00167612
0.00153335
0.00124956
-0.00138377
-0.000412623
-0.00316888
-0.00130349
-0.00104142
-0.000799157
0.00151884
0.000114189
0.00221925
0.00107021
0.00209354
0.00140734
0.000155295
-0.003022
0.00257856
0.00623583
0.00359115
0.00449334
0.00194012
9.40833e-05
0.000379615
-0.00169962
-0.000454512
-0.00189154
-0.000914387
-0.00168742
-0.00104974
-0.00123829
-0.000843661
-0.000688957
-0.000402556
-0.000275797
9.05591e-05
-0.00019489
0.000396464
-0.000647138
1.63738e-05
-0.00157879
-0.0011303
-0.00218118
-0.00181899
-0.0012756
-0.00120508
0.000417724
-0.000107481
0.00129154
0.000930303
0.00123354
0.00128329
2.98696e-05
0.000182337
-0.00165232
-0.00108539
-0.0015512
-0.000999415
0.000243252
-0.000181594
0.00136662
0.000676421
0.0013966
0.00120543
0.000609772
0.000347131
-0.00109737
-0.00108395
-0.00175075
-0.00114507
-0.00017978
-0.000242158
0.00130676
0.000674295
0.00146245
0.00130694
0.000816327
0.000597805
-0.000957381
-0.000955532
-0.00201843
-0.00124866
-0.0005519
-0.000353344
0.00115454
0.00064777
0.00141412
0.00139163
0.000789489
0.000888293
-0.000880428
-0.000545326
-0.00173526
-0.00113432
-0.000452427
-0.000612603
0.000997122
0.000193282
0.00141337
0.00105473
0.0012321
0.00124738
-3.73572e-05
-0.00177462
0.00212028
0.00411556
0.00330999
0.00330363
0.00245243
0.000951641
0.00124773
-0.000494918
0.000367621
-0.00101144
-0.000207338
-0.00111246
-0.000460654
-0.000984975
-0.000397003
-0.00075261
-0.000107617
-0.000565186
0.000217532
-0.000520041
0.000320098
-0.000749704
-0.000109805
-0.00114888
-0.000974455
-0.00131653
-0.00140874
-0.000841316
-0.00097581
-1.5208e-05
-0.000163518
0.000479245
0.000606998
0.000463021
0.000768821
-0.000131952
-4.23953e-05
-0.000841104
-0.000886401
-0.000707195
-0.000796756
0.000153606
-0.000173485
0.000743347
0.000476844
0.000746277
0.000810682
0.000275934
0.000222586
-0.00050927
-0.000753824
-0.000774337
-0.000847715
-8.58899e-05
-0.000190918
0.00064996
0.000503401
0.000768135
0.00093601
0.000383718
0.000441525
-0.000462896
-0.000651477
-0.000925426
-0.000901832
-0.000301547
-0.000259889
0.000512594
0.000478208
0.000676029
0.000953604
0.000314092
0.000524365
-0.000451189
-0.000468028
-0.000742873
-0.000811797
-0.000108659
-0.00039979
0.000585116
0.000226099
0.000787484
0.000856884
0.000601314
0.000910741
-9.12154e-05
-0.000863884
0.00133867
0.00277689
0.0023862
0.0022561
0.00221631
0.00112154
0.00154859
0.000172799
0.000879769
-0.000342612
0.000382225
-0.00061492
0.000110741
-0.000713494
6.97024e-05
-0.000711571
0.000175571
-0.000671057
0.000306186
-0.000650659
0.000259628
-0.000703147
-0.000103807
-0.000785445
-0.000647308
-0.000773023
-0.000917909
-0.000570716
-0.00069467
-0.000238447
-0.000201303
-1.41181e-05
0.00024391
1.78086e-05
0.000291378
-0.000179423
-0.000176566
-0.000373163
-0.000623184
-0.000260576
-0.000559826
9.02505e-05
-0.000163053
0.000346576
0.000246624
0.000336601
0.000412
0.000110557
7.82374e-05
-0.000175507
-0.000442343
-0.000253755
-0.000517797
-1.04366e-05
-0.000135895
0.000268055
0.000306289
0.000325949
0.000538935
0.000151071
0.000247637
-0.000171599
-0.000349268
-0.000328521
-0.000517948
-0.000132868
-0.000164009
0.000158655
0.00028165
0.000230371
0.000514146
8.15945e-05
0.000232023
-0.000169068
-0.000302763
-0.000208087
-0.00047141
5.9988e-05
-0.000206405
0.000320114
0.000208659
0.00037242
0.0005717
0.000238273
0.000541053
-6.05683e-05
-0.000322832
0.000808329
0.00196856
0.00143299
0.00163144
0.0015705
0.000984023
0.00130195
0.000441347
0.000958437
9.02046e-07
0.000647958
-0.000304441
0.000445841
-0.000511381
0.000354795
-0.000620531
0.000334685
-0.000650946
0.000314874
-0.000630846
0.000201798
-0.000590071
-4.0484e-05
-0.000543162
-0.000326728
-0.000486776
-0.000486991
-0.000410452
-0.000416542
-0.000308895
-0.000206307
-0.000224351
-8.52313e-06
-0.000179976
-6.60749e-06
-0.000181342
-0.000213141
-0.00016663
-0.00039776
-7.59561e-05
-0.000355931
4.8423e-05
-0.000144971
0.000135616
6.75296e-05
0.0001241
0.00013372
4.4368e-05
-1.57365e-05
-2.60469e-05
-0.000232217
-3.72741e-05
-0.000264527
2.18699e-05
-8.81777e-05
9.17021e-05
0.000137849
9.99216e-05
0.00023657
5.23508e-05
0.000102415
-3.74433e-05
-0.000146992
-7.91133e-05
-0.000236208
-4.36517e-05
-9.37364e-05
1.61829e-05
0.000109478
2.71569e-05
0.000188957
2.1145e-06
4.5454e-05
-2.55653e-05
-0.000174257
1.16251e-05
-0.000219374
0.000105105
-6.95974e-05
0.000170339
0.000154493
0.00014833
0.000312765
7.99974e-05
0.000259356
-7.15989e-06
-6.34747e-05
0.000541851
0.00142671
0.000894421
0.00127887
0.00101662
0.000861827
0.000968613
0.000489353
0.000810941
0.00015857
0.000646918
-0.000140417
0.000505009
-0.000369471
0.000394405
-0.00050993
0.000306733
-0.000563275
0.000221106
-0.000545215
0.000115894
-0.000484857
-1.03e-05
-0.000416971
-0.000134606
-0.000362471
-0.000214663
-0.000330392
-0.000217904
-0.000305653
-0.000168203
-0.000274053
-0.000121155
-0.000227024
-0.00013494
-0.000167557
-0.000200619
-0.00010095
-0.000245201
-3.1375e-05
-0.000213476
1.66967e-05
-0.000117727
3.98663e-05
-2.93977e-05
3.57743e-05
-6.85361e-06
2.18271e-05
-5.29197e-05
2.00191e-05
-0.000113173
2.29769e-05
-0.000117814
2.65068e-05
-5.23577e-05
2.62436e-05
2.62973e-05
2.12684e-05
6.25509e-05
1.61006e-05
2.04473e-05
4.66073e-06
-5.60686e-05
-2.59832e-06
-8.88972e-05
-1.08235e-05
-5.54457e-05
-1.72679e-05
-6.318e-06
-2.19689e-05
4.5428e-06
-8.74641e-06
-4.39599e-05
2.29368e-05
-9.49733e-05
6.26393e-05
-8.13934e-05
9.15251e-05
3.31775e-07
8.86127e-05
8.94295e-05
5.92339e-05
0.000134568
3.48593e-05
9.76012e-05
2.98043e-05
3.41267e-05
0.000408077
0.00101863
0.000684996
0.00100195
0.000793444
0.00075338
0.000793624
0.000489174
0.000726761
0.000225431
0.000596858
-1.05155e-05
0.000460761
-0.000233373
0.000326125
-0.000375291
0.000203384
-0.000440535
0.0001001
-0.000441931
2.07801e-05
-0.000405537
-4.02659e-05
-0.000355925
-8.38168e-05
-0.000318919
-0.000115669
-0.000298536
-0.000136369
-0.000284951
-0.00014887
-0.000261553
-0.00015835
-0.000217545
-0.000169754
-0.000156153
-0.000178663
-9.20423e-05
-0.000168486
-4.15545e-05
-0.000138638
-1.31506e-05
-9.67164e-05
-2.05336e-06
-6.42827e-05
3.34463e-06
-5.41964e-05
1.17419e-05
-5.6258e-05
2.20766e-05
-5.99504e-05
2.6665e-05
-5.42402e-05
2.07961e-05
-3.75904e-05
9.59538e-06
-1.91323e-05
2.81246e-06
-8.31413e-06
5.28456e-06
-1.46367e-05
1.09836e-05
-2.79468e-05
1.07113e-05
-3.89845e-05
2.15397e-07
-4.36256e-05
-1.26247e-05
-5.02643e-05
-1.53276e-05
-5.95078e-05
4.9751e-07
-6.46411e-05
2.80676e-05
-5.59063e-05
5.39034e-05
-2.73385e-05
6.29597e-05
1.00637e-05
5.12118e-05
3.35792e-05
3.57181e-05
3.59828e-05
3.24563e-05
2.02853e-05
4.55006e-05
5.44107e-05
0.000307273
0.000711358
0.000562665
0.000746558
0.000698931
0.000617111
0.000737561
0.000450546
0.000699579
0.000263416
0.000613233
7.58296e-05
0.000469522
-8.96623e-05
0.000317632
-0.000223398
0.00017658
-0.000299482
6.30607e-05
-0.000328413
-1.80465e-05
-0.000324431
-6.57461e-05
-0.000308224
-9.41373e-05
-0.000290526
-0.000116745
-0.000275927
-0.000140955
-0.000260741
-0.000165659
-0.00023685
-0.000183594
-0.00019961
-0.000187423
-0.000152324
-0.000174951
-0.000104517
-0.000150327
-6.61787e-05
-0.000122562
-4.09134e-05
-9.94145e-05
-2.51974e-05
-8.31274e-05
-1.29424e-05
-7.07032e-05
-6.84758e-07
-5.78236e-05
9.19354e-06
-4.49292e-05
1.37684e-05
-3.58632e-05
1.17314e-05
-3.18182e-05
5.55324e-06
-3.09587e-05
1.95414e-06
-2.94802e-05
3.80652e-06
-2.60919e-05
7.59602e-06
-2.38804e-05
8.50175e-06
-2.73799e-05
3.7178e-06
-3.80348e-05
-1.96826e-06
-5.1804e-05
-1.55885e-06
-5.98289e-05
8.52247e-06
-5.49761e-05
2.32146e-05
-3.7268e-05
3.61941e-05
-1.48003e-05
4.04931e-05
-1.58702e-07
3.65727e-05
2.75795e-06
3.28001e-05
-1.93624e-06
3.71484e-05
-3.85035e-06
4.7415e-05
5.05605e-05
0.00022112
0.000490239
0.000434756
0.000532923
0.000584077
0.000467788
0.000661359
0.000373264
0.000668512
0.000256265
0.000615147
0.000129196
0.000517516
7.96919e-06
0.000386632
-9.25139e-05
0.000253485
-0.000166335
0.000136085
-0.000211013
4.52895e-05
-0.000233636
-2.13446e-05
-0.000241589
-6.99738e-05
-0.000241895
-0.000108929
-0.000236972
-0.000143562
-0.00022611
-0.00017287
-0.000207544
-0.000191563
-0.000180918
-0.000195012
-0.000148876
-0.000183434
-0.000116096
-0.000162424
-8.71877e-05
-0.000139438
-6.38961e-05
-0.000119221
-4.54137e-05
-0.000102103
-3.00642e-05
-8.56267e-05
-1.71642e-05
-6.89949e-05
-7.43938e-06
-5.35469e-05
-1.67985e-06
-4.22071e-05
3.91954e-07
-3.68649e-05
2.12082e-07
-3.52406e-05
3.30748e-07
-3.33447e-05
1.91193e-06
-2.97343e-05
3.98731e-06
-2.62568e-05
5.02575e-06
-2.70215e-05
4.48376e-06
-3.31155e-05
4.12673e-06
-4.07144e-05
6.03863e-06
-4.37076e-05
1.15148e-05
-3.90532e-05
1.85625e-05
-2.7731e-05
2.48735e-05
-1.58786e-05
2.86379e-05
-9.53485e-06
3.02273e-05
-9.34629e-06
3.26108e-05
-9.82195e-06
3.76222e-05
-6.84219e-06
4.44349e-05
4.37193e-05
0.00015578
0.000334458
0.000318751
0.000369952
0.000450961
0.000335579
0.000540989
0.000283237
0.000581824
0.000215431
0.00057296
0.00013806
0.000522364
5.85668e-05
0.000440058
-1.02064e-05
0.000344137
-7.04139e-05
0.000247432
-0.000114308
0.000158885
-0.000145088
8.24969e-05
-0.0001652
1.72894e-05
-0.000176687
-3.87358e-05
-0.000180947
-8.65335e-05
-0.000178313
-0.00012505
-0.000169026
-0.000151901
-0.000154068
-0.000165535
-0.000135243
-0.000166785
-0.000114845
-0.00015915
-9.48197e-05
-0.000146702
-7.63445e-05
-0.00013235
-5.97681e-05
-0.000117237
-4.51804e-05
-0.000101484
-3.29186e-05
-8.57052e-05
-2.32193e-05
-7.12804e-05
-1.61054e-05
-5.95257e-05
-1.13624e-05
-5.14117e-05
-7.90114e-06
-4.60183e-05
-5.062e-06
-4.16932e-05
-2.41164e-06
-3.75877e-05
-1.16224e-07
-3.43522e-05
1.79057e-06
-3.33443e-05
3.47432e-06
-3.44824e-05
5.26516e-06
-3.63066e-05
7.86459e-06
-3.61429e-05
1.1351e-05
-3.28953e-05
1.53146e-05
-2.72474e-05
1.92276e-05
-2.14979e-05
2.28866e-05
-1.77336e-05
2.64583e-05
-1.54807e-05
3.03563e-05
-1.26541e-05
3.47962e-05
-7.24937e-06
3.90306e-05
3.647e-05
0.000110215
0.000224243
0.000229711
0.000250455
0.000333679
0.000231612
0.000414293
0.000202624
0.000465176
0.000164547
0.0004832
0.000120036
0.000469113
7.26548e-05
0.0004343
2.46068e-05
0.00037856
-1.46744e-05
0.000313901
-4.96504e-05
0.000246382
-7.75701e-05
0.000180074
-9.88941e-05
0.000117398
-0.000114012
5.96777e-05
-0.000123228
8.20602e-06
-0.000126841
-3.5469e-05
-0.000125351
-6.99752e-05
-0.000119563
-9.46505e-05
-0.000110568
-0.000109965
-9.95275e-05
-0.000117366
-8.74172e-05
-0.00011869
-7.50235e-05
-0.000115502
-6.2961e-05
-0.000108964
-5.172e-05
-0.000100247
-4.16353e-05
-9.04658e-05
-3.30034e-05
-8.07004e-05
-2.58727e-05
-7.2033e-05
-2.00286e-05
-6.4815e-05
-1.51176e-05
-5.89541e-05
-1.09226e-05
-5.4074e-05
-7.29211e-06
-5.00535e-05
-4.13681e-06
-4.69233e-05
-1.33879e-06
-4.47222e-05
1.27272e-06
-4.33479e-05
3.88947e-06
-4.20489e-05
6.56779e-06
-4.01516e-05
9.45622e-06
-3.73206e-05
1.24814e-05
-3.36934e-05
1.55991e-05
-2.96522e-05
1.88463e-05
-2.54418e-05
2.2247e-05
-2.08079e-05
2.57211e-05
-1.50272e-05
2.90158e-05
-7.66519e-06
3.16694e-05
2.88048e-05
7.83909e-05
0.000145853
0.000164942
0.000163904
0.000242991
0.000153564
0.000307927
0.000137689
0.000355726
0.000116748
0.000383832
9.19301e-05
0.000391781
6.47054e-05
0.000379839
3.65491e-05
0.000355596
9.56916e-06
0.000320056
-1.41115e-05
0.0002775
-3.50135e-05
0.000231022
-5.24162e-05
0.000183119
-6.61085e-05
0.0001359
-7.60085e-05
9.12378e-05
-8.21778e-05
5.07391e-05
-8.48519e-05
1.56263e-05
-8.44503e-05
-1.34074e-05
-8.15337e-05
-3.62527e-05
-7.66804e-05
-5.31846e-05
-7.04857e-05
-6.48176e-05
-6.33938e-05
-7.19066e-05
-5.58745e-05
-7.52909e-05
-4.83358e-05
-7.58084e-05
-4.11186e-05
-7.43471e-05
-3.44662e-05
-7.17491e-05
-2.84702e-05
-6.86863e-05
-2.30899e-05
-6.55106e-05
-1.8293e-05
-6.24506e-05
-1.39814e-05
-5.97732e-05
-9.96878e-06
-5.71479e-05
-6.76418e-06
-5.47826e-05
-3.70375e-06
-5.2813e-05
-6.93802e-07
-5.07295e-05
1.80555e-06
-4.84796e-05
4.31736e-06
-4.58885e-05
6.86799e-06
-4.28129e-05
9.40625e-06
-3.91621e-05
1.19462e-05
-3.48252e-05
1.45096e-05
-2.96498e-05
1.70732e-05
-2.34599e-05
1.95322e-05
-1.61446e-05
2.17007e-05
-7.80877e-06
2.33334e-05
2.09958e-05
5.57803e-05
9.00731e-05
0.000118093
0.00010159
0.000175637
9.60185e-05
0.000225788
8.75372e-05
0.000266171
7.63616e-05
0.000295098
6.30006e-05
0.000311698
4.8104e-05
0.000315885
3.23612e-05
0.000309474
1.59789e-05
0.000293943
1.41841e-06
0.000271284
-1.23562e-05
0.000243268
-2.44014e-05
0.00021171
-3.45515e-05
0.00017831
-4.26089e-05
0.000144633
-4.85005e-05
0.000112049
-5.22692e-05
8.16667e-05
-5.40688e-05
5.42636e-05
-5.41305e-05
3.03158e-05
-5.27337e-05
9.96369e-06
-5.01366e-05
-6.75496e-06
-4.66774e-05
-2.00353e-05
-4.25942e-05
-3.02081e-05
-3.81636e-05
-3.77221e-05
-3.36071e-05
-4.30981e-05
-2.90905e-05
-4.68101e-05
-2.47549e-05
-4.92263e-05
-2.06727e-05
-5.06794e-05
-1.68421e-05
-5.13722e-05
-1.32875e-05
-5.13502e-05
-9.98798e-06
-5.12066e-05
-6.90959e-06
-5.05798e-05
-4.3322e-06
-4.94926e-05
-1.7777e-06
-4.8118e-05
4.32666e-07
-4.63341e-05
2.53199e-06
-4.40224e-05
4.55709e-06
-4.11149e-05
6.50075e-06
-3.75354e-05
8.36666e-06
-3.31804e-05
1.01539e-05
-2.79464e-05
1.18396e-05
-2.17819e-05
1.33683e-05
-1.47376e-05
1.46568e-05
-6.99937e-06
1.55953e-05
1.39966e-05
3.61837e-05
5.38896e-05
7.69255e-05
6.08475e-05
0.000115191
5.77546e-05
0.00014963
5.31002e-05
0.000178994
4.69964e-05
0.000202318
3.96759e-05
0.000218988
3.14352e-05
0.000228752
2.25983e-05
0.000231272
1.34597e-05
0.000228207
4.48432e-06
0.000219687
-3.83624e-06
0.000206707
-1.14214e-05
0.000190237
-1.80816e-05
0.000171268
-2.36385e-05
0.000150768
-2.80009e-05
0.000129642
-3.11434e-05
0.000108676
-3.31014e-05
8.85055e-05
-3.39598e-05
6.9611e-05
-3.38404e-05
5.2366e-05
-3.28938e-05
3.69488e-05
-3.12601e-05
2.34635e-05
-2.91068e-05
1.18775e-05
-2.65771e-05
2.0835e-06
-2.38145e-05
-6.05332e-06
-2.09523e-05
-1.27404e-05
-1.80634e-05
-1.81692e-05
-1.52421e-05
-2.24847e-05
-1.25284e-05
-2.58191e-05
-9.95221e-06
-2.82827e-05
-7.52119e-06
-2.9966e-05
-5.22647e-06
-3.11579e-05
-3.14202e-06
-3.15588e-05
-1.37524e-06
-3.14898e-05
3.6584e-07
-3.08772e-05
1.91924e-06
-2.9698e-05
3.37784e-06
-2.79335e-05
4.73761e-06
-2.55652e-05
5.99948e-06
-2.25718e-05
7.16064e-06
-1.89416e-05
8.20906e-06
-1.46945e-05
9.12105e-06
-9.90112e-06
9.86338e-06
-4.6961e-06
1.03903e-05
9.30034e-06
2.25895e-05
3.12983e-05
4.81536e-05
3.52812e-05
7.24234e-05
3.34854e-05
9.47049e-05
3.08183e-05
0.000114357
2.73413e-05
0.000130861
2.31709e-05
0.000143837
1.84594e-05
0.000153049
1.33857e-05
0.000158393
8.11512e-06
0.000160039
2.83731e-06
0.000158325
-2.12285e-06
0.000153634
-6.73199e-06
0.000146392
-1.08408e-05
0.000137088
-1.43345e-05
0.00012623
-1.71438e-05
0.000114322
-1.92367e-05
0.000101837
-2.06156e-05
8.91902e-05
-2.13137e-05
7.67365e-05
-2.13883e-05
6.47557e-05
-2.09147e-05
5.34738e-05
-1.99778e-05
4.30387e-05
-1.86695e-05
3.35448e-05
-1.70822e-05
2.5033e-05
-1.53033e-05
1.74898e-05
-1.34078e-05
1.09045e-05
-1.14746e-05
5.21223e-06
-9.54811e-06
3.56362e-07
-7.67349e-06
-3.71154e-06
-5.88406e-06
-7.07978e-06
-4.15089e-06
-9.70265e-06
-2.60332e-06
-1.16402e-05
-1.20581e-06
-1.31293e-05
1.13912e-07
-1.40459e-05
1.28369e-06
-1.44864e-05
2.35998e-06
-1.44517e-05
3.34281e-06
-1.39516e-05
4.23769e-06
-1.29999e-05
5.04834e-06
-1.16142e-05
5.77509e-06
-9.81925e-06
6.41372e-06
-7.65402e-06
6.95507e-06
-5.17755e-06
7.386e-06
-2.47464e-06
7.68631e-06
6.82448e-06
1.54587e-05
1.58395e-05
3.3012e-05
1.77294e-05
4.9785e-05
1.67157e-05
6.53677e-05
1.52367e-05
7.93856e-05
1.33238e-05
9.15216e-05
1.10367e-05
0.000101528
8.45373e-06
0.000109255
5.65956e-06
0.000114618
2.75131e-06
0.000117584
-1.28246e-07
0.000118364
-2.90198e-06
0.000117085
-5.4533e-06
0.000113954
-7.70913e-06
0.000109226
-9.60704e-06
0.000103187
-1.11042e-05
9.61297e-05
-1.21788e-05
8.83447e-05
-1.28297e-05
8.01057e-05
-1.30741e-05
7.16589e-05
-1.29418e-05
6.32203e-05
-1.24766e-05
5.49733e-05
-1.17296e-05
4.70624e-05
-1.07563e-05
3.95955e-05
-9.61382e-06
3.26518e-05
-8.35932e-06
2.62892e-05
-7.04389e-06
2.05268e-05
-5.70956e-06
1.53696e-05
-4.38927e-06
1.08178e-05
-3.12186e-06
6.86605e-06
-1.93199e-06
3.53439e-06
-8.17683e-07
7.48808e-07
1.82962e-07
-1.57848e-06
1.12081e-06
-3.40958e-06
1.94469e-06
-4.80029e-06
2.67482e-06
-5.76715e-06
3.32693e-06
-6.33053e-06
3.90567e-06
-6.5122e-06
4.41878e-06
-6.33687e-06
4.87259e-06
-5.83306e-06
5.27073e-06
-5.03431e-06
5.61402e-06
-3.98109e-06
5.90043e-06
-2.72267e-06
6.12574e-06
-1.32136e-06
6.28284e-06
5.50143e-06
1.08043e-05
5.03476e-06
2.30563e-05
5.47777e-06
3.48243e-05
4.94858e-06
4.58461e-05
4.21393e-06
5.58801e-05
3.28959e-06
6.46926e-05
2.22518e-06
7.20773e-05
1.06864e-06
7.79219e-05
-1.86344e-07
8.23117e-05
-1.63893e-06
8.5154e-05
-2.97047e-06
8.64486e-05
-4.19662e-06
8.62675e-05
-5.27246e-06
8.47243e-05
-6.16623e-06
8.19666e-05
-6.84954e-06
7.81656e-05
-7.30325e-06
7.35064e-05
-7.51949e-06
6.81803e-05
-7.50304e-06
6.23797e-05
-7.27318e-06
5.62806e-05
-6.84305e-06
5.0062e-05
-6.25847e-06
4.38647e-05
-5.53171e-06
3.78052e-05
-4.69537e-06
3.19801e-05
-3.78794e-06
2.646e-05
-2.83924e-06
2.13662e-05
-1.94945e-06
1.66963e-05
-1.03793e-06
1.24586e-05
-1.50304e-07
8.69194e-06
6.45114e-07
5.40523e-06
1.35524e-06
2.56152e-06
2.02747e-06
1.50889e-07
2.59474e-06
-1.80962e-06
3.08145e-06
-3.35192e-06
3.4869e-06
-4.49864e-06
3.82173e-06
-5.26667e-06
4.095e-06
-5.67935e-06
4.31782e-06
-5.76169e-06
4.50014e-06
-5.54043e-06
4.65011e-06
-5.04537e-06
4.77421e-06
-4.31079e-06
4.87764e-06
-3.37545e-06
4.9629e-06
-2.28269e-06
5.03053e-06
-1.08274e-06
5.08037e-06
4.41766e-06
7.00509e-06
-1.96951e-06
1.48946e-05
-2.41111e-06
2.24906e-05
-2.64728e-06
2.96064e-05
-2.90308e-06
3.60822e-05
-3.18553e-06
4.17926e-05
-3.48373e-06
4.66428e-05
-3.78192e-06
5.05194e-05
-4.06354e-06
5.32155e-05
-4.33479e-06
5.47776e-05
-4.53215e-06
5.52279e-05
-4.64674e-06
5.46225e-05
-4.667e-06
5.30407e-05
-4.58453e-06
5.05849e-05
-4.394e-06
4.73732e-05
-4.09176e-06
4.3535e-05
-3.68118e-06
3.92116e-05
-3.17928e-06
3.45522e-05
-2.61365e-06
2.96439e-05
-1.93519e-06
2.47664e-05
-1.38161e-06
1.99589e-05
-7.24298e-07
1.52939e-05
-2.9684e-08
1.08689e-05
6.37293e-07
6.73829e-06
1.29111e-06
2.91002e-06
1.87902e-06
-5.26687e-07
2.40006e-06
-3.52658e-06
2.85106e-06
-6.10204e-06
3.22155e-06
-8.258e-06
3.51234e-06
-9.95697e-06
3.72824e-06
-1.12313e-05
3.87085e-06
-1.20903e-05
3.94136e-06
-1.25586e-05
3.95575e-06
-1.26603e-05
3.92391e-06
-1.24203e-05
3.85521e-06
-1.18639e-05
3.76128e-06
-1.10189e-05
3.65444e-06
-9.91469e-06
3.54463e-06
-8.58184e-06
3.43977e-06
-7.05404e-06
3.34796e-06
-5.36527e-06
3.27209e-06
-3.55078e-06
3.21402e-06
-1.64351e-06
3.17132e-06
2.77388e-06
3.6653e-06
-5.63503e-06
7.77644e-06
-6.52266e-06
1.16683e-05
-6.54026e-06
1.5216e-05
-6.45205e-06
1.8308e-05
-6.27635e-06
2.08407e-05
-6.01509e-06
2.27288e-05
-5.67042e-06
2.39051e-05
-5.24019e-06
2.42818e-05
-4.71152e-06
2.38804e-05
-4.13089e-06
2.27184e-05
-3.48495e-06
2.08421e-05
-2.79106e-06
1.83176e-05
-2.06068e-06
1.52352e-05
-1.31243e-06
1.17019e-05
-5.59326e-07
7.78976e-06
2.30369e-07
3.57137e-06
1.03874e-06
-5.99975e-07
1.55722e-06
-4.75108e-06
2.21497e-06
-8.85331e-06
2.7195e-06
-1.27806e-05
3.20235e-06
-1.64353e-05
3.62488e-06
-1.97637e-05
3.96546e-06
-2.26885e-05
4.21542e-06
-2.51752e-05
4.36556e-06
-2.71975e-05
4.42325e-06
-2.8734e-05
4.38893e-06
-2.97824e-05
4.271e-06
-3.03471e-05
4.07821e-06
-3.04376e-05
3.82025e-06
-3.00749e-05