/*--------------------------------*- C++ -*----------------------------------*\
  =========                 |
  \\      /  F ield         | OpenFOAM: The Open Source CFD Toolbox
   \\    /   O peration     | Website:  https://openfoam.org
    \\  /    A nd           | Version:  7
     \\/     M anipulation  |
\*---------------------------------------------------------------------------*/
FoamFile
{
    version     2.0;
    format      ascii;
    class       volVectorField;
    location    "6.1";
    object      U;
}
// * * * * * * * * * * * * * * * * * * * * * * * * * * * * * * * * * * * * * //

dimensions      [0 1 -1 0 0 0 0];

internalField   nonuniform List<vector> 
900
(
(7.21095e-05 -7.11681e-05 0)
(4.96517e-05 6.7492e-06 0)
(-0.00027154 0.000100587 0)
(-0.000823958 0.000170206 0)
(-0.00154234 0.000213488 0)
(-0.00236546 0.000236237 0)
(-0.0032426 0.000245085 0)
(-0.00413578 0.000244926 0)
(-0.00501649 0.000238523 0)
(-0.00586133 0.000226938 0)
(-0.00664859 0.000210048 0)
(-0.00735578 0.000187011 0)
(-0.0079584 0.000156686 0)
(-0.00842973 0.000118038 0)
(-0.00874191 7.05578e-05 0)
(-0.00886814 1.46002e-05 0)
(-0.00878522 -4.87228e-05 0)
(-0.00847767 -0.000116255 0)
(-0.00794215 -0.000183726 0)
(-0.00719066 -0.000245678 0)
(-0.0062531 -0.000295942 0)
(-0.00517798 -0.000328435 0)
(-0.0040304 -0.000338073 0)
(-0.00288747 -0.000321622 0)
(-0.00183148 -0.000278282 0)
(-0.000941304 -0.000209909 0)
(-0.000281442 -0.000121817 0)
(9.97652e-05 -2.60455e-05 0)
(0.00019726 6.18657e-05 0)
(8.95542e-05 8.87554e-05 0)
(-4.61706e-06 -5.16884e-05 0)
(-0.000384897 0.000381412 0)
(-0.00140248 0.000842508 0)
(-0.00289514 0.00120535 0)
(-0.00474668 0.00145298 0)
(-0.00683946 0.00159892 0)
(-0.00906458 0.00166451 0)
(-0.0113316 0.0016684 0)
(-0.0135659 0.00162292 0)
(-0.0157029 0.00153409 0)
(-0.0176823 0.00140291 0)
(-0.0194442 0.00122721 0)
(-0.0209261 0.00100358 0)
(-0.0220639 0.000729446 0)
(-0.0227934 0.000405123 0)
(-0.0230564 3.55664e-05 0)
(-0.022805 -0.000368787 0)
(-0.0220104 -0.000789089 0)
(-0.0206727 -0.00120041 0)
(-0.0188261 -0.00157231 0)
(-0.0165438 -0.00187161 0)
(-0.0139388 -0.00206638 0)
(-0.0111592 -0.00213069 0)
(-0.00837776 -0.00204909 0)
(-0.00577652 -0.00182015 0)
(-0.00352807 -0.00145858 0)
(-0.00177367 -0.000997896 0)
(-0.000601528 -0.000496983 0)
(-1.93763e-05 -4.09714e-05 0)
(6.46557e-05 0.000194826 0)
(-0.000105623 0.000274657 0)
(-0.000892621 0.00141047 0)
(-0.00261335 0.00251072 0)
(-0.00496479 0.00338601 0)
(-0.00778774 0.00400124 0)
(-0.0109315 0.00437612 0)
(-0.0142512 0.00454887 0)
(-0.0176213 0.00455631 0)
(-0.0209344 0.00442497 0)
(-0.0240946 0.00416924 0)
(-0.0270116 0.00379318 0)
(-0.0295961 0.00329403 0)
(-0.0317573 0.00266668 0)
(-0.0334034 0.00190849 0)
(-0.034445 0.00102399 0)
(-0.0348025 2.92531e-05 0)
(-0.0344116 -0.00104474 0)
(-0.0332358 -0.00215031 0)
(-0.0312789 -0.003224 0)
(-0.0285911 -0.0041899 0)
(-0.0252762 -0.00496649 0)
(-0.0214921 -0.00547621 0)
(-0.0174444 -0.00565673 0)
(-0.0133725 -0.00547205 0)
(-0.00952856 -0.00492154 0)
(-0.00615088 -0.00404586 0)
(-0.00343451 -0.00293124 0)
(-0.00149819 -0.00171486 0)
(-0.000363284 -0.00059202 0)
(3.69397e-06 0.000130591 0)
(-0.000193603 0.000874334 0)
(-0.00136047 0.00300473 0)
(-0.00374431 0.00491586 0)
(-0.00688254 0.00641422 0)
(-0.0105658 0.00746843 0)
(-0.0146149 0.00811291 0)
(-0.0188589 0.00840582 0)
(-0.0231489 0.00840331 0)
(-0.027355 0.00814679 0)
(-0.0313596 0.00765963 0)
(-0.0350509 0.00694944 0)
(-0.038318 0.00601341 0)
(-0.0410488 0.0048455 0)
(-0.0431301 0.00344432 0)
(-0.0444526 0.00182103 0)
(-0.0449178 6.67499e-06 0)
(-0.0444469 -0.00194128 0)
(-0.0429939 -0.00393944 0)
(-0.04056 -0.00587611 0)
(-0.0372027 -0.00761866 0)
(-0.033045 -0.00902502 0)
(-0.0282768 -0.00996008 0)
(-0.023149 -0.0103151 0)
(-0.0179562 -0.0100275 0)
(-0.0130115 -0.00909707 0)
(-0.00861285 -0.00759665 0)
(-0.00500661 -0.00567662 0)
(-0.00234553 -0.00356629 0)
(-0.000676503 -0.00157447 0)
(-4.49793e-05 -0.000123813 0)
(-0.000264886 0.00171331 0)
(-0.00176776 0.00511872 0)
(-0.00475468 0.00799893 0)
(-0.0086065 0.0102084 0)
(-0.0130607 0.0117485 0)
(-0.0179095 0.0126828 0)
(-0.0229605 0.0130959 0)
(-0.028048 0.0130656 0)
(-0.033028 0.012649 0)
(-0.0377689 0.0118783 0)
(-0.0421447 0.0107646 0)
(-0.0460296 0.00930453 0)
(-0.0492949 0.00749077 0)
(-0.0518105 0.00532314 0)
(-0.0534479 0.00281992 0)
(-0.0540884 2.84301e-05 0)
(-0.0536347 -0.00296598 0)
(-0.0520241 -0.00603823 0)
(-0.049244 -0.00902151 0)
(-0.0453472 -0.0117169 0)
(-0.0404641 -0.0139096 0)
(-0.0348073 -0.0153935 0)
(-0.028667 -0.0160005 0)
(-0.0223936 -0.0156317 0)
(-0.0163666 -0.0142836 0)
(-0.0109536 -0.0120642 0)
(-0.00646388 -0.00919744 0)
(-0.003096 -0.0060167 0)
(-0.000929907 -0.00295092 0)
(-7.56041e-05 -0.000531673 0)
(-0.000322421 0.0027574 0)
(-0.00211761 0.00769878 0)
(-0.00564385 0.0117015 0)
(-0.0101394 0.0147053 0)
(-0.0152899 0.0167716 0)
(-0.0208593 0.0180102 0)
(-0.0266366 0.018541 0)
(-0.0324443 0.0184681 0)
(-0.03813 0.0178658 0)
(-0.043555 0.0167755 0)
(-0.0485854 0.0152105 0)
(-0.0530858 0.0131656 0)
(-0.0569159 0.0106301 0)
(-0.0599295 0.00760264 0)
(-0.0619786 0.00410617 0)
(-0.0629203 0.000202373 0)
(-0.0626296 -0.00399676 0)
(-0.0610142 -0.00832213 0)
(-0.0580331 -0.0125465 0)
(-0.0537181 -0.0163946 0)
(-0.0481916 -0.0195645 0)
(-0.0416785 -0.0217598 0)
(-0.034506 -0.0227334 0)
(-0.0270874 -0.0223326 0)
(-0.0198854 -0.0205405 0)
(-0.0133603 -0.0175008 0)
(-0.00790857 -0.013522 0)
(-0.00379384 -0.00905993 0)
(-0.00113447 -0.00468279 0)
(-8.8037e-05 -0.00104896 0)
(-0.000370114 0.00397633 0)
(-0.0024203 0.0106895 0)
(-0.00642725 0.0159592 0)
(-0.011504 0.0198376 0)
(-0.0172884 0.0224699 0)
(-0.0235185 0.0240283 0)
(-0.0299674 0.024679 0)
(-0.0364499 0.0245582 0)
(-0.0428109 0.02376 0)
(-0.0489104 0.0223353 0)
(-0.054613 0.0202985 0)
(-0.059779 0.0176398 0)
(-0.0642597 0.014341 0)
(-0.0678948 0.0103943 0)
(-0.0705144 0.00582139 0)
(-0.0719451 0.000692021 0)
(-0.0720229 -0.00485951 0)
(-0.0706091 -0.010623 0)
(-0.0676136 -0.0163077 0)
(-0.0630247 -0.0215518 0)
(-0.0569356 -0.0259472 0)
(-0.0495682 -0.0290816 0)
(-0.0412827 -0.0305975 0)
(-0.0325649 -0.0302596 0)
(-0.0239858 -0.0280172 0)
(-0.0161348 -0.0240456 0)
(-0.00953396 -0.0187522 0)
(-0.00454249 -0.0127448 0)
(-0.00132928 -0.00676911 0)
(-8.91885e-05 -0.00165494 0)
(-0.000410975 0.00534672 0)
(-0.00268612 0.0140439 0)
(-0.00712362 0.0207156 0)
(-0.0127278 0.0255475 0)
(-0.0190946 0.0287879 0)
(-0.0259393 0.0306879 0)
(-0.0330228 0.0314707 0)
(-0.0401569 0.0313113 0)
(-0.0471891 0.0303273 0)
(-0.0539845 0.02858 0)
(-0.0604121 0.0260832 0)
(-0.0663342 0.0228185 0)
(-0.0715983 0.0187545 0)
(-0.0760317 0.0138685 0)
(-0.0794408 0.00817047 0)
(-0.0816146 0.00172725 0)
(-0.0823373 -0.00531511 0)
(-0.0814033 -0.0127135 0)
(-0.0786475 -0.0201141 0)
(-0.0739839 -0.0270594 0)
(-0.0674465 -0.0330132 0)
(-0.0592298 -0.0374113 0)
(-0.0497154 -0.0397409 0)
(-0.0394696 -0.0396368 0)
(-0.0292018 -0.0369788 0)
(-0.019679 -0.0319598 0)
(-0.0116066 -0.0251027 0)
(-0.00548771 -0.0172114 0)
(-0.00156822 -0.00927055 0)
(-8.74805e-05 -0.00235228 0)
(-0.000446859 0.0068508 0)
(-0.00292288 0.0177237 0)
(-0.00774904 0.0259237 0)
(-0.0138351 0.0317869 0)
(-0.020741 0.0356823 0)
(-0.0281634 0.0379541 0)
(-0.0358553 0.0388938 0)
(-0.0436307 0.0387233 0)
(-0.0513453 0.0375878 0)
(-0.0588761 0.0355601 0)
(-0.0661041 0.0326521 0)
(-0.0729007 0.0288323 0)
(-0.0791154 0.0240478 0)
(-0.0845673 0.0182498 0)
(-0.0890384 0.0114215 0)
(-0.0922745 0.00360928 0)
(-0.0939944 -0.005047 0)
(-0.093904 -0.0142867 0)
(-0.0917306 -0.0237001 0)
(-0.0872767 -0.0327284 0)
(-0.0804754 -0.0406827 0)
(-0.071456 -0.0468024 0)
(-0.0605967 -0.0503559 0)
(-0.0485428 -0.0507777 0)
(-0.0361713 -0.0478159 0)
(-0.0244878 -0.0416498 0)
(-0.0144605 -0.0329309 0)
(-0.00681247 -0.02272 0)
(-0.00191671 -0.0123292 0)
(-9.18425e-05 -0.00317523 0)
(-0.000478735 0.00847451 0)
(-0.00313564 0.0216972 0)
(-0.00831491 0.0315439 0)
(-0.0148434 0.0385153 0)
(-0.0222501 0.0431164 0)
(-0.0302175 0.0457988 0)
(-0.0384953 0.046934 0)
(-0.0469045 0.0467989 0)
(-0.0553161 0.0455719 0)
(-0.0636263 0.0433396 0)
(-0.0717366 0.0401106 0)
(-0.0795364 0.0358355 0)
(-0.0868857 0.0304302 0)
(-0.0936014 0.0238052 0)
(-0.0994443 0.0158973 0)
(-0.104113 0.00670721 0)
(-0.107251 -0.00365822 0)
(-0.108453 -0.0149429 0)
(-0.107304 -0.0267019 0)
(-0.103452 -0.0382755 0)
(-0.0966776 -0.0487999 0)
(-0.0869905 -0.0572658 0)
(-0.0747211 -0.0626418 0)
(-0.0605729 -0.0640608 0)
(-0.0456084 -0.0610403 0)
(-0.031137 -0.0536811 0)
(-0.0184948 -0.0427634 0)
(-0.00873736 -0.0296773 0)
(-0.0024524 -0.0161874 0)
(-0.000112078 -0.00419544 0)
(-0.000506969 0.0102058 0)
(-0.00332715 0.0259374 0)
(-0.00882802 0.0375414 0)
(-0.0157626 0.0456958 0)
(-0.0236331 0.0510559 0)
(-0.0321113 0.0541946 0)
(-0.0409478 0.0555756 0)
(-0.0499764 0.0555403 0)
(-0.0590894 0.054307 0)
(-0.0682107 0.0519795 0)
(-0.0772719 0.0485629 0)
(-0.0861904 0.0439847 0)
(-0.0948477 0.0381199 0)
(-0.103068 0.0308207 0)
(-0.110597 0.0219529 0)
(-0.117089 0.0114398 0)
(-0.122101 -0.0006818 0)
(-0.125103 -0.0141928 0)
(-0.125511 -0.0286478 0)
(-0.122769 -0.0432983 0)
(-0.116447 -0.0570906 0)
(-0.106369 -0.0687149 0)
(-0.0927469 -0.0767449 0)
(-0.0762911 -0.0798783 0)
(-0.0582375 -0.0772541 0)
(-0.0402529 -0.068775 0)
(-0.0241649 -0.0553123 0)
(-0.011521 -0.0386618 0)
(-0.00326656 -0.0212064 0)
(-0.000159303 -0.00552817 0)
(-0.000531565 0.0120336 0)
(-0.00349866 0.0304196 0)
(-0.00929175 0.0438838 0)
(-0.0165967 0.053292 0)
(-0.0248913 0.0594638 0)
(-0.0338388 0.0631075 0)
(-0.0431943 0.0647921 0)
(-0.0528089 0.0649346 0)
(-0.0626028 0.0638012 0)
(-0.0725352 0.0615178 0)
(-0.0825772 0.0580872 0)
(-0.0926855 0.0534099 0)
(-0.102775 0.0473093 0)
(-0.112689 0.0395614 0)
(-0.122172 0.029933 0)
(-0.130837 0.0182332 0)
(-0.138156 0.00438398 0)
(-0.143469 -0.0114896 0)
(-0.146009 -0.0289757 0)
(-0.144977 -0.047268 0)
(-0.139681 -0.0651259 0)
(-0.129681 -0.0808989 0)
(-0.114979 -0.0926696 0)
(-0.0961953 -0.0985432 0)
(-0.074673 -0.0970746 0)
(-0.052448 -0.0877671 0)
(-0.0319599 -0.0714715 0)
(-0.0154575 -0.0504409 0)
(-0.00446577 -0.0278856 0)
(-0.000246511 -0.00733955 0)
(-0.000552423 0.0139469 0)
(-0.00365097 0.0351205 0)
(-0.00970835 0.050539 0)
(-0.0173469 0.061265 0)
(-0.0260198 0.0682957 0)
(-0.0353825 0.0724902 0)
(-0.0451965 0.0745368 0)
(-0.0553333 0.0749404 0)
(-0.0657461 0.0740249 0)
(-0.0764358 0.0719452 0)
(-0.087421 0.0687043 0)
(-0.0987079 0.0641737 0)
(-0.110256 0.0581157 0)
(-0.121942 0.0502116 0)
(-0.13352 0.0401004 0)
(-0.144582 0.0274371 0)
(-0.154529 0.0119771 0)
(-0.16258 -0.00630952 0)
(-0.167781 -0.0270885 0)
(-0.169089 -0.0495531 0)
(-0.165514 -0.0723023 0)
(-0.156287 -0.0933328 0)
(-0.141087 -0.110163 0)
(-0.120299 -0.120144 0)
(-0.0952307 -0.120994 0)
(-0.0682094 -0.111509 0)
(-0.0423586 -0.0922744 0)
(-0.0208695 -0.0659727 0)
(-0.00617418 -0.0368785 0)
(-0.000389717 -0.00985504 0)
(-0.000569655 0.0159353 0)
(-0.00378607 0.0400182 0)
(-0.0100823 0.057475 0)
(-0.0180164 0.0695714 0)
(-0.027014 0.0774962 0)
(-0.0367209 0.0822752 0)
(-0.0469046 0.084732 0)
(-0.0574587 0.0854731 0)
(-0.0683713 0.0848914 0)
(-0.0796885 0.0831786 0)
(-0.0914815 0.0803427 0)
(-0.103812 0.0762255 0)
(-0.116694 0.0705213 0)
(-0.130049 0.0628007 0)
(-0.143658 0.0525481 0)
(-0.157113 0.0392263 0)
(-0.169778 0.0223761 0)
(-0.18077 0.00176092 0)
(-0.188995 -0.022444 0)
(-0.1932 -0.0494837 0)
(-0.192095 -0.0778581 0)
(-0.184544 -0.105248 0)
(-0.1698 -0.128589 0)
(-0.147831 -0.14436 0)
(-0.119669 -0.149168 0)
(-0.0877231 -0.140685 0)
(-0.0557469 -0.118789 0)
(-0.0280898 -0.0863786 0)
(-0.00853643 -0.0490043 0)
(-0.000610129 -0.0133699 0)
(-0.000584008 0.0179899 0)
(-0.00390918 0.0450942 0)
(-0.0104248 0.0646612 0)
(-0.0186175 0.0781636 0)
(-0.0278786 0.0869964 0)
(-0.0378392 0.0923704 0)
(-0.0482706 0.0952615 0)
(-0.0590868 0.096393 0)
(-0.0703098 0.0962384 0)
(-0.0820303 0.0950355 0)
(-0.0943714 0.0928028 0)
(-0.107452 0.0893542 0)
(-0.121342 0.0843121 0)
(-0.136018 0.0771252 0)
(-0.151305 0.0671043 0)
(-0.166822 0.0534912 0)
(-0.181938 0.0355751 0)
(-0.19574 0.0128644 0)
(-0.207051 -0.0146951 0)
(-0.214481 -0.046466 0)
(-0.216518 -0.0809443 0)
(-0.211666 -0.115596 0)
(-0.198689 -0.146845 0)
(-0.176947 -0.170271 0)
(-0.146889 -0.181151 0)
(-0.110628 -0.17554 0)
(-0.0722778 -0.15192 0)
(-0.0374201 -0.112864 0)
(-0.0117186 -0.0652454 0)
(-0.00093751 -0.018262 0)
(-0.00059741 0.0201057 0)
(-0.00403146 0.0503382 0)
(-0.0107598 0.0720727 0)
(-0.0191805 0.0869917 0)
(-0.0286386 0.0967139 0)
(-0.0387432 0.102656 0)
(-0.0492644 0.105965 0)
(-0.0601325 0.107496 0)
(-0.0713993 0.107815 0)
(-0.0831938 0.107215 0)
(-0.0956845 0.105731 0)
(-0.10904 0.103153 0)
(-0.123386 0.0990298 0)
(-0.138756 0.0926872 0)
(-0.155032 0.0832545 0)
(-0.171895 0.0697404 0)
(-0.18877 0.0511647 0)
(-0.204798 0.0267536 0)
(-0.218821 -0.0038119 0)
(-0.229437 -0.0401213 0)
(-0.235033 -0.0807553 0)
(-0.233849 -0.123137 0)
(-0.224159 -0.163363 0)
(-0.20459 -0.196238 0)
(-0.174678 -0.215633 0)
(-0.135726 -0.215531 0)
(-0.0916585 -0.192105 0)
(-0.0490461 -0.146556 0)
(-0.0159017 -0.0867175 0)
(-0.0014144 -0.0250051 0)
(-0.000613749 0.0222859 0)
(-0.00417368 0.055756 0)
(-0.0111316 0.0796979 0)
(-0.0197639 0.0960093 0)
(-0.0293525 0.106556 0)
(-0.0394747 0.112984 0)
(-0.0498931 0.116635 0)
(-0.0605492 0.118511 0)
(-0.0715166 0.119279 0)
(-0.0829531 0.119294 0)
(-0.0950601 0.118613 0)
(-0.108044 0.117006 0)
(-0.122075 0.113958 0)
(-0.137241 0.108675 0)
(-0.153496 0.100116 0)
(-0.170609 0.0870665 0)
(-0.188123 0.0682873 0)
(-0.20532 0.0427248 0)
(-0.221208 0.00977482 0)
(-0.234494 -0.0304334 0)
(-0.24363 -0.0767027 0)
(-0.246779 -0.126625 0)
(-0.241831 -0.176259 0)
(-0.226661 -0.219941 0)
(-0.199654 -0.250302 0)
(-0.160757 -0.258993 0)
(-0.11289 -0.238895 0)
(-0.0628942 -0.188221 0)
(-0.0212608 -0.114588 0)
(-0.0021014 -0.0341791 0)
(-0.00064004 0.0245484 0)
(-0.00437118 0.061381 0)
(-0.0116142 0.0875497 0)
(-0.0204677 0.105181 0)
(-0.0301272 0.116422 0)
(-0.040128 0.123184 0)
(-0.0502205 0.127024 0)
(-0.0603526 0.129103 0)
(-0.0706123 0.1302 0)
(-0.0811739 0.130734 0)
(-0.0922564 0.130789 0)
(-0.104088 0.130119 0)
(-0.116869 0.128157 0)
(-0.130738 0.124008 0)
(-0.145725 0.116486 0)
(-0.161719 0.104193 0)
(-0.178433 0.0856681 0)
(-0.195376 0.0596143 0)
(-0.211827 0.0251615 0)
(-0.226763 -0.0178549 0)
(-0.238897 -0.0686246 0)
(-0.246515 -0.125099 0)
(-0.247341 -0.18366 0)
(-0.238643 -0.238657 0)
(-0.21761 -0.281942 0)
(-0.182417 -0.30296 0)
(-0.13407 -0.290536 0)
(-0.0784448 -0.237852 0)
(-0.0279282 -0.149912 0)
(-0.00308443 -0.0464702 0)
(-0.000688418 0.0269359 0)
(-0.00468129 0.0672917 0)
(-0.012324 0.0956803 0)
(-0.0214473 0.114493 0)
(-0.0311316 0.126214 0)
(-0.0408634 0.133066 0)
(-0.0503813 0.136846 0)
(-0.0596399 0.138889 0)
(-0.068737 0.140086 0)
(-0.0778535 0.140921 0)
(-0.0872121 0.141503 0)
(-0.0970468 0.141583 0)
(-0.107577 0.140552 0)
(-0.118982 0.137447 0)
(-0.131377 0.13098 0)
(-0.14479 0.119623 0)
(-0.159141 0.101765 0)
(-0.174225 0.0759298 0)
(-0.189678 0.0410351 0)
(-0.204889 -0.00337469 0)
(-0.21897 -0.0569708 0)
(-0.230524 -0.118211 0)
(-0.237413 -0.184173 0)
(-0.236608 -0.249795 0)
(-0.224306 -0.306896 0)
(-0.196794 -0.343338 0)
(-0.152422 -0.343719 0)
(-0.0945695 -0.294189 0)
(-0.0359419 -0.193359 0)
(-0.00448595 -0.0626566 0)
(-0.000779962 0.0295313 0)
(-0.0051953 0.0736358 0)
(-0.0134377 0.1042 0)
(-0.0229311 0.123961 0)
(-0.0326098 0.135838 0)
(-0.0419145 0.142422 0)
(-0.0505846 0.145788 0)
(-0.0585913 0.14745 0)
(-0.066046 0.148408 0)
(-0.0731326 0.149204 0)
(-0.080069 0.149975 0)
(-0.0870857 0.150469 0)
(-0.0944118 0.150062 0)
(-0.102267 0.147757 0)
(-0.110852 0.142219 0)
(-0.120348 0.131861 0)
(-0.130899 0.114998 0)
(-0.142606 0.0900562 0)
(-0.155496 0.0558018 0)
(-0.169474 0.0115302 0)
(-0.184102 -0.042828 0)
(-0.19844 -0.106435 0)
(-0.210803 -0.177321 0)
(-0.218265 -0.251559 0)
(-0.216493 -0.321831 0)
(-0.200175 -0.375541 0)
(-0.164687 -0.39375 0)
(-0.109495 -0.354338 0)
(-0.0451903 -0.24484 0)
(-0.00648278 -0.0835798 0)
(-0.000952617 0.0324834 0)
(-0.00605947 0.080663 0)
(-0.0152179 0.113295 0)
(-0.0252394 0.133637 0)
(-0.0348871 0.145196 0)
(-0.0435814 0.151027 0)
(-0.0510949 0.153511 0)
(-0.0574424 0.154347 0)
(-0.0627644 0.154632 0)
(-0.0672542 0.154954 0)
(-0.0711265 0.15547 0)
(-0.0746066 0.155937 0)
(-0.077933 0.155735 0)
(-0.0813651 0.153875 0)
(-0.0851937 0.149034 0)
(-0.0897489 0.139637 0)
(-0.0954025 0.124009 0)
(-0.102557 0.100556 0)
(-0.111614 0.0679646 0)
(-0.122916 0.0253443 0)
(-0.13655 -0.0276833 0)
(-0.152156 -0.0910173 0)
(-0.168628 -0.163744 0)
(-0.183565 -0.243453 0)
(-0.192735 -0.324547 0)
(-0.189904 -0.395413 0)
(-0.167759 -0.43521 0)
(-0.120977 -0.41375 0)
(-0.0553481 -0.303092 0)
(-0.00932415 -0.110107 0)
(-0.00127829 0.0360515 0)
(-0.00751342 0.0887711 0)
(-0.0180518 0.123246 0)
(-0.0288034 0.143597 0)
(-0.0383615 0.154172 0)
(-0.0461931 0.158611 0)
(-0.0521701 0.159637 0)
(-0.0563992 0.159122 0)
(-0.059081 0.158235 0)
(-0.0604369 0.157593 0)
(-0.0606888 0.15736 0)
(-0.0600647 0.157311 0)
(-0.0588167 0.156851 0)
(-0.0572465 0.155036 0)
(-0.0557298 0.150611 0)
(-0.0547362 0.142081 0)
(-0.054838 0.127847 0)
(-0.056701 0.10637 0)
(-0.0610494 0.0763282 0)
(-0.0685905 0.0367118 0)
(-0.0798752 -0.0131545 0)
(-0.0950949 -0.0737219 0)
(-0.11381 -0.145071 0)
(-0.134448 -0.226422 0)
(-0.153523 -0.314494 0)
(-0.164831 -0.400118 0)
(-0.159253 -0.462924 0)
(-0.126613 -0.466666 0)
(-0.0657843 -0.365364 0)
(-0.0133239 -0.143082 0)
(-0.00189984 0.0406878 0)
(-0.00996079 0.0985662 0)
(-0.0225038 0.134423 0)
(-0.0341687 0.153894 0)
(-0.0434494 0.162564 0)
(-0.0500002 0.164805 0)
(-0.053905 0.163702 0)
(-0.055438 0.161265 0)
(-0.0549064 0.158695 0)
(-0.0525887 0.156602 0)
(-0.0487333 0.155146 0)
(-0.0435827 0.154115 0)
(-0.0374088 0.152961 0)
(-0.0305528 0.15082 0)
(-0.0234625 0.146544 0)
(-0.0167186 0.138771 0)
(-0.0110479 0.126033 0)
(-0.00731535 0.106889 0)
(-0.00649114 0.0800515 0)
(-0.00956658 0.0444539 0)
(-0.0174456 -0.000783465 0)
(-0.0307629 -0.0564846 0)
(-0.0497267 -0.123528 0)
(-0.0737353 -0.202559 0)
(-0.10055 -0.29278 0)
(-0.125026 -0.388592 0)
(-0.137605 -0.472796 0)
(-0.124069 -0.506867 0)
(-0.0753994 -0.427294 0)
(-0.0187654 -0.183211 0)
(-0.0031091 0.0471939 0)
(-0.0140938 0.110928 0)
(-0.0293691 0.147229 0)
(-0.0419314 0.16444 0)
(-0.0504016 0.16995 0)
(-0.0548837 0.169016 0)
(-0.0558478 0.165051 0)
(-0.0538388 0.16013 0)
(-0.0493311 0.155415 0)
(-0.0426967 0.151465 0)
(-0.0342322 0.148408 0)
(-0.0242057 0.146038 0)
(-0.0129084 0.143861 0)
(-0.000707479 0.141109 0)
(0.0119067 0.136777 0)
(0.0242863 0.129665 0)
(0.0356088 0.118472 0)
(0.0448844 0.101889 0)
(0.0509953 0.0786987 0)
(0.0527693 0.047824 0)
(0.0490691 0.00827132 0)
(0.0388894 -0.0410179 0)
(0.0214531 -0.101405 0)
(-0.00355683 -0.17453 0)
(-0.035396 -0.261723 0)
(-0.0708499 -0.361451 0)
(-0.101608 -0.462197 0)
(-0.110936 -0.528295 0)
(-0.0823249 -0.482884 0)
(-0.0256218 -0.230719 0)
(-0.00550134 0.0570306 0)
(-0.0210882 0.127049 0)
(-0.039638 0.161889 0)
(-0.0524178 0.174708 0)
(-0.0587272 0.175396 0)
(-0.0595661 0.170157 0)
(-0.056038 0.162605 0)
(-0.0490861 0.154735 0)
(-0.0394183 0.147566 0)
(-0.0275335 0.141532 0)
(-0.0137911 0.136689 0)
(0.00151644 0.132821 0)
(0.0180938 0.129475 0)
(0.0355776 0.125988 0)
(0.0534829 0.1215 0)
(0.0711603 0.114996 0)
(0.0877716 0.105357 0)
(0.102293 0.0914397 0)
(0.113548 0.0721362 0)
(0.120265 0.0464043 0)
(0.121136 0.0132132 0)
(0.114873 -0.0286153 0)
(0.100247 -0.0806052 0)
(0.076157 -0.144873 0)
(0.0419054 -0.224146 0)
(-0.00173229 -0.320585 0)
(-0.0494576 -0.429988 0)
(-0.0840769 -0.525223 0)
(-0.0834736 -0.524375 0)
(-0.0330387 -0.284807 0)
(-0.0102483 0.0729675 0)
(-0.0328097 0.148295 0)
(-0.0539892 0.177886 0)
(-0.0644609 0.183079 0)
(-0.0654249 0.176849 0)
(-0.059463 0.166142 0)
(-0.0486173 0.15445 0)
(-0.0343497 0.143441 0)
(-0.0176368 0.133829 0)
(0.000900706 0.125823 0)
(0.0208666 0.119349 0)
(0.0419806 0.114138 0)
(0.06399 0.109763 0)
(0.0865946 0.105649 0)
(0.109383 0.101082 0)
(0.131784 0.095228 0)
(0.153031 0.0871667 0)
(0.17216 0.0759384 0)
(0.18802 0.0605841 0)
(0.199311 0.040159 0)
(0.2046 0.0136911 0)
(0.202377 -0.0199727 0)
(0.191038 -0.0622925 0)
(0.168842 -0.1154 0)
(0.133951 -0.182562 0)
(0.0848687 -0.268524 0)
(0.0225211 -0.376537 0)
(-0.0383235 -0.49246 0)
(-0.0740536 -0.54232 0)
(-0.0387348 -0.343403 0)
(-0.0194083 0.0999656 0)
(-0.0514474 0.174949 0)
(-0.0701163 0.192374 0)
(-0.0710297 0.1854 0)
(-0.0597167 0.170006 0)
(-0.0411126 0.153092 0)
(-0.0183498 0.137342 0)
(0.00667293 0.123684 0)
(0.0328591 0.112291 0)
(0.0596227 0.103024 0)
(0.0866709 0.0956058 0)
(0.113858 0.0896767 0)
(0.141079 0.0848098 0)
(0.168189 0.0805045 0)
(0.194937 0.076182 0)
(0.22091 0.0711889 0)
(0.245499 0.0648115 0)
(0.267875 0.0562984 0)
(0.286992 0.0448812 0)
(0.301597 0.0297814 0)
(0.310178 0.0101917 0)
(0.311075 -0.0148459 0)
(0.302383 -0.0465346 0)
(0.281856 -0.0867304 0)
(0.246784 -0.138472 0)
(0.194032 -0.207495 0)
(0.120742 -0.302885 0)
(0.0353683 -0.426805 0)
(-0.0466192 -0.526905 0)
(-0.0379653 -0.401457 0)
(-0.0346662 0.143925 0)
(-0.0737886 0.199723 0)
(-0.0699919 0.194135 0)
(-0.0446387 0.170663 0)
(-0.0091173 0.14571 0)
(0.0300075 0.123967 0)
(0.0694719 0.106159 0)
(0.107809 0.091917 0)
(0.144452 0.080658 0)
(0.179313 0.0718247 0)
(0.21253 0.0649251 0)
(0.244314 0.0595176 0)
(0.274863 0.0551852 0)
(0.304295 0.0515098 0)
(0.332595 0.0480548 0)
(0.359569 0.0443555 0)
(0.384809 0.0399204 0)
(0.407673 0.0342386 0)
(0.427264 0.0267859 0)
(0.442459 0.0170203 0)
(0.451773 0.00433865 0)
(0.453566 -0.0118114 0)
(0.445714 -0.0322488 0)
(0.425684 -0.0583445 0)
(0.390174 -0.0924003 0)
(0.335321 -0.139496 0)
(0.254861 -0.210781 0)
(0.150902 -0.325397 0)
(0.0141292 -0.466042 0)
(-0.017474 -0.4415 0)
(-0.0375512 0.235981 0)
(-0.0476852 0.203667 0)
(0.0275926 0.153119 0)
(0.0994692 0.117262 0)
(0.166476 0.0906227 0)
(0.226584 0.0710532 0)
(0.279487 0.0569304 0)
(0.325932 0.0466932 0)
(0.366951 0.0391734 0)
(0.403547 0.0335923 0)
(0.436596 0.0294209 0)
(0.466821 0.0262698 0)
(0.494782 0.0238267 0)
(0.520873 0.0218197 0)
(0.545297 0.0199937 0)
(0.568056 0.0180971 0)
(0.588932 0.0158772 0)
(0.607465 0.0130811 0)
(0.622948 0.00946132 0)
(0.634394 0.00477998 0)
(0.640622 -0.00120112 0)
(0.640258 -0.00875933 0)
(0.631217 -0.0183487 0)
(0.611207 -0.0305902 0)
(0.576722 -0.0466488 0)
(0.524088 -0.0697915 0)
(0.443549 -0.108132 0)
(0.333822 -0.188639 0)
(0.143288 -0.336135 0)
(0.0605551 -0.412898 0)
(0.231286 0.158594 0)
(0.291408 0.117091 0)
(0.440859 0.0758984 0)
(0.539617 0.0505644 0)
(0.606536 0.0342328 0)
(0.655912 0.0234791 0)
(0.693898 0.0164962 0)
(0.723846 0.0119798 0)
(0.748095 0.00902518 0)
(0.768299 0.00706311 0)
(0.785594 0.00574292 0)
(0.800761 0.00483989 0)
(0.814334 0.00420085 0)
(0.826658 0.00371357 0)
(0.837912 0.00328858 0)
(0.84812 0.00284851 0)
(0.857155 0.00232299 0)
(0.864747 0.00164615 0)
(0.870478 0.000761828 0)
(0.873806 -0.000379218 0)
(0.87402 -0.00175875 0)
(0.870253 -0.00348408 0)
(0.861417 -0.00570709 0)
(0.846459 -0.00853134 0)
(0.822934 -0.0121717 0)
(0.78913 -0.0176394 0)
(0.733439 -0.0270955 0)
(0.656174 -0.0490769 0)
(0.454207 -0.110085 0)
(0.313191 -0.177496 0)
)
;

boundaryField
{
    movingWall
    {
        type            fixedValue;
        value           uniform (1 0 0);
    }
    fixedWalls
    {
        type            noSlip;
    }
    frontAndBack
    {
        type            empty;
    }
}


// ************************************************************************* //
