/*--------------------------------*- C++ -*----------------------------------*\
  =========                 |
  \\      /  F ield         | OpenFOAM: The Open Source CFD Toolbox
   \\    /   O peration     | Website:  https://openfoam.org
    \\  /    A nd           | Version:  7
     \\/     M anipulation  |
\*---------------------------------------------------------------------------*/
FoamFile
{
    version     2.0;
    format      ascii;
    class       surfaceScalarField;
    location    "7";
    object      phi;
}
// * * * * * * * * * * * * * * * * * * * * * * * * * * * * * * * * * * * * * //

dimensions      [0 3 -1 0 0 0 0];

internalField   nonuniform List<scalar> 
1740
(
4.9132e-07
-4.92118e-07
-5.74394e-07
1.06571e-06
-3.30331e-06
2.72892e-06
-7.3339e-06
4.03059e-06
-1.22413e-05
4.9074e-06
-1.76611e-05
5.41979e-06
-2.33149e-05
5.65378e-06
-2.89943e-05
5.67945e-06
-3.45335e-05
5.53918e-06
-3.97834e-05
5.24987e-06
-4.45926e-05
4.80926e-06
-4.87963e-05
4.20365e-06
-5.22123e-05
3.41604e-06
-5.46469e-05
2.43456e-06
-5.59075e-05
1.26067e-06
-5.58232e-05
-8.43262e-08
-5.42693e-05
-1.55392e-06
-5.11983e-05
-3.07097e-06
-4.66663e-05
-4.53203e-06
-4.08512e-05
-5.81508e-06
-3.40593e-05
-6.79188e-06
-2.67134e-05
-7.34593e-06
-1.93215e-05
-7.39195e-06
-1.24281e-05
-6.89332e-06
-6.55481e-06
-5.87333e-06
-2.13482e-06
-4.41999e-06
5.59432e-07
-2.69425e-06
1.50732e-06
-9.47886e-07
9.81613e-07
5.25707e-07
9.81612e-07
-1.06709e-06
5.74968e-07
-5.57776e-06
5.57638e-06
-1.3501e-05
1.06521e-05
-2.41635e-05
1.46931e-05
-3.67854e-05
1.75293e-05
-5.06304e-05
1.92648e-05
-6.50671e-05
2.00905e-05
-7.95685e-05
2.01808e-05
-9.3681e-05
1.96517e-05
-0.000106987
1.8556e-05
-0.000119074
1.68957e-05
-0.000129512
1.46418e-05
-0.000137854
1.17587e-05
-0.000143649
8.22935e-06
-0.000146467
4.07868e-06
-0.000145959
-5.92858e-07
-0.000141873
-5.63943e-06
-0.000134161
-1.07832e-05
-0.000122998
-1.5695e-05
-0.000108826
-1.99866e-05
-9.23619e-05
-2.32564e-05
-7.4564e-05
-2.51439e-05
-5.65675e-05
-2.53884e-05
-3.95771e-05
-2.38837e-05
-2.47354e-05
-2.0715e-05
-1.29788e-05
-1.61766e-05
-4.89319e-06
-1.07799e-05
-5.76375e-07
-5.26469e-06
5.89764e-07
-6.40425e-07
1.57137e-06
-2.9057e-06
3.48067e-06
-1.12195e-05
1.38901e-05
-2.41612e-05
2.35939e-05
-4.07534e-05
3.12852e-05
-5.9957e-05
3.6733e-05
-8.07992e-05
4.0107e-05
-0.00010242
4.17115e-05
-0.000124072
4.18322e-05
-0.000145086
4.06661e-05
-0.000164837
3.83074e-05
-0.000182707
3.47656e-05
-0.000198065
2.99991e-05
-0.000210265
2.39589e-05
-0.00021867
1.66345e-05
-0.000222691
8.09997e-06
-0.000221845
-1.43929e-06
-0.000215816
-1.16681e-05
-0.000204551
-2.20483e-05
-0.00018831
-3.19356e-05
-0.000167717
-4.05795e-05
-0.000143768
-4.72062e-05
-0.000117791
-5.11206e-05
-9.13602e-05
-5.18192e-05
-6.61489e-05
-4.9095e-05
-4.37497e-05
-4.31143e-05
-2.54746e-05
-3.44517e-05
-1.21613e-05
-2.40931e-05
-4.00345e-06
-1.34226e-05
-4.30152e-07
-4.21372e-06
1.14122e-06
-4.61321e-06
8.09387e-06
-1.65428e-05
2.58197e-05
-3.42209e-05
4.12721e-05
-5.62266e-05
5.32909e-05
-8.12578e-05
6.17642e-05
-0.000108153
6.70018e-05
-0.000135892
6.94511e-05
-0.000163579
6.95189e-05
-0.000190398
6.74849e-05
-0.000215574
6.34841e-05
-0.00023834
5.75313e-05
-0.000257912
4.95711e-05
-0.000273494
3.95412e-05
-0.000284302
2.74422e-05
-0.000289609
1.34071e-05
-0.000288816
-2.23249e-06
-0.000281521
-1.89629e-05
-0.000267631
-3.59388e-05
-0.000247427
-5.21397e-05
-0.000221631
-6.63753e-05
-0.000191426
-7.74107e-05
-0.000158423
-8.41242e-05
-0.000124553
-8.56887e-05
-9.19034e-05
-8.17447e-05
-6.24861e-05
-7.25316e-05
-3.79887e-05
-5.89491e-05
-1.95358e-05
-4.2546e-05
-7.50371e-06
-2.54546e-05
-1.41812e-06
-1.02993e-05
-2.76907e-07
-6.10429e-06
1.41982e-05
-2.13357e-05
4.10511e-05
-4.33704e-05
6.33068e-05
-7.032e-05
8.02405e-05
-0.000100604
9.20485e-05
-0.000132889
9.92867e-05
-0.000166036
0.000102597
-0.000199046
0.00010253
-0.000231013
9.94515e-05
-0.000261065
9.35366e-05
-0.000288333
8.47988e-05
-0.000311922
7.31597e-05
-0.000330914
5.85333e-05
-0.000344392
4.09202e-05
-0.000351488
2.05034e-05
-0.000351465
-2.25499e-06
-0.000343772
-2.66564e-05
-0.000328202
-5.15083e-05
-0.000304971
-7.53715e-05
-0.000274803
-9.65426e-05
-0.00023899
-0.000113224
-0.000199369
-0.000123746
-0.000158222
-0.000126836
-0.000118081
-0.000121885
-8.14516e-05
-0.000109162
-5.049e-05
-8.99106e-05
-2.6705e-05
-6.6331e-05
-1.07312e-05
-4.14284e-05
-2.2346e-06
-1.87959e-05
-2.51151e-06
-7.39126e-06
2.15894e-05
-2.55809e-05
5.92408e-05
-5.15734e-05
8.92992e-05
-8.3034e-05
0.000111701
-0.00011811
0.000127125
-0.00015531
0.000136486
-0.0001934
0.000140688
-0.000231324
0.000140454
-0.000268125
0.000136253
-0.000302884
0.000128296
-0.000334671
0.000116585
-0.000362513
0.000101003
-0.000385393
8.14129e-05
-0.000402259
5.7786e-05
-0.000412069
3.03131e-05
-0.000413922
-4.02125e-07
-0.000406986
-3.35917e-05
-0.000390867
-6.76273e-05
-0.000365579
-0.00010066
-0.000331733
-0.000130388
-0.000290633
-0.000154323
-0.000244302
-0.000170077
-0.000195393
-0.000175744
-0.000146982
-0.000170296
-0.00010222
-0.000153924
-6.3917e-05
-0.000128214
-3.41306e-05
-9.61174e-05
-1.38592e-05
-6.16998e-05
-2.91541e-06
-2.97398e-05
-5.42693e-06
-8.51026e-06
3.00997e-05
-2.93359e-05
8.00665e-05
-5.89055e-05
0.000118869
-9.4484e-05
0.00014728
-0.00013397
0.000166611
-0.000175734
0.00017825
-0.000218477
0.000183431
-0.000261118
0.000183095
-0.000302695
0.00017783
-0.000342284
0.000167884
-0.000378936
0.000153238
-0.000411635
0.000133702
-0.000439277
0.000109055
-0.000460671
7.918e-05
-0.000474583
4.42254e-05
-0.000479763
4.77719e-06
-0.000475175
-3.81798e-05
-0.000459975
-8.2827e-05
-0.000433837
-0.000126798
-0.000397099
-0.000167126
-0.000350949
-0.000200473
-0.000297526
-0.000223501
-0.000239882
-0.000233388
-0.000181766
-0.000228413
-0.0001272
-0.000208489
-7.99224e-05
-0.000175491
-4.27984e-05
-0.000133241
-1.73602e-05
-8.7138e-05
-3.59954e-06
-4.35004e-05
-9.02647e-06
-9.49303e-06
3.95927e-05
-3.26673e-05
0.000103241
-6.54644e-05
0.000151666
-0.000104804
0.000186619
-0.000148372
0.000210179
-0.000194429
0.000224306
-0.000241642
0.000230644
-0.000288944
0.000230396
-0.000335408
0.000224294
-0.000380153
0.000212629
-0.000422256
0.000195341
-0.000460692
0.000172138
-0.00049429
0.000142652
-0.000521714
0.000106604
-0.000541481
6.39922e-05
-0.000552006
1.53029e-05
-0.000551773
-3.84129e-05
-0.000539414
-9.51864e-05
-0.000514043
-0.000152169
-0.000475513
-0.000205656
-0.000424706
-0.00025128
-0.000363751
-0.000284455
-0.000296087
-0.000301053
-0.000226263
-0.000298236
-0.000159455
-0.000275297
-0.000100705
-0.000234241
-5.40695e-05
-0.000179877
-2.18991e-05
-0.000119308
-4.47835e-06
-6.09212e-05
-1.35048e-05
-1.03591e-05
4.99518e-05
-3.56226e-05
0.000128504
-7.13236e-05
0.000187367
-0.000114093
0.000229389
-0.000161443
0.000257529
-0.000211558
0.000274422
-0.000263107
0.000282193
-0.000315075
0.000282364
-0.00036662
0.000275839
-0.00041695
0.000262959
-0.00046522
0.00024361
-0.000510438
0.000217357
-0.000551397
0.000183611
-0.00058662
0.000141827
-0.000614349
9.17215e-05
-0.000632576
3.35302e-05
-0.000639204
-3.17849e-05
-0.000632132
-0.000102259
-0.000609695
-0.000174606
-0.000570995
-0.000244355
-0.000516345
-0.000305931
-0.000447649
-0.000353151
-0.000368628
-0.000380074
-0.000284714
-0.000382149
-0.000202525
-0.000357487
-0.000128886
-0.00030788
-6.95954e-05
-0.000239168
-2.82825e-05
-0.000160621
-5.77617e-06
-8.34275e-05
-1.9281e-05
-1.11162e-05
6.10679e-05
-3.82235e-05
0.000155612
-7.65162e-05
0.00022566
-0.000122388
0.000275261
-0.000173217
0.000308357
-0.000227147
0.000328351
-0.000282882
0.000337929
-0.000339503
0.000338985
-0.000396298
0.000332634
-0.000452622
0.000319283
-0.000507761
0.000298749
-0.000560812
0.000270407
-0.00061057
0.00023337
-0.000655443
0.0001867
-0.000693388
0.000129667
-0.000721913
6.20549e-05
-0.000738258
-1.54406e-05
-0.000739392
-0.000101125
-0.000722653
-0.000191344
-0.000686097
-0.000280912
-0.000629124
-0.000362903
-0.000553087
-0.000429189
-0.000461737
-0.000471424
-0.000361331
-0.000482556
-0.000260158
-0.000458659
-0.000167373
-0.000400665
-9.12577e-05
-0.000315283
-3.74354e-05
-0.000214444
-7.74528e-06
-0.000113118
-2.70263e-05
-1.17631e-05
7.28311e-05
-4.04686e-05
0.000184317
-8.10351e-05
0.000266226
-0.000129664
0.00032389
-0.000183633
0.000362326
-0.000241074
0.000385793
-0.000300763
0.000397618
-0.000361912
0.000400133
-0.000423987
0.00039471
-0.000486542
0.000381839
-0.000549055
0.000361262
-0.00061077
0.000332121
-0.000670544
0.000293144
-0.000726709
0.000242865
-0.000776963
0.000179921
-0.000818326
0.000103418
-0.000847265
1.34982e-05
-0.000859806
-8.85847e-05
-0.000852042
-0.000199108
-0.000820706
-0.000312247
-0.000763914
-0.000419696
-0.000682005
-0.000511098
-0.000578313
-0.000575116
-0.000459611
-0.000601257
-0.000335897
-0.000582374
-0.000219161
-0.000517401
-0.000121102
-0.000413342
-5.03893e-05
-0.000285156
-1.06669e-05
-0.00015284
-3.76932e-05
-1.22934e-05
8.51245e-05
-4.23417e-05
0.000214365
-8.48447e-05
0.000308729
-0.000135846
0.000374892
-0.000192545
0.000419025
-0.000253088
0.000446335
-0.00031634
0.000460871
-0.000381681
0.000465473
-0.000448792
0.00046182
-0.000517471
0.000450519
-0.000587442
0.000431233
-0.000658157
0.000402836
-0.000728599
0.000363586
-0.000797092
0.000311358
-0.000861138
0.000243967
-0.000917337
0.000159617
-0.000961344
5.75058e-05
-0.00098835
-6.15795e-05
-0.000993056
-0.000194401
-0.000970696
-0.000334607
-0.00091774
-0.000472652
-0.000832975
-0.000595863
-0.00071863
-0.000689461
-0.000581331
-0.000738555
-0.000432425
-0.00073128
-0.000287012
-0.000662814
-0.000161235
-0.000539119
-6.82721e-05
-0.000378119
-1.48575e-05
-0.000206255
-5.25507e-05
-1.26999e-05
9.78244e-05
-4.38246e-05
0.00024549
-8.79023e-05
0.000352807
-0.000140837
0.000427827
-0.000199762
0.00047795
-0.00026284
0.000509413
-0.000329044
0.000527075
-0.000397931
0.000534361
-0.000469424
0.000533313
-0.000543593
0.000524688
-0.000620447
0.000508086
-0.000699694
0.000482083
-0.000780508
0.0004444
-0.00086129
0.00039214
-0.000939454
0.000322131
-0.00101129
0.000231455
-0.00107194
0.000118151
-0.00111566
-1.78517e-05
-0.00113604
-0.00017403
-0.00112675
-0.00034389
-0.0010824
-0.000517003
-0.000999675
-0.000678592
-0.000878817
-0.000810318
-0.00072522
-0.000892153
-0.000550616
-0.000905884
-0.000372939
-0.000840491
-0.000213642
-0.000698417
-9.22865e-05
-0.000499474
-2.06795e-05
-0.000277862
-7.32302e-05
-1.29812e-05
0.000110806
-4.49161e-05
0.000277425
-9.01896e-05
0.00039808
-0.000144566
0.000482203
-0.000205098
0.000538483
-0.000269961
0.000574276
-0.000338225
0.000595338
-0.000409623
0.000605759
-0.000484314
0.000608004
-0.000562651
0.000603025
-0.000644933
0.000590369
-0.000731158
0.000568307
-0.000820745
0.000533987
-0.000912265
0.00048366
-0.00100319
0.000413061
-0.00108975
0.000318007
-0.00116682
0.000195224
-0.00122805
4.33799e-05
-0.00126631
-0.000135774
-0.00127394
-0.000336261
-0.00124367
-0.00054727
-0.00116971
-0.00075255
-0.00104941
-0.000930622
-0.00088545
-0.00105611
-0.000688264
-0.00110307
-0.0004774
-0.00105135
-0.000279857
-0.000895961
-0.000123649
-0.000655681
-2.85517e-05
-0.000372959
-0.000101782
-1.31502e-05
0.000123956
-4.56556e-05
0.00030993
-9.17552e-05
0.00044418
-0.000147041
0.000537488
-0.000208455
0.000599897
-0.000274152
0.000639973
-0.000343275
0.000664461
-0.000415706
0.00067819
-0.000491814
0.000684113
-0.000572202
0.000683412
-0.000657445
0.000675611
-0.000747825
0.000658687
-0.000843044
0.000629207
-0.000941942
0.000582558
-0.00104224
0.00051336
-0.00114036
0.000416125
-0.00123134
0.000286201
-0.00130884
0.000120882
-0.00136529
-7.93173e-05
-0.00139254
-0.000309016
-0.00138171
-0.0005581
-0.00132446
-0.000809798
-0.00121453
-0.00104055
-0.00105034
-0.0012203
-0.00083864
-0.00131477
-0.000598167
-0.00129183
-0.000360384
-0.00113374
-0.00016344
-0.000852625
-3.89478e-05
-0.000497452
-0.00014073
-1.32438e-05
0.0001372
-4.61538e-05
0.000342841
-9.27665e-05
0.000490793
-0.000148429
0.000593151
-0.000209914
0.000661382
-0.000275308
0.000705366
-0.000343783
0.000732936
-0.000415328
0.000749735
-0.000490468
0.000759253
-0.000569997
0.000762942
-0.000654717
0.000760331
-0.000745165
0.000749135
-0.00084134
0.000725382
-0.000942441
0.000683658
-0.00104663
0.000617546
-0.00115085
0.000520347
-0.00125075
0.000386107
-0.00134074
0.000210867
-0.0014132
-6.85402e-06
-0.00146078
-0.000261442
-0.00147339
-0.000545485
-0.00144068
-0.000842505
-0.00135258
-0.00112866
-0.00120198
-0.00137091
-0.000989372
-0.00152737
-0.000729037
-0.00155216
-0.000453845
-0.00140894
-0.000212318
-0.00109415
-5.23682e-05
-0.000657401
-0.000193098
-1.33365e-05
0.000150536
-4.66298e-05
0.000376134
-9.35711e-05
0.000537734
-0.000149137
0.000648717
-0.000209841
0.000722086
-0.000273646
0.000769171
-0.000339707
0.000798997
-0.000408063
0.000818091
-0.00047933
0.00083052
-0.000554425
0.000838036
-0.0006343
0.000840207
-0.000719702
0.000834536
-0.000810925
0.000816606
-0.000907601
0.000780334
-0.0010085
0.000718449
-0.00111142
0.000623268
-0.00121307
0.000487756
-0.00130894
0.000306727
-0.00139361
7.78247e-05
-0.00145904
-0.000196018
-0.00149649
-0.000508031
-0.00149429
-0.000844703
-0.00143908
-0.00118387
-0.00131778
-0.0014922
-0.00112251
-0.00172264
-0.00085889
-0.00181579
-0.000555983
-0.00171184
-0.000270086
-0.00138005
-6.9287e-05
-0.000858201
-0.000262385
-1.35579e-05
0.000164094
-4.7458e-05
0.000410034
-9.47695e-05
0.000585045
-0.000149897
0.000703844
-0.00020899
0.000781179
-0.000269832
0.000830013
-0.000331526
0.000860692
-0.00039412
0.000880685
-0.000458266
0.000894666
-0.000524931
0.000904701
-0.000595154
0.00091043
-0.000669841
0.000909223
-0.000749583
0.000896348
-0.000834507
0.000865258
-0.000924158
0.0008081
-0.00101742
0.000716527
-0.00111242
0.000582759
-0.00120644
0.000400751
-0.00129579
0.000167177
-0.00137444
-0.000117375
-0.00143491
-0.000447554
-0.00146574
-0.000813879
-0.00145162
-0.00119799
-0.00137429
-0.00156953
-0.00121663
-0.00188031
-0.000971977
-0.00206044
-0.000658953
-0.00202487
-0.00033519
-0.00170381
-9.00892e-05
-0.0011033
-0.000352474
-1.41189e-05
0.000178213
-4.92318e-05
0.000445147
-9.73008e-05
0.000633114
-0.000151867
0.000758411
-0.000208596
0.000837908
-0.000265072
0.000886489
-0.000320349
0.000915969
-0.000374482
0.000934818
-0.000428134
0.000948318
-0.000482285
0.000958851
-0.000538019
0.000966164
-0.00059638
0.000967584
-0.000658261
0.00095823
-0.00072434
0.000931337
-0.000795036
0.000878795
-0.000870477
0.000791968
-0.000950431
0.000662713
-0.00103417
0.000484489
-0.00112024
0.000253245
-0.001205
-3.26126e-05
-0.00128337
-0.000369185
-0.00134531
-0.000751942
-0.00137553
-0.00116777
-0.00135253
-0.00159253
-0.00125094
-0.0019819
-0.00104998
-0.00226139
-0.000751398
-0.00232345
-0.000404268
-0.00205094
-0.000115038
-0.00139253
-0.000467512
-1.53567e-05
0.00019357
-5.28563e-05
0.000482647
-0.000102551
0.000682809
-0.000156715
0.000812575
-0.000210435
0.000891628
-0.00026114
0.000937194
-0.000307917
0.000962746
-0.000350894
0.000977794
-0.000390778
0.000988203
-0.000428575
0.000996648
-0.00046542
0.00100301
-0.000502502
0.00100467
-0.000541045
0.000996772
-0.000582316
0.000972607
-0.000627657
0.000924136
-0.000678494
0.000842806
-0.000736248
0.000720467
-0.00080218
0.00055042
-0.000876982
0.000328046
-0.000960435
5.08406e-05
-0.00104895
-0.000280672
-0.00113588
-0.000665005
-0.00120782
-0.00109583
-0.00124281
-0.00155754
-0.00121007
-0.00201464
-0.00107559
-0.00239588
-0.00081988
-0.00257916
-0.000472045
-0.00239878
-0.000144297
-0.00172028
-0.000611809
-1.78182e-05
0.000211388
-5.96974e-05
0.000524526
-0.000112492
0.000735604
-0.000166703
0.000866786
-0.000216818
0.000941742
-0.000260291
0.000980667
-0.000296446
0.000998901
-0.000325638
0.00100699
-0.00034873
0.00101129
-0.000366824
0.00101474
-0.000381157
0.00101734
-0.000393111
0.00101662
-0.000404272
0.00100793
-0.000416516
0.000984851
-0.000432092
0.000939713
-0.000453694
0.000864407
-0.000484238
0.000751011
-0.000526781
0.000592964
-0.000584088
0.000385354
-0.00065817
0.000124923
-0.000748521
-0.000190321
-0.000851515
-0.000562011
-0.000957311
-0.000990035
-0.00104656
-0.00146829
-0.00108729
-0.00197391
-0.00103593
-0.00244723
-0.000851069
-0.00276402
-0.000531634
-0.00271821
-0.000177961
-0.00207395
-0.00078977
-2.24229e-05
0.000233811
-7.18257e-05
0.000573928
-0.000129867
0.000793645
-0.000184717
0.000921635
-0.000230458
0.000987484
-0.000264972
0.00101518
-0.000288186
0.00102211
-0.000300954
0.00101975
-0.000304477
0.00101482
-0.000300079
0.00101034
-0.000289188
0.00100645
-0.00027343
0.00100086
-0.000254782
0.000989285
-0.000235704
0.000965772
-0.000219205
0.000923214
-0.000209249
0.000854451
-0.000209847
0.00075161
-0.000225545
0.000608661
-0.000260741
0.00042055
-0.000319156
0.000183338
-0.000403096
-0.000106382
-0.000511938
-0.00045317
-0.000640225
-0.000861748
-0.000773765
-0.00133475
-0.000884067
-0.00186361
-0.000923938
-0.00240736
-0.000833456
-0.0028545
-0.000574993
-0.00297668
-0.000215878
-0.00243307
-0.00100565
-3.0786e-05
0.000264597
-9.24091e-05
0.000635552
-0.000158369
0.000859605
-0.000214128
0.000977394
-0.000253998
0.00102735
-0.000277045
0.00103823
-0.000284378
0.00102945
-0.000277739
0.00101311
-0.000258913
0.000995993
-0.000229599
0.00098103
-0.000191506
0.000968358
-0.000146549
0.000955907
-9.70735e-05
0.000939809
-4.60959e-05
0.000914795
2.50783e-06
0.00087461
4.48516e-05
0.000812107
7.52265e-05
0.000721235
8.81404e-05
0.000595747
7.80598e-05
0.00043063
3.98768e-05
0.000221521
-3.03758e-05
-3.6129e-05
-0.000134764
-0.000348781
-0.000272789
-0.000723722
-0.000436855
-0.00117068
-0.000606029
-0.00169443
-0.000736572
-0.00227682
-0.000757181
-0.00283389
-0.000592751
-0.00314111
-0.000256927
-0.00276889
-0.00126257
-4.58396e-05
0.000310436
-0.000126264
0.000715976
-0.000202608
0.000935948
-0.000258037
0.00103282
-0.000288587
0.0010579
-0.000295777
0.00104542
-0.000282732
0.0010164
-0.00025257
0.000982953
-0.000207938
0.00095136
-0.000151056
0.000924148
-8.39784e-05
0.000901281
-8.88524e-06
0.000880813
7.16144e-05
0.000859309
0.000154268
0.000832141
0.00023504
0.000793838
0.000308723
0.000738425
0.000369824
0.000660134
0.000412131
0.00055344
0.000429356
0.000413406
0.000415503
0.000235374
0.000364856
1.45176e-05
0.000273012
-0.000256937
0.000136837
-0.000587547
-4.30958e-05
-0.00099075
-0.000256485
-0.00148105
-0.000470294
-0.00206301
-0.000611609
-0.00269258
-0.00057261
-0.00318011
-0.000297226
-0.00304428
-0.0015598
-7.2956e-05
0.000383392
-0.000180309
0.000823329
-0.000266973
0.00102261
-0.00031651
0.00108236
-0.000329707
0.0010711
-0.000312512
0.00102822
-0.000271147
0.000975037
-0.000210657
0.000922463
-0.000134813
0.000875517
-4.64325e-05
0.000835767
5.20883e-05
0.00080276
0.000158433
0.000774469
0.000269954
0.000747788
0.00038337
0.000718725
0.000494578
0.00068263
0.000598545
0.000634458
0.000689522
0.000569157
0.000761141
0.000481821
0.000806734
0.000367813
0.000819567
0.000222541
0.000793102
4.09824e-05
0.000720485
-0.00018432
0.000595341
-0.000462403
0.000411889
-0.000807298
0.000169563
-0.00123872
-0.000114398
-0.00177905
-0.000380647
-0.00242633
-0.000495969
-0.00306478
-0.000327233
-0.00321301
-0.00188703
-0.000121739
0.000505131
-0.000262476
0.000964066
-0.000350133
0.00111027
-0.000377325
0.00110955
-0.000355106
0.00104888
-0.000296639
0.000969757
-0.00021245
0.000890848
-0.000109929
0.000819942
6.01528e-06
0.000759573
0.000132014
0.000709768
0.000265704
0.00066907
0.000404935
0.000635238
0.000547378
0.000605344
0.000690175
0.000575929
0.000829686
0.000543119
0.000961366
0.000502778
0.00107982
0.000450704
0.00117889
0.000382746
0.00125185
0.000294853
0.00129149
0.000182906
0.00129002
4.24484e-05
0.00123915
-0.000133449
0.00112943
-0.000352678
0.000949998
-0.000627869
0.000690358
-0.000979079
0.000350402
-0.00143909
-2.90733e-05
-0.00204685
-0.000332479
-0.00276138
-0.000333019
-0.00321247
-0.00222005
-0.000208156
0.000713287
-0.000371641
0.00112755
-0.000423074
0.0011617
-0.000386384
0.00107286
-0.000291461
0.00095396
-0.000161425
0.00083972
-1.12711e-05
0.000740694
0.000149974
0.000658697
0.000317148
0.000592398
0.000487439
0.000539477
0.000659175
0.000497335
0.000831134
0.000463279
0.00100197
0.000434505
0.00116983
0.000408069
0.00133207
0.000380886
0.00148507
0.000349772
0.00162426
0.000311516
0.00174408
0.000262928
0.00183807
0.000200857
0.0018988
0.00012218
0.00191735
2.38977e-05
0.00188446
-0.000100561
0.00178803
-0.000256248
0.00161349
-0.000453326
0.00134317
-0.000708758
0.000959827
-0.00105575
0.000467772
-0.0015548
-2.75687e-05
-0.00226604
-0.000272835
-0.00296721
-0.00249289
-0.000343603
0.00105689
-0.000435843
0.00121979
-0.000346653
0.00107251
-0.00016137
0.000887579
6.498e-05
0.00072761
0.000304041
0.000600659
0.000541724
0.000503012
0.000771869
0.000428551
0.000992476
0.000371792
0.00120353
0.000328419
0.00140581
0.000295058
0.00160014
0.000268951
0.00178696
0.000247687
0.00196599
0.000229039
0.002136
0.000210868
0.00229469
0.000191085
0.00243856
0.000167647
0.00256293
0.000138561
0.00266199
0.000101797
0.00272884
5.53309e-05
0.00275377
-1.03843e-06
0.00272776
-7.45454e-05
0.00263652
-0.00016501
0.00246355
-0.000280359
0.00218679
-0.000431994
0.00177747
-0.000646434
0.00120542
-0.000982749
0.00051492
-0.00157554
-2.44199e-05
-0.00242787
-0.00251731
-0.000303529
0.00136042
-5.19062e-05
0.000968169
0.000375951
0.000644654
0.000795992
0.000467538
0.00117765
0.000345956
0.00151695
0.000261354
0.00181658
0.000203382
0.00208181
0.000163325
0.00231852
0.000135076
0.00253215
0.000114792
0.00272722
9.9985e-05
0.00290726
8.89093e-05
0.00307472
8.02304e-05
0.00323091
7.28534e-05
0.00337595
6.58226e-05
0.00350877
5.82675e-05
0.00362703
4.93846e-05
0.00372716
3.8435e-05
0.00380416
2.47948e-05
0.00385145
8.036e-06
0.00386427
-1.38504e-05
0.00383015
-4.04285e-05
0.00373775
-7.26062e-05
0.00357127
-0.000113882
0.00330766
-0.000168383
0.0029113
-0.000250075
0.0023233
-0.000394749
0.00148786
-0.000740096
0.00050552
-0.00144553
-0.00201179
0.00136042
0.00232859
0.00297324
0.00344078
0.00378674
0.00404809
0.00425147
0.0044148
0.00454987
0.00466467
0.00476465
0.00485356
0.00493379
0.00500664
0.00507247
0.00513073
0.00518012
0.00521855
0.00524335
0.00525138
0.00523753
0.0051971
0.0051245
0.00501062
0.00484223
0.00459216
0.00419741
0.00345731
0.00201179
)
;

boundaryField
{
    movingWall
    {
        type            calculated;
        value           uniform 0;
    }
    fixedWalls
    {
        type            calculated;
        value           uniform 0;
    }
    frontAndBack
    {
        type            empty;
        value           nonuniform 0();
    }
}


// ************************************************************************* //
