/*--------------------------------*- C++ -*----------------------------------*\
  =========                 |
  \\      /  F ield         | OpenFOAM: The Open Source CFD Toolbox
   \\    /   O peration     | Website:  https://openfoam.org
    \\  /    A nd           | Version:  7
     \\/     M anipulation  |
\*---------------------------------------------------------------------------*/
FoamFile
{
    version     2.0;
    format      ascii;
    class       surfaceScalarField;
    location    "6.7";
    object      phi;
}
// * * * * * * * * * * * * * * * * * * * * * * * * * * * * * * * * * * * * * //

dimensions      [0 3 -1 0 0 0 0];

internalField   nonuniform List<scalar> 
1740
(
4.69069e-07
-4.69078e-07
-5.94225e-07
1.0633e-06
-3.28776e-06
2.69353e-06
-7.25341e-06
3.96565e-06
-1.20741e-05
4.82067e-06
-1.73924e-05
5.31829e-06
-2.29351e-05
5.54271e-06
-2.84979e-05
5.56284e-06
-3.3919e-05
5.42104e-06
-3.9054e-05
5.13506e-06
-4.37582e-05
4.70417e-06
-4.78745e-05
4.11629e-06
-5.12302e-05
3.35577e-06
-5.36414e-05
2.41114e-06
-5.49244e-05
1.283e-06
-5.49158e-05
-8.6179e-09
-5.34913e-05
-1.42447e-06
-5.06009e-05
-2.8904e-06
-4.62897e-05
-4.3112e-06
-4.07178e-05
-5.57184e-06
-3.4168e-05
-6.54988e-06
-2.70361e-05
-7.13188e-06
-1.98044e-05
-7.23172e-06
-1.29971e-05
-6.80728e-06
-7.12542e-06
-5.87166e-06
-2.62769e-06
-4.49773e-06
2.0082e-07
-2.82851e-06
1.31967e-06
-1.11885e-06
9.37494e-07
3.82176e-07
9.37494e-07
-1.06415e-06
5.95072e-07
-5.5108e-06
5.50995e-06
-1.32944e-05
1.04771e-05
-2.37523e-05
1.44236e-05
-3.6119e-05
1.71873e-05
-4.96724e-05
1.88717e-05
-6.37938e-05
1.96641e-05
-7.79678e-05
1.97369e-05
-9.17533e-05
1.92066e-05
-0.000104747
1.8129e-05
-0.000116554
1.65106e-05
-0.000126764
1.4327e-05
-0.000134955
1.1546e-05
-0.000140694
8.15037e-06
-0.000143572
4.16139e-06
-0.000143253
-3.2832e-07
-0.000139486
-5.19117e-06
-0.000132212
-1.01643e-05
-0.000121581
-1.49423e-05
-0.000107994
-1.91584e-05
-9.21159e-05
-2.24282e-05
-7.48478e-05
-2.44e-05
-5.72691e-05
-2.48104e-05
-4.05405e-05
-2.35359e-05
-2.57809e-05
-2.06313e-05
-1.393e-05
-1.63486e-05
-5.60587e-06
-1.11527e-05
-9.849e-07
-5.73982e-06
4.52232e-07
-1.05495e-06
1.38972e-06
-2.86065e-06
3.45572e-06
-1.10147e-05
1.3664e-05
-2.36888e-05
2.31512e-05
-3.99223e-05
3.06571e-05
-5.86969e-05
3.5962e-05
-7.90589e-05
3.92337e-05
-0.000100167
4.07718e-05
-0.000121289
4.08595e-05
-0.000141779
3.9696e-05
-0.000161031
3.73817e-05
-0.000178455
3.39346e-05
-0.00019345
2.93213e-05
-0.000205401
2.34976e-05
-0.000213703
1.64524e-05
-0.000217792
8.25061e-06
-0.000217202
-9.18695e-07
-0.00021162
-1.07733e-05
-0.000200977
-2.08074e-05
-0.000185499
-3.04201e-05
-0.000165756
-3.89016e-05
-0.000142673
-4.5511e-05
-0.000117502
-4.95707e-05
-9.17403e-05
-5.05725e-05
-6.69968e-05
-4.82793e-05
-4.48268e-05
-4.28013e-05
-2.65394e-05
-3.46361e-05
-1.30114e-05
-2.46806e-05
-4.52234e-06
-1.42289e-05
-6.13665e-07
-4.96363e-06
7.76057e-07
-4.51769e-06
7.97342e-06
-1.61795e-05
2.53258e-05
-3.3447e-05
4.04187e-05
-5.4929e-05
5.21392e-05
-7.93509e-05
6.03839e-05
-0.000105575
6.54574e-05
-0.000132603
6.78002e-05
-0.00015956
6.78167e-05
-0.000185656
6.57912e-05
-0.000210143
6.18692e-05
-0.000232287
5.60788e-05
-0.000251343
4.83768e-05
-0.000266553
3.87082e-05
-0.000277172
2.70714e-05
-0.000282507
1.35848e-05
-0.000281979
-1.44643e-06
-0.000275194
-1.75579e-05
-0.000262045
-3.39565e-05
-0.000242777
-4.96884e-05
-0.000218051
-6.36275e-05
-0.00018897
-7.4592e-05
-0.00015705
-8.1491e-05
-0.000124128
-8.34947e-05
-9.22055e-05
-8.02016e-05
-6.32386e-05
-7.17682e-05
-3.88974e-05
-5.89772e-05
-2.03387e-05
-4.32393e-05
-8.02445e-06
-2.65432e-05
-1.61003e-06
-1.1378e-05
-8.33969e-07
-5.95633e-06
1.39298e-05
-2.08062e-05
4.01757e-05
-4.22807e-05
6.18932e-05
-6.8536e-05
7.83945e-05
-9.8027e-05
8.98748e-05
-0.000129447
9.68775e-05
-0.000161681
0.000100034
-0.000193756
9.98917e-05
-0.00022479
9.68257e-05
-0.000253946
9.10251e-05
-0.000280391
8.25233e-05
-0.000303273
7.12591e-05
-0.000321722
5.71571e-05
-0.000334867
4.0216e-05
-0.00034188
2.05979e-05
-0.000342058
-1.26834e-06
-0.000334864
-2.4752e-05
-0.000320089
-4.87311e-05
-0.000297915
-7.18623e-05
-0.000269009
-9.25334e-05
-0.000234575
-0.000109026
-0.000196342
-0.000119724
-0.000156477
-0.00012336
-0.000117401
-0.000119277
-8.15354e-05
-0.000107634
-5.09952e-05
-8.95174e-05
-2.73041e-05
-6.69304e-05
-1.11752e-05
-4.2672e-05
-2.41293e-06
-2.01404e-05
-3.2469e-06
-7.1916e-06
2.11213e-05
-2.48863e-05
5.78704e-05
-5.01692e-05
8.71761e-05
-8.07652e-05
0.00010899
-0.000114864
0.000123973
-0.000151003
0.000133017
-0.000187975
0.000137006
-0.000224747
0.000136664
-0.000260389
0.000132468
-0.000294017
0.000124652
-0.000324739
0.000113245
-0.000351632
9.81526e-05
-0.000373731
7.92553e-05
-0.000390039
5.65241e-05
-0.000399573
3.01321e-05
-0.000401454
6.12825e-07
-0.000394925
-3.12804e-05
-0.000379579
-6.40777e-05
-0.000355415
-9.60259e-05
-0.000322996
-0.000124952
-0.000283539
-0.000148484
-0.000238944
-0.000164318
-0.000191728
-0.000170576
-0.000144822
-0.000166184
-0.000101253
-0.000151203
-6.37525e-05
-0.000127018
-3.43652e-05
-9.63177e-05
-1.41511e-05
-6.28861e-05
-3.05989e-06
-3.12316e-05
-6.30679e-06
-8.26156e-06
2.93829e-05
-2.84844e-05
7.80932e-05
-5.7202e-05
0.000115894
-9.17519e-05
0.00014354
-0.000130081
0.000162302
-0.00017059
0.000173526
-0.000212005
0.000178422
-0.000253267
0.000177925
-0.000293438
0.000172639
-0.000331626
0.00016284
-0.000366923
0.000148543
-0.000398364
0.000129594
-0.000424903
0.000105795
-0.000445418
7.70391e-05
-0.000458742
4.34563e-05
-0.000463707
5.57767e-06
-0.000459315
-3.56732e-05
-0.000444773
-7.86192e-05
-0.00041976
-0.000121039
-0.000384581
-0.000160132
-0.000340342
-0.000192724
-0.000289051
-0.000215609
-0.000233597
-0.00022603
-0.000177541
-0.00022224
-0.000124732
-0.000204012
-7.87775e-05
-0.000172972
-4.24829e-05
-0.000132612
-1.74139e-05
-8.79551e-05
-3.68797e-06
-4.49575e-05
-9.99476e-06
-9.20015e-06
3.8583e-05
-3.16748e-05
0.000100568
-6.3491e-05
0.00014771
-0.000101652
0.000181701
-0.000143895
0.000204545
-0.000188511
0.000218142
-0.000234187
0.000224098
-0.000279873
0.000223611
-0.000324663
0.000217429
-0.000367703
0.00020588
-0.00040811
0.00018895
-0.000444911
0.000166395
-0.000477001
0.000137885
-0.000503127
0.000103164
-0.000521895
6.22244e-05
-0.000531822
1.55046e-05
-0.000531474
-3.60207e-05
-0.000519563
-9.05304e-05
-0.000495242
-0.000145359
-0.000458356
-0.000197018
-0.000409717
-0.000241363
-0.000351321
-0.000274004
-0.000286417
-0.000290935
-0.000219323
-0.000289333
-0.000154978
-0.000268357
-9.82222e-05
-0.000229728
-5.29882e-05
-0.000177846
-2.16134e-05
-0.00011933
-4.48412e-06
-6.20868e-05
-1.44789e-05
-1.00295e-05
4.86125e-05
-3.45134e-05
0.000125052
-6.91261e-05
0.000182323
-0.000110589
0.000223164
-0.000156465
0.000250421
-0.000204968
0.000266645
-0.00025478
0.00027391
-0.000304896
0.000273727
-0.000354486
0.00026702
-0.000402782
0.000254176
-0.000448974
0.000235141
-0.000492124
0.000209545
-0.000531099
0.00017686
-0.00056452
0.000136585
-0.000590744
8.84487e-05
-0.000607895
3.26551e-05
-0.000613999
-2.99164e-05
-0.000607074
-9.74558e-05
-0.000585532
-0.000166901
-0.000548497
-0.000234053
-0.000496231
-0.000293629
-0.000430513
-0.000339722
-0.000354854
-0.000366593
-0.000274418
-0.000369769
-0.000195515
-0.00034726
-0.000124684
-0.000300559
-6.7512e-05
-0.000235018
-2.75441e-05
-0.000159298
-5.66866e-06
-8.39622e-05
-2.01475e-05
-1.07604e-05
5.93729e-05
-3.70318e-05
0.000151323
-7.41588e-05
0.00021945
-0.000118628
0.000267633
-0.000167866
0.000299659
-0.000220039
0.000318817
-0.000273858
0.000327729
-0.000328403
0.000328272
-0.000382969
0.000321586
-0.000436925
0.000308132
-0.000489589
0.000287805
-0.000540114
0.000260069
-0.000587379
0.000224126
-0.000629905
0.000179111
-0.000665793
0.000124337
-0.000692714
5.95765e-05
-0.000708071
-1.45591e-05
-0.000708991
-9.65357e-05
-0.000692923
-0.00018297
-0.000657973
-0.000269003
-0.000603519
-0.000348083
-0.000530801
-0.00041244
-0.000443366
-0.000454028
-0.000347178
-0.000465958
-0.000250164
-0.000444274
-0.000161099
-0.000389624
-8.79415e-05
-0.000308175
-3.61293e-05
-0.00021111
-7.49239e-06
-0.000112599
-2.76399e-05
-1.13952e-05
7.07681e-05
-3.9239e-05
0.000179167
-7.86019e-05
0.000258813
-0.000125774
0.000314806
-0.000178077
0.000351962
-0.000233659
0.000374399
-0.00029129
0.00038536
-0.000350176
0.000387158
-0.00040978
0.00038119
-0.000469663
0.000368015
-0.000529332
0.000347475
-0.000588091
0.000318828
-0.000644892
0.000280926
-0.000698199
0.000232419
-0.00074588
0.000172017
-0.000785147
9.88431e-05
-0.000812662
1.29564e-05
-0.000824628
-8.45698e-05
-0.000817273
-0.000190325
-0.0007874
-0.000298876
-0.000733126
-0.000402357
-0.000654709
-0.000490857
-0.000555309
-0.000553427
-0.000441424
-0.000579844
-0.000322664
-0.000563034
-0.000210561
-0.000501727
-0.000116363
-0.000402373
-4.8413e-05
-0.00027906
-1.02383e-05
-0.000150774
-3.78783e-05
-1.19305e-05
8.26986e-05
-4.11292e-05
0.000208366
-8.24395e-05
0.000300123
-0.000131985
0.000364351
-0.000187
0.000406978
-0.000245637
0.000433035
-0.000306751
0.000446475
-0.000369705
0.000450112
-0.000434171
0.000445655
-0.000499951
0.000433796
-0.000566798
0.000414322
-0.000634231
0.00038626
-0.00070134
0.000348035
-0.000766601
0.00029768
-0.000827707
0.000233123
-0.000881465
0.000152602
-0.000923743
5.52345e-05
-0.000949905
-5.84084e-05
-0.000954776
-0.000185454
-0.000933661
-0.000319991
-0.000883044
-0.000452974
-0.000801673
-0.000572228
-0.000691671
-0.00066343
-0.00055946
-0.000712055
-0.00041604
-0.000706453
-0.000276021
-0.000641747
-0.000154966
-0.000523427
-6.55503e-05
-0.000368476
-1.42274e-05
-0.000202097
-5.21057e-05
-1.23623e-05
9.50608e-05
-4.26938e-05
0.000238697
-8.5647e-05
0.000343076
-0.000137192
0.000415896
-0.000194485
0.000464271
-0.000255688
0.000494238
-0.000319757
0.000510544
-0.000386229
0.000516584
-0.000455013
0.000514439
-0.000526187
0.00050497
-0.000599794
0.000487929
-0.00067562
0.000462087
-0.000752964
0.000425379
-0.000830392
0.000375108
-0.000905521
0.000308252
-0.000974852
0.000221933
-0.00103371
0.000114088
-0.00107651
-1.55999e-05
-0.00109689
-0.000165074
-0.00108859
-0.00032829
-0.00104621
-0.000495359
-0.00096643
-0.000652008
-0.0008495
-0.00078036
-0.00070074
-0.000860814
-0.000531671
-0.000875522
-0.000359784
-0.000813634
-0.000205873
-0.000677339
-8.87886e-05
-0.00048556
-1.98284e-05
-0.000271057
-7.19341e-05
-1.26914e-05
0.000107752
-4.39383e-05
0.000269944
-8.82202e-05
0.000387358
-0.000141346
0.000469022
-0.000200383
0.000523307
-0.000263494
0.00055735
-0.000329733
0.000576783
-0.000398813
0.000585664
-0.000470885
0.000586511
-0.000546314
0.000580399
-0.000625451
0.000567065
-0.000708383
0.000545019
-0.000794671
0.000511667
-0.000883064
0.000463502
-0.000971239
0.000396426
-0.00105559
0.000306287
-0.00113117
0.000189661
-0.00119165
4.48831e-05
-0.00122993
-0.000126795
-0.0012383
-0.00031992
-0.00120946
-0.000524196
-0.00113765
-0.000723815
-0.00102033
-0.000897687
-0.000860295
-0.00102085
-0.000667996
-0.00106782
-0.000462716
-0.00101891
-0.000270816
-0.000869239
-0.000119413
-0.000636963
-2.74703e-05
-0.000362999
-9.94044e-05
-1.29317e-05
0.000120684
-4.49058e-05
0.000301918
-9.02149e-05
0.000432667
-0.000144471
0.000523278
-0.000204617
0.000583453
-0.000268792
0.000621526
-0.000336125
0.000644116
-0.000406487
0.000656025
-0.000480247
0.000660272
-0.000558038
0.00065819
-0.000640503
0.00064953
-0.000728033
0.000632549
-0.000820484
0.000604117
-0.000916873
0.000559892
-0.0010151
0.000494657
-0.00111173
0.000402917
-0.00120186
0.000279789
-0.00127912
0.000122142
-0.00133582
-7.00917e-05
-0.00136365
-0.00029209
-0.00135365
-0.000534202
-0.00129749
-0.000779969
-0.00118912
-0.00100606
-0.00102727
-0.0011827
-0.000819001
-0.00127609
-0.0005831
-0.00125481
-0.000350581
-0.00110176
-0.000158608
-0.000828936
-3.76445e-05
-0.000483963
-0.000137049
-1.31196e-05
0.000133804
-4.57053e-05
0.000334504
-9.17965e-05
0.000478758
-0.000146732
0.000578213
-0.00020727
0.000643991
-0.000271484
0.00068574
-0.000338539
0.000711171
-0.000408423
0.000725909
-0.000481681
0.00073353
-0.000559158
0.000735667
-0.00064174
0.000732112
-0.00073009
0.000720899
-0.000824365
0.000698392
-0.000923929
0.000659456
-0.00102708
0.000597813
-0.00113086
0.00050669
-0.00123087
0.000379801
-0.00132136
0.000212634
-0.0013945
3.04509e-06
-0.00144264
-0.000243948
-0.00145554
-0.000521305
-0.00142281
-0.000812701
-0.0013346
-0.00109427
-0.00118427
-0.00133302
-0.000972919
-0.00148744
-0.000715269
-0.00151246
-0.000444137
-0.00137289
-0.000207181
-0.00106589
-5.0883e-05
-0.000640261
-0.000187932
-1.33271e-05
0.000147131
-4.65482e-05
0.000367725
-9.3299e-05
0.000525509
-0.000148514
0.000633428
-0.000208684
0.000704161
-0.000271759
0.000748815
-0.000336897
0.000776309
-0.000404154
0.000793166
-0.000474188
0.000803564
-0.000547981
0.000809461
-0.000626589
0.00081072
-0.000710887
0.000805197
-0.000801321
0.000788825
-0.000897657
0.000755792
-0.000998763
0.000698919
-0.00110243
0.000610357
-0.00120525
0.000482621
-0.00130246
0.000309845
-0.00138836
8.89471e-05
-0.00145446
-0.000177849
-0.00149182
-0.00048395
-0.00148864
-0.00081588
-0.00143174
-0.00115117
-0.00130856
-0.0014562
-0.00111199
-0.00168401
-0.000848483
-0.00177597
-0.000547577
-0.0016738
-0.000265125
-0.00134834
-6.77081e-05
-0.000837678
-0.00025564
-1.36792e-05
0.00016081
-4.7795e-05
0.000401841
-9.52968e-05
0.000573011
-0.000150515
0.000688646
-0.000209562
0.000763207
-0.000270215
0.000809469
-0.000331592
0.000837686
-0.000393776
0.00085535
-0.000457474
0.000867262
-0.000523735
0.000875722
-0.000593702
0.000880687
-0.000668402
0.000879897
-0.000748546
0.00086897
-0.000834354
0.0008416
-0.000925401
0.000789966
-0.0010205
0.00070546
-0.00111762
0.000579735
-0.00121373
0.000405957
-0.00130476
0.000179972
-0.0013842
-9.84042e-05
-0.00144439
-0.000423762
-0.00147361
-0.000786661
-0.00145664
-0.00116814
-0.00137564
-0.0015372
-0.00121427
-0.00184538
-0.000966937
-0.0020233
-0.000653251
-0.00198748
-0.000331057
-0.00167054
-8.85647e-05
-0.00108017
-0.000344205
-1.43806e-05
0.00017519
-5.00182e-05
0.000437479
-9.86897e-05
0.000621683
-0.000153829
0.000743785
-0.000211055
0.000820434
-0.000267949
0.000866363
-0.00032359
0.000893327
-0.000378081
0.00090984
-0.000432149
0.000921331
-0.000486855
0.000930427
-0.000543374
0.000937206
-0.000602839
0.000939362
-0.000666218
0.000932349
-0.000734222
0.000909603
-0.000807234
0.000862979
-0.000885267
0.000783492
-0.000967885
0.000662354
-0.00105407
0.000492138
-0.00114205
0.000267951
-0.0012275
-1.29503e-05
-0.00130556
-0.000345702
-0.00136562
-0.000726599
-0.00139241
-0.00114135
-0.00136467
-0.00156494
-0.00125766
-0.00195239
-0.00105165
-0.00222931
-0.000749658
-0.00228947
-0.000401705
-0.00201849
-0.00011377
-0.00136811
-0.000457975
-1.57601e-05
0.000190951
-5.40953e-05
0.000475814
-0.00010481
0.000672398
-0.000160044
0.000799019
-0.000214827
0.000875216
-0.000266587
0.000918123
-0.000314443
0.000941184
-0.000358573
0.00095397
-0.000399744
0.000962502
-0.000439026
0.000969709
-0.000477612
0.000975792
-0.000516734
0.000978484
-0.000557625
0.00097324
-0.00060152
0.000953498
-0.000649662
0.00091112
-0.000703315
0.000837146
-0.000763723
0.000722762
-0.000831893
0.000560308
-0.000908179
0.000344238
-0.000992508
7.13786e-05
-0.0010804
-0.000257806
-0.00116539
-0.000641615
-0.00123385
-0.00107288
-0.00126389
-0.00153491
-0.00122504
-0.00199124
-0.00108407
-0.00237028
-0.00082278
-0.00255077
-0.000471689
-0.00236958
-0.000143517
-0.00169628
-0.000601492
-1.8354e-05
0.000209305
-6.13568e-05
0.000518817
-0.000115565
0.000726606
-0.00017132
0.000854774
-0.000223049
0.000926945
-0.000268205
0.000963278
-0.000306139
0.000979118
-0.000337247
0.000985078
-0.000362436
0.000987691
-0.000382838
0.000990111
-0.000399702
0.000992656
-0.000414389
0.00099317
-0.000428427
0.000987279
-0.000443595
0.000968666
-0.000461996
0.000929521
-0.000486107
0.000861256
-0.000518775
0.00075543
-0.000562859
0.000604392
-0.000620989
0.000402368
-0.000695111
0.0001455
-0.000784637
-0.00016828
-0.0008857
-0.000540551
-0.000988348
-0.000970236
-0.00107311
-0.00145014
-0.00110804
-0.00195632
-0.00104994
-0.00242837
-0.000858373
-0.00274234
-0.000533785
-0.00269417
-0.000177867
-0.00205219
-0.000779359
-2.30677e-05
0.000232372
-7.38285e-05
0.000569577
-0.000133612
0.000786389
-0.000190418
0.000911581
-0.000238267
0.000974794
-0.000275032
0.00100004
-0.000300656
0.00100474
-0.000316018
0.00100044
-0.000322328
0.000994001
-0.000320898
0.000988681
-0.000313111
0.000984869
-0.00030051
0.00098057
-0.000284947
0.000971715
-0.000268733
0.000952452
-0.000254758
0.000915547
-0.000246493
0.000852992
-0.00024835
0.000757287
-0.000264537
0.000620578
-0.000299486
0.000437317
-0.000356879
0.000202893
-0.000439623
-8.55354e-05
-0.000546404
-0.000433769
-0.000671925
-0.000844715
-0.000801787
-0.00132028
-0.000907272
-0.00185083
-0.000941158
-0.00239449
-0.000844008
-0.00283949
-0.00057945
-0.00295873
-0.000216581
-0.00241506
-0.00099594
-3.14966e-05
0.000263869
-9.46202e-05
0.000632701
-0.00016254
0.000854309
-0.000220556
0.000969597
-0.000262916
0.00101715
-0.000288666
0.00102579
-0.000298916
0.00101499
-0.0002954
0.000996924
-0.000279878
0.000978479
-0.000253991
0.000962793
-0.000219349
0.000950227
-0.000177726
0.000938947
-0.000131286
0.000925275
-8.28106e-05
0.000903977
-3.59063e-05
0.000868643
4.89509e-06
0.00081219
3.52131e-05
0.000726969
4.88332e-05
0.000606958
4.0048e-05
0.000446102
3.39117e-06
0.00023955
-6.41951e-05
-1.79492e-05
-0.000166194
-0.000331771
-0.000301724
-0.000709185
-0.00046291
-0.0011591
-0.000628472
-0.00168527
-0.000754344
-0.00226861
-0.000769241
-0.00282459
-0.000598817
-0.00312915
-0.000258387
-0.00275549
-0.00125433
-4.65447e-05
0.000310414
-0.000128474
0.00071463
-0.000206833
0.000932668
-0.000264649
0.00102741
-0.000297893
0.0010504
-0.000308055
0.00103595
-0.000298233
0.00100517
-0.000271509
0.000970201
-0.00023047
0.00093744
-0.000177245
0.000909568
-0.00011375
0.000886732
-4.19747e-05
0.000867171
3.56736e-05
0.000847627
0.000116149
0.000823501
0.000195568
0.000789223
0.000269172
0.000738586
0.000330993
0.000665148
0.000374978
0.000562973
0.000394589
0.000426491
0.000383569
0.00025057
0.000335679
2.99409e-05
0.000246406
-0.000242498
0.000112622
-0.000575401
-6.5009e-05
-0.000981466
-0.000275833
-0.00147445
-0.000486334
-0.00205811
-0.000623346
-0.00268758
-0.000579276
-0.00317322
-0.000299238
-0.00303553
-0.00155356
-7.35479e-05
0.000383961
-0.000182221
0.000823303
-0.000270736
0.00102118
-0.000322555
0.00107923
-0.0003384
0.00106624
-0.000324177
0.00102173
-0.00028606
0.000967053
-0.000229036
0.000913177
-0.000156791
0.000865196
-7.20465e-05
0.000824823
2.2985e-05
0.000791701
0.000126148
0.000764008
0.000235046
0.00073873
0.000346618
0.000711929
0.000456958
0.000678883
0.000561197
0.000634347
0.0006535
0.000572846
0.000727398
0.000489074
0.000775965
0.000377925
0.000792128
0.000234407
0.000768832
5.32367e-05
0.000699134
-0.000172799
0.000576443
-0.00045271
0.000395028
-0.00080005
0.000154576
-0.001234
-0.000127287
-0.00177625
-0.000390547
-0.00242432
-0.00050219
-0.00306158
-0.000329456
-0.00320827
-0.00188302
-0.00012208
0.000506041
-0.000263728
0.000964951
-0.000352814
0.00111027
-0.000381894
0.00110831
-0.000361966
0.00104632
-0.00030614
0.000965904
-0.000224885
0.000885798
-0.000125532
0.000813824
-1.29201e-05
0.000752584
0.000109743
0.000702161
0.00024019
0.000661253
0.000376484
0.000627714
0.00051651
0.000598704
0.000657632
0.000570807
0.000796406
0.000540109
0.000928422
0.000502331
0.00104826
0.000453004
0.00114967
0.00038767
0.00122565
0.000301938
0.00126867
0.00019139
0.00127055
5.13571e-05
0.00122271
-0.000124962
0.00111552
-0.000345515
0.000938051
-0.000622584
0.000679921
-0.000975865
0.000341321
-0.00143765
-3.67236e-05
-0.00204627
-0.00033742
-0.00276088
-0.000334972
-0.00321071
-0.00221799
-0.000208137
0.000714178
-0.000371923
0.00112874
-0.00042413
0.00116248
-0.000388667
0.00107285
-0.000295383
0.000953032
-0.000167349
0.000837871
-1.951e-05
0.000737958
0.000139157
0.000655157
0.000303564
0.000588177
0.00047097
0.000534754
0.000639855
0.000492369
0.000809163
0.000458406
0.000977748
0.000430119
0.00114396
0.000404596
0.00130534
0.00037873
0.00145842
0.000349249
0.00159864
0.000312781
0.00172038
0.000265934
0.00181699
0.000205328
0.00188076
0.000127618
0.00190247
2.96491e-05
0.0018725
-9.49898e-05
0.00177857
-0.000251583
0.00160596
-0.000449979
0.00133701
-0.000706918
0.000954659
-0.0010553
0.000463614
-0.00155523
-3.06872e-05
-0.00226658
-0.000274238
-0.00296716
-0.00249223
-0.000343241
0.00105742
-0.000435158
0.00122065
-0.000346058
0.00107338
-0.000161241
0.000888032
6.42561e-05
0.000727535
0.000302106
0.000600021
0.000538237
0.000501827
0.00076653
0.000426864
0.000985031
0.000369677
0.0011938
0.000325981
0.00139372
0.000292449
0.00158577
0.00026636
0.00177055
0.000245338
0.00194798
0.00022717
0.002117
0.000209706
0.00227544
0.000190808
0.00241988
0.000168346
0.0025456
0.000140214
0.00264666
0.000104267
0.00271594
5.83388e-05
0.00274363
1.95974e-06
0.00272017
-7.15358e-05
0.00263119
-0.000162599
0.00245997
-0.000278759
0.00218436
-0.000431312
0.00177567
-0.000646604
0.00120392
-0.000983479
0.00051367
-0.00157633
-2.52195e-05
-0.00242827
-0.00251745
-0.000303124
0.00136054
-5.10142e-05
0.000968545
0.000377308
0.000645053
0.000797511
0.000467829
0.00117899
0.000346057
0.00151777
0.000261236
0.00181655
0.000203048
0.00208062
0.000162796
0.00231591
0.000134386
0.00252791
0.000113985
0.00272123
9.91219e-05
0.00289953
8.80625e-05
0.00306539
7.94824e-05
0.00322027
7.229e-05
0.00336445
6.55226e-05
0.00349697
5.82891e-05
0.00361556
4.97514e-05
0.00371665
3.91258e-05
0.00379518
2.57362e-05
0.00384443
9.09487e-06
0.00385908
-1.26923e-05
0.00382705
-3.95086e-05
0.00373636
-7.19022e-05
0.00357112
-0.000113526
0.0033082
-0.000168393
0.002912
-0.000250396
0.00232377
-0.00039525
0.001488
-0.000740565
0.00050553
-0.0014458
-0.00201192
0.00136054
0.00232909
0.00297414
0.00344197
0.00378803
0.00404926
0.00425231
0.00441511
0.00454949
0.00466348
0.0047626
0.00485066
0.00493014
0.00500243
0.00506796
0.00512625
0.005176
0.00521512
0.00524086
0.00524995
0.00523726
0.00519775
0.00512585
0.00501233
0.00484393
0.00459354
0.00419829
0.00345772
0.00201192
)
;

boundaryField
{
    movingWall
    {
        type            calculated;
        value           uniform 0;
    }
    fixedWalls
    {
        type            calculated;
        value           uniform 0;
    }
    frontAndBack
    {
        type            empty;
        value           nonuniform 0();
    }
}


// ************************************************************************* //
