/*--------------------------------*- C++ -*----------------------------------*\
  =========                 |
  \\      /  F ield         | OpenFOAM: The Open Source CFD Toolbox
   \\    /   O peration     | Website:  https://openfoam.org
    \\  /    A nd           | Version:  7
     \\/     M anipulation  |
\*---------------------------------------------------------------------------*/
FoamFile
{
    version     2.0;
    format      ascii;
    class       surfaceScalarField;
    location    "4.4";
    object      phi;
}
// * * * * * * * * * * * * * * * * * * * * * * * * * * * * * * * * * * * * * //

dimensions      [0 3 -1 0 0 0 0];

internalField   nonuniform List<scalar> 
1740
(
3.39006e-07
-3.39001e-07
-6.67698e-07
1.0067e-06
-3.07433e-06
2.40663e-06
-6.54501e-06
3.47068e-06
-1.07059e-05
4.16092e-06
-1.52396e-05
4.53368e-06
-1.99056e-05
4.66594e-06
-2.45291e-05
4.62352e-06
-2.89804e-05
4.45137e-06
-3.31551e-05
4.1747e-06
-3.69585e-05
3.80339e-06
-4.02956e-05
3.33702e-06
-4.30654e-05
2.76984e-06
-4.51607e-05
2.09533e-06
-4.64711e-05
1.31041e-06
-4.68904e-05
4.19213e-07
-4.63268e-05
-5.63564e-07
-4.4717e-05
-1.60981e-06
-4.2041e-05
-2.67597e-06
-3.83376e-05
-3.70341e-06
-3.37171e-05
-4.62049e-06
-2.83698e-05
-5.34735e-06
-2.25666e-05
-5.80317e-06
-1.66518e-05
-5.91485e-06
-1.10258e-05
-5.62592e-06
-6.12028e-06
-4.90555e-06
-2.35872e-06
-3.76156e-06
-8.69396e-08
-2.27178e-06
5.8713e-07
-6.7407e-07
5.87128e-07
-1.00476e-06
6.65758e-07
-4.94657e-06
4.94851e-06
-1.17009e-05
9.16096e-06
-2.06624e-05
1.24322e-05
-3.11421e-05
1.46406e-05
-4.24978e-05
1.58893e-05
-5.41896e-05
1.63578e-05
-6.57852e-05
1.62191e-05
-7.69381e-05
1.56043e-05
-8.73588e-05
1.45955e-05
-9.67879e-05
1.32325e-05
-0.000104976
1.15249e-05
-0.000111672
9.46611e-06
-0.000116624
7.04705e-06
-0.000119583
4.26943e-06
-0.00012032
1.15666e-06
-0.000118653
-2.23066e-06
-0.000114466
-5.79719e-06
-0.000107748
-9.3941e-06
-9.86213e-05
-1.28298e-05
-8.73679e-05
-1.58739e-05
-7.44419e-05
-1.82734e-05
-6.04688e-05
-1.97762e-05
-4.62238e-05
-2.01599e-05
-3.25858e-05
-1.92639e-05
-2.04686e-05
-1.70227e-05
-1.07208e-05
-1.35093e-05
-3.99203e-06
-9.00056e-06
-6.00503e-07
-4.0656e-06
-1.33751e-08
-2.51077e-06
3.17653e-06
-9.50998e-06
1.19477e-05
-2.02737e-05
1.99247e-05
-3.39353e-05
2.60938e-05
-4.95847e-05
3.029e-05
-6.63779e-05
3.26825e-05
-8.35863e-05
3.35662e-05
-0.000100605
3.32374e-05
-0.000116931
3.1931e-05
-0.000132138
2.98023e-05
-0.00014584
2.69342e-05
-0.000157671
2.33555e-05
-0.00016727
1.90657e-05
-0.000174283
1.40602e-05
-0.000178369
8.35468e-06
-0.000179221
2.00948e-06
-0.000176596
-4.85557e-06
-0.000170357
-1.20371e-05
-0.000160506
-1.92444e-05
-0.000147235
-2.61013e-05
-0.000130948
-3.21603e-05
-0.000112288
-3.69338e-05
-9.21238e-05
-3.99402e-05
-7.15216e-05
-4.07621e-05
-5.16755e-05
-3.911e-05
-3.38094e-05
-3.48889e-05
-1.90482e-05
-2.82705e-05
-8.27014e-06
-1.97786e-05
-1.93426e-06
-1.04015e-05
-1.94764e-06
-3.82808e-06
7.00461e-06
-1.36018e-05
2.17214e-05
-2.79785e-05
3.43015e-05
-4.57399e-05
4.38551e-05
-6.5761e-05
5.03111e-05
-8.70413e-05
5.39628e-05
-0.000108724
5.52486e-05
-0.000130089
5.46026e-05
-0.000150532
5.23742e-05
-0.00016953
4.88003e-05
-0.000186609
4.4013e-05
-0.000201319
3.80654e-05
-0.00021322
3.09664e-05
-0.000221879
2.27195e-05
-0.000226884
1.33595e-05
-0.000227865
2.99042e-06
-0.000224528
-8.19202e-06
-0.000216707
-1.98585e-05
-0.000204405
-3.15459e-05
-0.000187852
-4.2655e-05
-0.000167537
-5.24745e-05
-0.00014424
-6.0231e-05
-0.000119017
-6.51634e-05
-9.31609e-05
-6.66182e-05
-6.81175e-05
-6.41533e-05
-4.53644e-05
-5.7642e-05
-2.62654e-05
-4.73695e-05
-1.19215e-05
-3.41226e-05
-3.05104e-06
-1.92719e-05
-4.99868e-06
-4.91111e-06
1.19157e-05
-1.7096e-05
3.39063e-05
-3.46483e-05
5.18537e-05
-5.59904e-05
6.51973e-05
-7.97765e-05
7.40972e-05
-0.000104865
7.90512e-05
-0.0001303
8.06833e-05
-0.000155285
7.95879e-05
-0.00017915
7.62395e-05
-0.000201312
7.09624e-05
-0.000221239
6.39399e-05
-0.000238422
5.52484e-05
-0.000252361
4.49047e-05
-0.000262558
3.29168e-05
-0.000268534
1.93358e-05
-0.000269852
4.30812e-06
-0.000266154
-1.18894e-05
-0.00025722
-2.87928e-05
-0.000243022
-4.57441e-05
-0.00022379
-6.18875e-05
-0.000200062
-7.62018e-05
-0.000172722
-8.75714e-05
-0.000142989
-9.48958e-05
-0.000112377
-9.72309e-05
-8.25852e-05
-9.39447e-05
-5.53626e-05
-8.48646e-05
-3.23342e-05
-7.03979e-05
-1.48459e-05
-5.16109e-05
-3.86219e-06
-3.02556e-05
-8.86087e-06
-5.79295e-06
1.77087e-05
-2.00433e-05
4.81567e-05
-4.03688e-05
7.21792e-05
-6.48574e-05
8.96859e-05
-9.19478e-05
0.000101188
-0.000120365
0.000107469
-0.000149072
0.00010939
-0.000177219
0.000107735
-0.000204098
0.000103118
-0.000229092
9.59562e-05
-0.000251634
8.64825e-05
-0.000271178
7.4792e-05
-0.000287173
6.08996e-05
-0.000299062
4.48064e-05
-0.000306294
2.65672e-05
-0.000308344
6.35853e-06
-0.000304763
-1.54701e-05
-0.000295236
-3.83205e-05
-0.000279655
-6.13251e-05
-0.000258202
-8.33398e-05
-0.000231423
-0.000102981
-0.000200277
-0.000118717
-0.000166148
-0.000129025
-0.000130793
-0.000132586
-9.62241e-05
-0.000128514
-6.45282e-05
-0.000116561
-3.76572e-05
-9.72689e-05
-1.72353e-05
-7.20328e-05
-4.43766e-06
-4.30533e-05
-1.32985e-05
-6.52773e-06
2.42364e-05
-2.25655e-05
6.41945e-05
-4.53387e-05
9.49524e-05
-7.26369e-05
0.000116984
-0.000102698
0.000131248
-0.000134123
0.000138894
-0.000165806
0.000141073
-0.000196863
0.000138792
-0.000226567
0.000132822
-0.00025429
0.000123679
-0.000279452
0.000111644
-0.00030148
9.68206e-05
-0.000319786
7.92057e-05
-0.000333753
5.87727e-05
-0.00034274
3.55548e-05
-0.000346115
9.73354e-06
-0.000343293
-1.82921e-05
-0.000333808
-4.78054e-05
-0.00031741
-7.77235e-05
-0.000294165
-0.000106585
-0.000264566
-0.00013258
-0.000229614
-0.000153669
-0.00019086
-0.000167779
-0.000150357
-0.000173089
-0.000110521
-0.00016835
-7.38967e-05
-0.000153185
-4.28733e-05
-0.000128292
-1.94161e-05
-9.549e-05
-4.88723e-06
-5.75821e-05
-1.81858e-05
-7.1674e-06
3.14038e-05
-2.4798e-05
8.18251e-05
-4.97868e-05
0.000119941
-7.96595e-05
0.000146857
-0.000112471
0.00016406
-0.000146711
0.000173134
-0.000181217
0.000175579
-0.000215084
0.000172659
-0.000247589
0.000165327
-0.000278112
0.000154202
-0.000306078
0.00013961
-0.000330906
0.000121649
-0.000351976
0.000100276
-0.000368611
7.54077e-05
-0.000380073
4.70165e-05
-0.000385586
1.52467e-05
-0.000384384
-1.94939e-05
-0.00037578
-5.64097e-05
-0.000359292
-9.4211e-05
-0.000334779
-0.000131098
-0.000302588
-0.00016477
-0.000263706
-0.000192551
-0.000219837
-0.000211649
-0.000173387
-0.000219539
-0.000127305
-0.000214432
-8.47711e-05
-0.000195719
-4.8789e-05
-0.000164274
-2.1785e-05
-0.000122494
-5.32658e-06
-7.40405e-05
-2.35123e-05
-7.75416e-06
3.9158e-05
-2.68623e-05
0.000100933
-5.39269e-05
0.000147006
-8.62351e-05
0.000179165
-0.000121674
0.000199499
-0.000158636
0.000210096
-0.000195914
0.000212857
-0.000232603
0.000209348
-0.000267999
0.000200723
-0.000301513
0.000187716
-0.000332598
0.000170695
-0.000360685
0.000149736
-0.000385139
0.000124731
-0.000405227
9.54957e-05
-0.000420105
6.18939e-05
-0.000428828
2.39698e-05
-0.000430399
-1.79232e-05
-0.00042382
-6.29884e-05
-0.000408271
-0.00010976
-0.000383265
-0.000156105
-0.000348871
-0.000199164
-0.000305941
-0.000235481
-0.000256286
-0.000261304
-0.000202712
-0.000273112
-0.000148861
-0.000268283
-9.87961e-05
-0.000245784
-5.64138e-05
-0.000206657
-2.48206e-05
-0.000154087
-5.8816e-06
-9.29795e-05
-2.93939e-05
-8.32016e-06
4.74781e-05
-2.88576e-05
0.000121471
-5.79387e-05
0.000176087
-9.26246e-05
0.000213851
-0.000130646
0.00023752
-0.000170307
0.000249757
-0.000210375
0.000252925
-0.00024996
0.000248933
-0.000288401
0.000239164
-0.000325167
0.000224483
-0.000359767
0.000205294
-0.000391672
0.000181641
-0.000420258
0.000153317
-0.000444756
0.000119994
-0.000464219
8.13563e-05
-0.000477515
3.72658e-05
-0.000483387
-1.20509e-05
-0.0004804
-6.59747e-05
-0.000467274
-0.000122887
-0.000442993
-0.000180385
-0.00040714
-0.000235018
-0.000360237
-0.000282383
-0.000304074
-0.000317467
-0.000241863
-0.000335323
-0.000178113
-0.000332034
-0.00011811
-0.000305786
-6.70657e-05
-0.000257701
-2.91396e-05
-0.000192013
-6.70804e-06
-0.000115411
-3.6102e-05
-8.8891e-06
5.63672e-05
-3.0861e-05
0.000143442
-6.19636e-05
0.00020719
-9.90315e-05
0.000250919
-0.000139642
0.000278131
-0.000182023
0.000292138
-0.000224926
0.000295829
-0.0002675
0.000291506
-0.000309154
0.000280818
-0.000349447
0.000264776
-0.000387979
0.000243826
-0.000424303
0.000217965
-0.000457849
0.000186863
-0.000487849
0.000149993
-0.000513279
0.000106786
-0.000532798
5.67854e-05
-0.00054495
1.00647e-07
-0.000547627
-6.32972e-05
-0.000539022
-0.000131492
-0.000517335
-0.000202072
-0.000481363
-0.00027099
-0.000430999
-0.000332747
-0.000367762
-0.000380704
-0.00029518
-0.000407905
-0.000218785
-0.000408429
-0.000145514
-0.000379057
-8.25021e-05
-0.000320713
-3.55723e-05
-0.000238943
-8.01629e-06
-0.000142967
-4.41183e-05
-9.47863e-06
6.58458e-05
-3.29319e-05
0.000166896
-6.61102e-05
0.000240368
-0.000105607
0.000290416
-0.000148843
0.000321366
-0.00019397
0.000337266
-0.000239745
0.000341604
-0.000285374
0.000337134
-0.000330367
0.000325812
-0.00037441
0.000308819
-0.000417243
0.000286658
-0.000458554
0.000259277
-0.000497889
0.000226197
-0.000534543
0.000186648
-0.000567479
0.000139721
-0.000595248
8.45546e-05
-0.000615764
2.0617e-05
-0.000626854
-5.2207e-05
-0.00062559
-0.000132757
-0.000609182
-0.00021848
-0.000575279
-0.000304893
-0.000522706
-0.00038532
-0.000452306
-0.000451104
-0.00036767
-0.000492542
-0.000275403
-0.000500695
-0.000184559
-0.000469901
-0.000105027
-0.000400245
-4.52329e-05
-0.000298737
-1.00946e-05
-0.000178105
-5.42129e-05
-1.01035e-05
7.59493e-05
-3.51203e-05
0.000191913
-7.04668e-05
0.000275714
-0.000112467
0.000332415
-0.000158367
0.000367267
-0.000206249
0.000385148
-0.000254881
0.000390236
-0.000303552
0.000385805
-0.000351907
0.000374167
-0.000399799
0.000356711
-0.00044716
0.000334019
-0.000493882
0.000306
-0.0005397
0.000272015
-0.000584061
0.000231009
-0.00062599
0.00018165
-0.000663934
0.000122499
-0.000695608
5.22913e-05
-0.0007181
-2.9715e-05
-0.000727595
-0.000123262
-0.000719987
-0.000226089
-0.000691348
-0.000333532
-0.000638891
-0.000437777
-0.000562182
-0.000527813
-0.000464367
-0.000590357
-0.000352942
-0.00061212
-0.000239442
-0.000583401
-0.000137515
-0.000502171
-5.95646e-05
-0.000376688
-1.33268e-05
-0.000224343
-6.75396e-05
-1.07795e-05
8.67288e-05
-3.74785e-05
0.000218612
-7.51209e-05
0.000313357
-0.000119713
0.000377008
-0.000168304
0.000415857
-0.000218896
0.000435739
-0.000270281
0.000441621
-0.000321852
0.000437376
-0.000373418
0.000425733
-0.000425043
0.000408336
-0.000476907
0.000385883
-0.000529173
0.000358266
-0.000581854
0.000324695
-0.00063465
0.000283806
-0.000686765
0.000233765
-0.000736675
0.000172409
-0.000781882
9.74986e-05
-0.000818921
7.32368e-06
-0.000842889
-9.92933e-05
-0.000848225
-0.000220753
-0.00082904
-0.000352717
-0.000780354
-0.000486463
-0.000699701
-0.000608466
-0.000588964
-0.000701095
-0.000455907
-0.000745178
-0.000314548
-0.00072476
-0.000183283
-0.000633436
-8.03428e-05
-0.000479628
-1.82042e-05
-0.000286482
-8.57438e-05
-1.15291e-05
9.82579e-05
-4.00761e-05
0.000247159
-8.01837e-05
0.000353464
-0.000127471
0.000424295
-0.000178749
0.000467136
-0.000231929
0.000488919
-0.000285833
0.000495524
-0.000339975
0.000491519
-0.000394356
0.000480114
-0.000449285
0.000463265
-0.000505234
0.000441832
-0.000562699
0.000415731
-0.000622053
0.000384049
-0.000683357
0.00034511
-0.000746116
0.000296523
-0.000808978
0.000235271
-0.000869414
0.000157934
-0.000923277
6.11872e-05
-0.000965098
-5.74728e-05
-0.000987541
-0.00019831
-0.000982624
-0.000357634
-0.000942734
-0.000526353
-0.000862579
-0.00068862
-0.000741641
-0.000822033
-0.00058671
-0.000900108
-0.000413522
-0.000897948
-0.000245744
-0.000801214
-0.000109629
-0.000615744
-2.53401e-05
-0.00037077
-0.000111084
-1.23885e-05
0.000110646
-4.30202e-05
0.00027779
-8.58224e-05
0.000396266
-0.000135926
0.000474399
-0.000189849
0.000521058
-0.000245392
0.000544463
-0.000301413
0.000551545
-0.000357558
0.000547664
-0.000414036
0.000536591
-0.000471417
0.000520647
-0.000530492
0.000500906
-0.000592124
0.000477363
-0.000657098
0.000449023
-0.00072591
0.000413923
-0.000798481
0.000369094
-0.00087378
0.00031057
-0.000949389
0.000233543
-0.00102103
0.000132827
-0.00108247
3.9652e-06
-0.00112514
-0.00015564
-0.00113912
-0.00034365
-0.00111405
-0.000551423
-0.00104119
-0.000761477
-0.000916332
-0.000946895
-0.000743345
-0.00107309
-0.00053772
-0.00110357
-0.000327735
-0.0010112
-0.000149648
-0.000793831
-3.5495e-05
-0.000484923
-0.000146579
-1.34173e-05
0.000124064
-4.64819e-05
0.000310855
-9.22998e-05
0.000442084
-0.000145371
0.00052747
-0.00020185
0.000577537
-0.000259407
0.000602021
-0.000316936
0.000609073
-0.000374226
0.000604954
-0.00043169
0.000594056
-0.00049016
0.000579117
-0.000550728
0.000561474
-0.000614616
0.00054125
-0.00068302
0.000517427
-0.000756896
0.000487799
-0.000836646
0.000448844
-0.000921697
0.000395621
-0.00100999
0.00032184
-0.00109749
0.000220322
-0.0011776
8.40751e-05
-0.00124135
-9.18884e-05
-0.00127749
-0.00030751
-0.00127333
-0.000555586
-0.00121656
-0.000818239
-0.00109816
-0.0010653
-0.000916685
-0.00125457
-0.000684029
-0.00133623
-0.000430339
-0.00126489
-0.000202511
-0.00102166
-4.96077e-05
-0.000637826
-0.000196187
-1.47133e-05
0.000138777
-5.07328e-05
0.000346874
-0.000100026
0.000491378
-0.000156264
0.000583707
-0.000215154
0.000636427
-0.000274222
0.000661089
-0.000332406
0.000667257
-0.000389644
0.000662192
-0.000446544
0.000650956
-0.00050416
0.000636733
-0.000563833
0.000621147
-0.000627075
0.000604492
-0.000695424
0.000585777
-0.000770245
0.000562619
-0.000852418
0.000531018
-0.000941924
0.000485127
-0.00103732
0.000417232
-0.00113517
0.00031818
-0.00122963
0.000178532
-0.00131164
-9.88548e-06
-0.00137039
-0.000248761
-0.00139173
-0.000534242
-0.00136048
-0.00084949
-0.00126232
-0.00116346
-0.00108828
-0.00142861
-0.000842303
-0.0015822
-0.000551077
-0.00155611
-0.000269609
-0.00130313
-6.88019e-05
-0.000838634
-0.000264988
-1.64366e-05
0.000155214
-5.61995e-05
0.000386637
-0.000109628
0.000544806
-0.000169291
0.000643371
-0.000230365
0.000697501
-0.000290241
0.000720964
-0.000347934
0.000724951
-0.000403544
0.000717803
-0.000457857
0.000705269
-0.000512087
0.000690963
-0.000567733
0.000676793
-0.000626473
0.000663232
-0.000690053
0.000649357
-0.000760119
0.000632686
-0.000837958
0.000608857
-0.000924132
0.0005713
-0.00101802
0.000511122
-0.00111732
0.000417478
-0.0012175
0.000278718
-0.00131163
8.42378e-05
-0.00138915
-0.000171238
-0.00143726
-0.000486131
-0.0014392
-0.000847549
-0.00137607
-0.00122659
-0.00123023
-0.00157445
-0.000993496
-0.00181894
-0.000681633
-0.00186798
-0.000350491
-0.00163427
-9.43129e-05
-0.00109481
-0.000359301
-1.88505e-05
0.000174064
-6.35464e-05
0.000431333
-0.000122035
0.000603294
-0.000185431
0.000706767
-0.000248318
0.000760388
-0.000308014
0.000780661
-0.000363697
0.000780634
-0.000415673
0.000769778
-0.000464888
0.000754484
-0.000512657
0.000738732
-0.00056052
0.000724657
-0.000610174
0.000712885
-0.000663398
0.000702581
-0.000721951
0.000691239
-0.000787401
0.000674306
-0.000860869
0.000644769
-0.000942713
0.000592965
-0.00103214
0.000506906
-0.0011268
0.000373374
-0.00122239
0.000179835
-0.00131098
-8.2656e-05
-0.00138255
-0.000414562
-0.001421
-0.000809094
-0.00140495
-0.00124264
-0.00130892
-0.00167048
-0.00111029
-0.00201757
-0.000806197
-0.00217207
-0.000441302
-0.00199916
-0.000127277
-0.00140884
-0.000486579
-2.24001e-05
0.000196464
-7.38128e-05
0.000482746
-0.000138609
0.000668091
-0.000206018
0.000774176
-0.000270049
0.000824418
-0.000328128
0.00083874
-0.000379761
0.000832267
-0.000425558
0.000815575
-0.000466653
0.000795579
-0.000504413
0.000776491
-0.000540325
0.000760569
-0.000575965
0.000748525
-0.000612985
0.000739601
-0.000653095
0.000731349
-0.000698001
0.000719212
-0.000749317
0.000696085
-0.000808422
0.00065207
-0.00087625
0.000574734
-0.000953
0.000450123
-0.00103782
0.000264656
-0.00112637
5.89081e-06
-0.00121331
-0.000327617
-0.00128532
-0.000737085
-0.00132182
-0.00120614
-0.00129264
-0.00169965
-0.00116161
-0.00214861
-0.000902143
-0.00243153
-0.000533373
-0.00236793
-0.000168331
-0.00177388
-0.000654909
-2.78655e-05
0.00022433
-8.86403e-05
0.000543521
-0.000161304
0.000740755
-0.00023275
0.000845621
-0.000296636
0.000888305
-0.000350876
0.00089298
-0.000395609
0.000877
-0.000431936
0.000851902
-0.00046126
0.000824903
-0.000485013
0.000800244
-0.000504587
0.000780144
-0.000521363
0.0007653
-0.000536763
0.000755002
-0.000552331
0.000746917
-0.000569801
0.000736681
-0.000591177
0.000717462
-0.000618775
0.000679669
-0.000655205
0.000611163
-0.000703193
0.000498112
-0.000765022
0.000326485
-0.000842916
8.37847e-05
-0.000933071
-0.000237462
-0.00102933
-0.000640826
-0.00111508
-0.00112039
-0.00116034
-0.00165439
-0.00112004
-0.00218891
-0.00094373
-0.00260784
-0.000612883
-0.00269878
-0.00021691
-0.00216985
-0.000871819
-3.66703e-05
0.000261
-0.000110648
0.000617498
-0.000192833
0.00082294
-0.000267534
0.000920322
-0.00032871
0.000949481
-0.000375463
0.000939733
-0.000409072
0.000910609
-0.000431435
0.000874265
-0.000444394
0.000837862
-0.000449537
0.000805387
-0.000448206
0.000778813
-0.000441596
0.000758689
-0.000430887
0.000744293
-0.000417415
0.000733445
-0.000402858
0.000722125
-0.000389498
0.000704101
-0.000380401
0.000670572
-0.000379569
0.000610331
-0.000391897
0.00051044
-0.000422869
0.000357457
-0.00047792
0.000138835
-0.000559673
-0.000155709
-0.000667093
-0.000533406
-0.000790774
-0.00099671
-0.000906537
-0.00153863
-0.000968201
-0.00212725
-0.000907325
-0.00266872
-0.000662051
-0.00294405
-0.000270162
-0.00256174
-0.00114198
-5.14933e-05
0.000312493
-0.000143986
0.00070999
-0.00023666
0.000915614
-0.000311774
0.000995437
-0.00036507
0.00100278
-0.000398048
0.000972711
-0.000413888
0.000926449
-0.000415726
0.000876103
-0.000406113
0.000828249
-0.000386967
0.000786241
-0.000359704
0.00075155
-0.000325422
0.000724407
-0.000285113
0.000703984
-0.000239921
0.000688253
-0.000191371
0.000673575
-0.000141892
0.000654622
-9.50162e-05
0.000623696
-5.57387e-05
0.000571054
-3.05104e-05
0.000485212
-2.68184e-05
0.000353765
-5.26164e-05
0.000164633
-0.00011541
-9.29149e-05
-0.000220039
-0.000428777
-0.00036559
-0.00085116
-0.00053827
-0.00136595
-0.000699624
-0.00196589
-0.000774526
-0.00259382
-0.000660758
-0.00305782
-0.000321367
-0.00290113
-0.00146335
-7.7417e-05
0.00038991
-0.000194884
0.000827458
-0.000296031
0.00101676
-0.000363841
0.00106325
-0.000398839
0.00103777
-0.000406847
0.00098072
-0.000394002
0.000913604
-0.00036525
0.000847352
-0.000324174
0.000787172
-0.000273221
0.000735288
-0.000214015
0.000692343
-0.000147636
0.000658028
-7.49212e-05
0.00063127
3.23779e-06
0.000610094
8.53523e-05
0.00059146
0.000169317
0.000570657
0.000251553
0.00054146
0.000326819
0.000495788
0.000387992
0.000424039
0.000426119
0.000315638
0.000430931
0.000159821
0.000391789
-5.37729e-05
0.000299471
-0.000336459
0.000147131
-0.00069882
-6.38926e-05
-0.00115493
-0.000311861
-0.00171793
-0.000529754
-0.00237592
-0.000586363
-0.00300121
-0.000357861
-0.00312963
-0.00182121
-0.000123868
0.000513778
-0.000270911
0.0009745
-0.000369022
0.00111487
-0.000410602
0.00110483
-0.000406459
0.00103363
-0.000369533
0.000943794
-0.000310169
0.00085424
-0.000235624
0.000772807
-0.000150653
0.000702201
-5.82125e-05
0.000642848
3.99548e-05
0.000594176
0.000142869
0.000555114
0.000249957
0.000524182
0.000360646
0.000499404
0.000474032
0.000478075
0.000588245
0.000456443
0.000700135
0.00042957
0.000804743
0.000391181
0.000895
0.000333782
0.000961651
0.000248987
0.000993455
0.000128017
0.000977699
-3.80171e-05
0.00090159
-0.00026035
0.000751767
-0.000548998
0.000517775
-0.000920935
0.000202752
-0.0014029
-0.000148882
-0.00202429
-0.000409383
-0.00274071
-0.000362384
-0.00317663
-0.00218359
-0.000207221
0.000720999
-0.000371726
0.00113901
-0.000427875
0.00117102
-0.000399641
0.00107659
-0.00031673
0.00095072
-0.000202042
0.000829106
-7.037e-05
0.000722567
6.93352e-05
0.000633102
0.000212013
0.000559523
0.000355052
0.000499809
0.000497329
0.000451899
0.000638584
0.00041386
0.000778952
0.000383814
0.000918584
0.000359773
0.00105724
0.000339419
0.00119382
0.000319866
0.00132589
0.000297493
0.00144926
0.000267816
0.00155752
0.000225517
0.00164188
0.000164627
0.00169086
7.90365e-05
0.00169083
-3.79849e-05
0.00162651
-0.000196032
0.00148017
-0.000402655
0.00123262
-0.000673379
0.000867604
-0.00103789
0.000394335
-0.00155102
-8.0205e-05
-0.00226617
-0.000295959
-0.00296088
-0.00247955
-0.000340059
0.00106106
-0.000428425
0.00122737
-0.000338437
0.00108103
-0.000155261
0.000893417
6.58816e-05
0.000729577
0.000296712
0.000598276
0.000523135
0.000496144
0.00073902
0.000417217
0.000942399
0.000356143
0.00113341
0.000308795
0.00131322
0.00027209
0.00148341
0.000243675
0.00164559
0.000221629
0.00180113
0.000204231
0.00195081
0.000189742
0.00209446
0.000176221
0.00223056
0.000161389
0.00235583
0.000142544
0.00246482
0.00011653
0.00254966
7.97829e-05
0.00259965
2.9045e-05
0.00260174
-4.00683e-05
0.00253853
-0.000132829
0.00239042
-0.000254536
0.00213296
-0.00041592
0.00173661
-0.000641548
0.00117287
-0.000987272
0.000490054
-0.00158336
-3.9024e-05
-0.0024318
-0.00251858
-0.000300131
0.00136119
-4.40301e-05
0.00097127
0.000388698
0.000648305
0.000811481
0.000470634
0.00119333
0.000347725
0.00153015
0.000261459
0.00182455
0.000201744
0.00208179
0.000159979
0.0023078
0.000130131
0.00250817
0.00010843
0.00268776
9.24948e-05
0.00285072
8.07156e-05
0.00300043
7.1924e-05
0.00313947
6.51905e-05
0.00326953
5.96797e-05
0.0033912
5.45437e-05
0.00350374
4.88502e-05
0.00360474
4.15511e-05
0.00368979
3.14807e-05
0.00375203
1.75392e-05
0.00378215
-1.0796e-06
0.00377074
-2.86505e-05
0.00370013
-6.22254e-05
0.00355211
-0.000106512
0.00330147
-0.000165278
0.00291141
-0.00025149
0.00232397
-0.00039983
0.00148664
-0.000746028
0.000504471
-0.00144964
-0.00201411
0.00136119
0.00233246
0.00298076
0.0034514
0.00379912
0.00406058
0.00426233
0.0044223
0.00455244
0.00466087
0.00475336
0.00483408
0.004906
0.00497119
0.00503087
0.00508541
0.00513426
0.00517582
0.0052073
0.00522484
0.00522376
0.00519511
0.00513288
0.00502637
0.00486109
0.0046096
0.00420977
0.00346374
0.00201411
)
;

boundaryField
{
    movingWall
    {
        type            calculated;
        value           uniform 0;
    }
    fixedWalls
    {
        type            calculated;
        value           uniform 0;
    }
    frontAndBack
    {
        type            empty;
        value           nonuniform 0();
    }
}


// ************************************************************************* //
