/*--------------------------------*- C++ -*----------------------------------*\
  =========                 |
  \\      /  F ield         | OpenFOAM: The Open Source CFD Toolbox
   \\    /   O peration     | Website:  https://openfoam.org
    \\  /    A nd           | Version:  7
     \\/     M anipulation  |
\*---------------------------------------------------------------------------*/
FoamFile
{
    version     2.0;
    format      ascii;
    class       volScalarField;
    location    "2.2";
    object      p;
}
// * * * * * * * * * * * * * * * * * * * * * * * * * * * * * * * * * * * * * //

dimensions      [0 2 -2 0 0 0 0];

internalField   nonuniform List<scalar> 
900
(
-1.0621e-08
-0.000123399
-0.00023423
-0.000307531
-0.000318059
-0.0002562
-0.000121543
8.2836e-05
0.000352976
0.000684808
0.00107416
0.0015165
0.00200653
0.00253796
0.0031032
0.00369325
0.00429761
0.00490431
0.00550001
0.00607025
0.00659977
0.007073
0.00747473
0.00779101
0.00801046
0.00812643
0.00814046
0.00806826
0.00794558
0.00780552
0.000122122
-2.49329e-06
-7.96374e-05
-0.000118049
-0.000105948
-3.43446e-05
9.92469e-05
0.000294402
0.000549429
0.000861817
0.00122835
0.00164502
0.00210692
0.002608
0.00314096
0.00369711
0.00426634
0.00483723
0.00539709
0.00593229
0.00642866
0.00687206
0.00724921
0.0075487
0.00776225
0.00788634
0.00792459
0.00789158
0.00780731
0.00766715
0.000235939
7.17758e-05
-7.41255e-06
-3.88721e-05
-2.09942e-05
5.2982e-05
0.000184999
0.000374956
0.000621885
0.00092402
0.00127877
0.00168265
0.00213113
0.00261853
0.00313782
0.00368057
0.00423699
0.00479575
0.00534435
0.00586932
0.00635666
0.00679246
0.00716377
0.00745961
0.00767222
0.00779826
0.00784089
0.00781291
0.00772407
0.00754168
0.000313987
0.000104367
1.25695e-05
-2.16425e-05
-4.35354e-06
6.88168e-05
0.000198597
0.000384546
0.000625945
0.00092151
0.00126919
0.001666
0.00210789
0.00258956
0.00310432
0.00364399
0.00419887
0.00475768
0.00530782
0.00583556
0.00632656
0.00676646
0.00714183
0.00744122
0.00765633
0.00778307
0.00782353
0.00778901
0.0076829
0.00745114
0.00032688
7.83882e-05
-2.74301e-05
-6.77928e-05
-5.39458e-05
1.67798e-05
0.000144016
0.000326903
0.000564835
0.000856905
0.00120154
0.00159628
0.00203755
0.00252049
0.00303873
0.00358431
0.00414758
0.00471713
0.00528
0.00582186
0.00632754
0.0067817
0.00716979
0.00747924
0.0077007
0.00782899
0.0078653
0.00782041
0.00769472
0.00741983
0.000259195
-2.13772e-05
-0.000140911
-0.000188873
-0.00017983
-0.00011219
1.28523e-05
0.000194096
0.00043102
0.000723056
0.0010691
0.0014672
0.0019143
0.00240599
0.00293627
0.00349735
0.00407957
0.00467123
0.00525874
0.00582685
0.00635907
0.00683848
0.00724879
0.0075757
0.0078083
0.00794022
0.00797205
0.00791511
0.00776919
0.00745658
0.00010392
-0.000204174
-0.000336761
-0.000392696
-0.000388778
-0.000324068
-0.000200346
-1.90453e-05
0.000219441
0.000514899
0.000866718
0.00127351
0.00173279
0.00224065
0.00279149
0.00337772
0.00398964
0.00461513
0.00523977
0.00584698
0.0064185
0.0069352
0.00737833
0.00773118
0.00798078
0.0081194
0.00814735
0.00807743
0.00791044
0.00756196
-0.000142906
-0.000476748
-0.000622036
-0.000685886
-0.000686882
-0.000624509
-0.000500983
-0.000317878
-7.53933e-05
0.000226675
0.000588282
0.00100869
0.00148607
0.00201715
0.0025968
0.00321775
0.00387022
0.00454168
0.00521666
0.00587694
0.00650193
0.00706958
0.00755785
0.00794675
0.00822058
0.0083699
0.00839504
0.00831112
0.00812104
0.00773449
-0.000484969
-0.000845299
-0.00100357
-0.00107533
-0.00108093
-0.00102021
-0.000895785
-0.000709321
-0.000460758
-0.000149386
0.000225425
0.000663715
0.00116448
0.00172522
0.00234151
0.00300651
0.00371053
0.00444062
0.00518021
0.00590909
0.00660379
0.00723851
0.00778684
0.00822434
0.00853155
0.00869677
0.00872039
0.00862072
0.00840381
0.00797304
-0.000926941
-0.00131643
-0.00148862
-0.00156855
-0.00157858
-0.001519
-0.00139286
-0.00120191
-0.000945785
-0.000623166
-0.000232611
0.000226872
0.000755314
0.00135126
0.00201124
0.00272914
0.0034956
0.00429749
0.0051171
0.00593206
0.00671544
0.00743668
0.00806362
0.00856579
0.00891841
0.00910643
0.00913011
0.00901195
0.00876233
0.0082774
-0.00147505
-0.00189779
-0.00208543
-0.00217409
-0.00218866
-0.00213001
-0.00200178
-0.00180586
-0.00154151
-0.00120671
-0.000799061
-0.000316387
0.00024264
0.000877948
0.00158741
0.00236609
0.00320539
0.0040924
0.00500851
0.00592915
0.00682343
0.00765493
0.008384
0.00897189
0.00938618
0.0096066
0.00963266
0.00949207
0.0092012
0.00864776
-0.00213732
-0.00259854
-0.00280363
-0.00290192
-0.00292141
-0.00286388
-0.00273374
-0.0025331
-0.00226089
-0.00191425
-0.00148965
-0.000983517
-0.00039289
0.00028395
0.00104677
0.00189243
0.00281371
0.00379855
0.00482816
0.00587608
0.00690715
0.00787795
0.00873922
0.0094409
0.00993944
0.0102063
0.0102386
0.0100703
0.00972618
0.00908387
-0.00292371
-0.00342972
-0.00365469
-0.00376371
-0.00378876
-0.00373287
-0.00360155
-0.00339732
-0.00311874
-0.00276208
-0.0023225
-0.00179479
-0.00117404
-0.000456254
0.000360884
0.00127683
0.00228657
0.00338028
0.00453991
0.00573801
0.00693534
0.0080806
0.00911257
0.0099659
0.0105808
0.0109153
0.0109611
0.0107589
0.0103446
0.00958373
-0.00384626
-0.00440459
-0.00465223
-0.00477319
-0.00480449
-0.00475097
-0.00461969
-0.00441379
-0.00413154
-0.00376831
-0.00331782
-0.00277303
-0.00212676
-0.00137228
-0.00050409
0.0004807
0.00158081
0.00279088
0.00409469
0.00546538
0.00686096
0.00822219
0.0094737
0.01053
0.0113078
0.0117434
0.0118166
0.0115741
0.0110661
0.0101421
-0.00491942
-0.00553917
-0.00581254
-0.00594651
-0.00598451
-0.00593401
-0.00580421
-0.0055992
-0.00531711
-0.00495241
-0.00449736
-0.00394295
-0.00327951
-0.00249722
-0.00158693
-0.000540761
0.000646222
0.00197165
0.0034271
0.00498862
0.00661397
0.00823765
0.00976907
0.0110975
0.0121063
0.012697
0.0128253
0.0125389
0.0119051
0.010749
-0.00616057
-0.00685297
-0.00715531
-0.00730275
-0.00734714
-0.00729969
-0.00717258
-0.00697131
-0.00669407
-0.00633451
-0.00588353
-0.00533016
-0.00466218
-0.00386651
-0.00292968
-0.00183843
-0.000580982
0.000849143
0.00245208
0.00421177
0.00609148
0.00802422
0.00990623
0.0115979
0.0129374
0.0137714
0.0140093
0.0136869
0.0128858
0.01139
-0.00759098
-0.00837024
-0.00870461
-0.00886466
-0.00891349
-0.00886767
-0.00874349
-0.00854844
-0.00828105
-0.00793434
-0.00749799
-0.00695933
-0.00630385
-0.00551536
-0.00457607
-0.00346681
-0.00216809
-0.000663051
0.00106264
0.00300657
0.00514627
0.00742332
0.00972938
0.011898
0.0137111
0.0149328
0.0153868
0.015066
0.0140508
0.0120492
-0.00923731
-0.0101219
-0.0104906
-0.0106597
-0.0107079
-0.0106596
-0.0105365
-0.0103488
-0.0100956
-0.00976968
-0.00935968
-0.00885172
-0.00822965
-0.00747497
-0.00656641
-0.00547951
-0.0041866
-0.00265774
-0.000866876
0.00121051
0.00357707
0.00619967
0.00898551
0.011757
0.0142383
0.0160775
0.0169495
0.0167384
0.0154758
0.0127208
-0.0111343
-0.0121485
-0.0125516
-0.0127215
-0.0127587
-0.0126988
-0.0125711
-0.0123892
-0.0121528
-0.0118543
-0.011482
-0.0110215
-0.010456
-0.00976628
-0.00892953
-0.00791826
-0.00669895
-0.00523122
-0.0034695
-0.00136345
0.00113049
0.00402862
0.00729027
0.0107685
0.0141543
0.0169559
0.0186089
0.0187639
0.017287
0.0134343
-0.0133296
-0.0145057
-0.0149384
-0.0150915
-0.0150982
-0.0150102
-0.0148662
-0.0146835
-0.0144625
-0.0141951
-0.0138693
-0.0134709
-0.0129841
-0.0123912
-0.011671
-0.010797
-0.00973503
-0.0084396
-0.00685029
-0.00488911
-0.00246402
0.000519482
0.00412649
0.00831963
0.0128354
0.017062
0.0200964
0.0211505
0.0196764
0.0143081
-0.0158917
-0.0172722
-0.0177187
-0.0178214
-0.017763
-0.0176181
-0.0174367
-0.0172394
-0.0170261
-0.0167874
-0.0165109
-0.0161833
-0.0157915
-0.0153216
-0.0147585
-0.0140826
-0.0132668
-0.0122709
-0.0110317
-0.00945087
-0.00739651
-0.00467504
-0.00104982
0.00366584
0.00940813
0.0155651
0.0208552
0.0237775
0.0229111
0.0156696
-0.0189266
-0.0205634
-0.0209848
-0.0209744
-0.0207917
-0.0205425
-0.0202891
-0.0200525
-0.0198295
-0.0196079
-0.0193737
-0.0191147
-0.0188214
-0.0184868
-0.0181058
-0.0176726
-0.0171768
-0.016597
-0.0158887
-0.0149585
-0.0136191
-0.0116251
-0.0085057
-0.00372751
0.00306137
0.0115126
0.0201055
0.0263936
0.0273642
0.0183116
-0.0226098
-0.0245547
-0.0248625
-0.0246238
-0.0242177
-0.0237892
-0.023409
-0.0230931
-0.0228299
-0.0226006
-0.022388
-0.0221798
-0.0219704
-0.0217613
-0.0215602
-0.0213806
-0.021238
-0.0211429
-0.0210866
-0.0210088
-0.020732
-0.0198684
-0.0178149
-0.0135911
-0.00622003
0.00455815
0.0173831
0.0289056
0.0336768
0.0239623
-0.0272547
-0.0295177
-0.0295189
-0.0288429
-0.0280502
-0.0273265
-0.0267376
-0.0262818
-0.0259308
-0.0256535
-0.0254258
-0.0252336
-0.0250739
-0.0249559
-0.0249012
-0.0249437
-0.025128
-0.0255023
-0.0261016
-0.0269108
-0.0277772
-0.0282468
-0.0275695
-0.0243373
-0.0168736
-0.00403179
0.0135326
0.0320905
0.0432466
0.035904
-0.0334626
-0.0358756
-0.0351564
-0.0336715
-0.032231
-0.0310381
-0.0301218
-0.0294409
-0.0289364
-0.0285569
-0.0282662
-0.0280446
-0.027889
-0.0278138
-0.0278511
-0.0280516
-0.0284844
-0.0292272
-0.0303487
-0.0318626
-0.0336376
-0.035232
-0.0356125
-0.0331595
-0.0256061
-0.0108274
0.0115959
0.0385661
0.0590943
0.059311
-0.0424778
-0.0442689
-0.0419476
-0.0390195
-0.0365314
-0.0346211
-0.0332183
-0.032206
-0.0314748
-0.0309399
-0.0305455
-0.0302603
-0.0300763
-0.030008
-0.0300927
-0.0303869
-0.0309736
-0.031939
-0.0333552
-0.0352238
-0.0373748
-0.0393015
-0.0398567
-0.0371456
-0.0285935
-0.0111921
0.0165032
0.0532502
0.0863861
0.100742
-0.0572458
-0.0556322
-0.0498611
-0.0444667
-0.0403614
-0.0374164
-0.03535
-0.0339165
-0.0329231
-0.0322272
-0.0317409
-0.0314119
-0.0312202
-0.0311742
-0.0313078
-0.0316772
-0.0323554
-0.0334139
-0.0348916
-0.0367299
-0.0386628
-0.0400458
-0.0395246
-0.0349789
-0.023449
-0.00159666
0.0329828
0.0817147
0.130915
0.168552
-0.0852966
-0.0708416
-0.0585394
-0.049133
-0.0426602
-0.0383797
-0.0355636
-0.0337446
-0.0325802
-0.0318407
-0.0313831
-0.0311246
-0.0310278
-0.0310909
-0.0313396
-0.0318194
-0.0325822
-0.0336619
-0.0350306
-0.0365248
-0.0377322
-0.0378258
-0.0351588
-0.0273646
-0.0110564
0.0177712
0.0626567
0.12588
0.196969
0.279124
-0.137704
-0.0859038
-0.0654875
-0.0503252
-0.0409564
-0.0355366
-0.0324357
-0.0306957
-0.0297669
-0.0293251
-0.0291792
-0.0292229
-0.0294088
-0.0297302
-0.0302085
-0.0308789
-0.0317726
-0.032885
-0.0341223
-0.0352091
-0.0355505
-0.0340727
-0.0291957
-0.01802
0.00333005
0.0400582
0.0976823
0.18255
0.291128
0.46266
-0.30946
-0.0951392
-0.047462
-0.0311113
-0.0233006
-0.0202472
-0.0197683
-0.0203622
-0.0213209
-0.0223752
-0.023421
-0.0244215
-0.0253808
-0.0263303
-0.0273167
-0.0283891
-0.0295793
-0.0308711
-0.0321479
-0.0331138
-0.0331817
-0.0313046
-0.0256501
-0.0132923
0.00976981
0.0497588
0.115478
0.226511
0.401711
0.746928
)
;

boundaryField
{
    movingWall
    {
        type            zeroGradient;
    }
    fixedWalls
    {
        type            zeroGradient;
    }
    frontAndBack
    {
        type            empty;
    }
}


// ************************************************************************* //
