/*--------------------------------*- C++ -*----------------------------------*\
  =========                 |
  \\      /  F ield         | OpenFOAM: The Open Source CFD Toolbox
   \\    /   O peration     | Website:  https://openfoam.org
    \\  /    A nd           | Version:  7
     \\/     M anipulation  |
\*---------------------------------------------------------------------------*/
FoamFile
{
    version     2.0;
    format      ascii;
    class       surfaceScalarField;
    location    "2.2";
    object      phi;
}
// * * * * * * * * * * * * * * * * * * * * * * * * * * * * * * * * * * * * * //

dimensions      [0 3 -1 0 0 0 0];

internalField   nonuniform List<scalar> 
1740
(
1.69384e-07
-1.69373e-07
-1.1056e-06
1.27499e-06
-3.73833e-06
2.63273e-06
-7.25427e-06
3.51593e-06
-1.12226e-05
3.96835e-06
-1.53291e-05
4.10648e-06
-1.937e-05
4.04094e-06
-2.32201e-05
3.85012e-06
-2.67995e-05
3.57936e-06
-3.00501e-05
3.25056e-06
-3.29221e-05
2.87207e-06
-3.5368e-05
2.44581e-06
-3.73395e-05
1.97156e-06
-3.87888e-05
1.44928e-06
-3.9669e-05
8.80223e-07
-3.99366e-05
2.67627e-07
-3.95538e-05
-3.82834e-07
-3.84912e-05
-1.06265e-06
-3.67313e-05
-1.75984e-06
-3.42729e-05
-2.45844e-06
-3.11356e-05
-3.13726e-06
-2.73677e-05
-3.76788e-06
-2.30564e-05
-4.31135e-06
-1.8343e-05
-4.71336e-06
-1.34442e-05
-4.89879e-06
-8.67568e-06
-4.76857e-06
-4.46709e-06
-4.20859e-06
-1.34505e-06
-3.12203e-06
1.61263e-07
-1.50631e-06
1.61263e-07
-1.27452e-06
1.10514e-06
-5.61363e-06
5.6141e-06
-1.2519e-05
9.53808e-06
-2.11798e-05
1.21768e-05
-3.08058e-05
1.35944e-05
-4.07606e-05
1.40612e-05
-5.05836e-05
1.38639e-05
-5.99581e-05
1.32247e-05
-6.86646e-05
1.22858e-05
-7.65394e-05
1.11254e-05
-8.34481e-05
9.78075e-06
-8.927e-05
8.26773e-06
-9.38917e-05
6.59332e-06
-9.72058e-05
4.76329e-06
-9.91119e-05
2.7864e-06
-9.95208e-05
6.76464e-07
-9.83597e-05
-1.5439e-06
-9.55766e-05
-3.84577e-06
-9.11493e-05
-6.18714e-06
-8.5094e-05
-8.51375e-06
-7.74772e-05
-1.0754e-05
-6.84321e-05
-1.2813e-05
-5.81807e-05
-1.45627e-05
-4.70631e-05
-1.5831e-05
-3.55708e-05
-1.63911e-05
-2.43741e-05
-1.59653e-05
-1.43214e-05
-1.42612e-05
-6.37546e-06
-1.1068e-05
-1.43747e-06
-6.4443e-06
-1.27621e-06
-2.7154e-06
3.82055e-06
-9.81475e-06
1.27134e-05
-2.0225e-05
1.99484e-05
-3.2842e-05
2.47937e-05
-4.66568e-05
2.74092e-05
-6.08534e-05
2.82578e-05
-7.48238e-05
2.78342e-05
-8.81329e-05
2.65338e-05
-0.000100468
2.46206e-05
-0.000111591
2.22484e-05
-0.000121308
1.94976e-05
-0.000129448
1.64076e-05
-0.000135854
1.3e-05
-0.000140383
9.29239e-06
-0.000142904
5.30675e-06
-0.000143302
1.07488e-06
-0.000141487
-3.35943e-06
-0.000137398
-7.93429e-06
-0.000131017
-1.25679e-05
-0.000122378
-1.71528e-05
-0.000111584
-2.15483e-05
-9.88279e-05
-2.55691e-05
-8.44218e-05
-2.89689e-05
-6.88302e-05
-3.14226e-05
-5.2707e-05
-3.25143e-05
-3.69215e-05
-3.17507e-05
-2.25528e-05
-2.863e-05
-1.08231e-05
-2.27977e-05
-2.95065e-06
-1.43167e-05
-4.22686e-06
-3.79129e-06
7.61184e-06
-1.30936e-05
2.20158e-05
-2.62824e-05
3.31371e-05
-4.19465e-05
4.04578e-05
-5.88976e-05
4.43604e-05
-7.62022e-05
4.55624e-05
-9.31663e-05
4.47983e-05
-0.000109288
4.26554e-05
-0.000124199
3.95319e-05
-0.000137618
3.5667e-05
-0.000149311
3.11912e-05
-0.000159077
2.61735e-05
-0.000166732
2.06545e-05
-0.000172107
1.46675e-05
-0.000175051
8.25129e-06
-0.000175435
1.45863e-06
-0.000173154
-5.64035e-06
-0.000168142
-1.29465e-05
-0.000160379
-2.0331e-05
-0.000149908
-2.7624e-05
-0.000136853
-3.46035e-05
-0.000121444
-4.09779e-05
-0.000104049
-4.63634e-05
-8.52118e-05
-5.02599e-05
-6.5688e-05
-5.20381e-05
-4.64761e-05
-5.09626e-05
-2.88173e-05
-4.62888e-05
-1.4149e-05
-3.74659e-05
-4.012e-06
-2.44537e-05
-8.23886e-06
-4.54218e-06
1.2154e-05
-1.55188e-05
3.29924e-05
-3.08653e-05
4.84836e-05
-4.889e-05
5.84824e-05
-6.82417e-05
6.37121e-05
-8.78932e-05
6.52139e-05
-0.000107094
6.39989e-05
-0.000125302
6.08639e-05
-0.000142121
5.63511e-05
-0.000157244
5.07895e-05
-0.000170416
4.4363e-05
-0.000181414
3.7172e-05
-0.000190038
2.92779e-05
-0.000196101
2.07306e-05
-0.000199435
1.1586e-05
-0.000199895
1.91841e-06
-0.000197361
-8.17475e-06
-0.000191751
-1.85558e-05
-0.000183037
-2.9045e-05
-0.000171257
-3.94044e-05
-0.000156539
-4.93212e-05
-0.000139133
-5.83843e-05
-0.000119441
-6.60549e-05
-9.80646e-05
-7.16366e-05
-7.58415e-05
-7.42613e-05
-5.38823e-05
-7.29218e-05
-3.35795e-05
-6.65916e-05
-1.658e-05
-5.44655e-05
-4.72238e-06
-3.63113e-05
-1.29612e-05
-5.07523e-06
1.72293e-05
-1.7344e-05
4.52612e-05
-3.44111e-05
6.55508e-05
-5.43434e-05
7.84146e-05
-7.56399e-05
8.50086e-05
-9.71885e-05
8.67626e-05
-0.000118193
8.50029e-05
-0.000138086
8.0757e-05
-0.000156454
7.47196e-05
-0.000172978
6.73134e-05
-0.000187392
5.87766e-05
-0.00019946
4.92406e-05
-0.000208968
3.8786e-05
-0.000215715
2.74773e-05
-0.000219514
1.53854e-05
-0.000220199
2.60325e-06
-0.000217627
-1.07475e-05
-0.000211691
-2.44916e-05
-0.000202338
-3.8398e-05
-0.000189586
-5.21563e-05
-0.000173553
-6.53542e-05
-0.000154491
-7.74464e-05
-0.000132828
-8.77178e-05
-0.000109217
-9.52476e-05
-8.45828e-05
-9.88956e-05
-6.01607e-05
-9.73439e-05
-3.75118e-05
-8.92405e-05
-1.85011e-05
-7.34762e-05
-5.23701e-06
-4.95754e-05
-1.81983e-05
-5.49707e-06
2.27263e-05
-1.8847e-05
5.86111e-05
-3.73968e-05
8.41006e-05
-5.90028e-05
0.000100021
-8.20239e-05
0.00010803
-0.000105266
0.000110005
-0.000127889
0.000107626
-0.000149308
0.000102175
-0.000169097
9.45094e-05
-0.000186933
8.51491e-05
-0.000202543
7.43863e-05
-0.000215684
6.23816e-05
-0.000226129
4.92314e-05
-0.000233662
3.50101e-05
-0.000238074
1.97978e-05
-0.000239171
3.70016e-06
-0.000236776
-1.3143e-05
-0.000230743
-3.05241e-05
-0.000220979
-4.81625e-05
-0.000207462
-6.5673e-05
-0.000190282
-8.25343e-05
-0.00016968
-9.80483e-05
-0.000146103
-0.000111295
-0.000120261
-0.000121089
-9.31837e-05
-0.000125973
-6.62605e-05
-0.000124267
-4.12559e-05
-0.000114245
-2.02761e-05
-9.4456e-05
-5.68911e-06
-6.41624e-05
-2.38874e-05
-5.89001e-06
2.86163e-05
-2.02596e-05
7.29807e-05
-4.02279e-05
0.000104069
-6.34556e-05
0.000123248
-8.81648e-05
0.000132739
-0.000113079
0.000134918
-0.000137315
0.000131862
-0.000160268
0.000125128
-0.000181508
0.00011575
-0.000200709
0.00010435
-0.000217597
9.12738e-05
-0.000231923
7.67076e-05
-0.00024345
6.07584e-05
-0.000251944
4.35038e-05
-0.00025717
2.50243e-05
-0.000258898
5.42829e-06
-0.000256905
-1.51359e-05
-0.000250991
-3.64381e-05
-0.000241
-5.81534e-05
-0.000226852
-7.98216e-05
-0.000208584
-0.000100802
-0.000186411
-0.000120221
-0.000160791
-0.000136914
-0.0001325
-0.00014938
-0.000102698
-0.000155776
-7.29713e-05
-0.000153993
-4.53389e-05
-0.000141877
-2.2191e-05
-0.000117604
-6.17296e-06
-8.01805e-05
-3.00603e-05
-6.30902e-06
3.49254e-05
-2.17484e-05
8.84201e-05
-4.32045e-05
0.000125525
-6.8139e-05
0.000148183
-9.46328e-05
0.000159233
-0.000121323
0.000161608
-0.000147282
0.000157822
-0.000171888
0.000149734
-0.000194708
0.00013857
-0.000215417
0.000125059
-0.000233742
0.000109599
-0.000249434
9.23997e-05
-0.000262247
7.3571e-05
-0.000271928
5.31846e-05
-0.000278213
3.13097e-05
-0.000280828
8.04353e-06
-0.000279492
-1.64719e-05
-0.000273931
-4.19995e-05
-0.000263903
-6.81808e-05
-0.000249241
-9.44844e-05
-0.000229901
-0.000120141
-0.000206048
-0.000144075
-0.000178136
-0.000164826
-0.000147015
-0.000180502
-0.000114004
-0.000188787
-8.09456e-05
-0.000187052
-5.01828e-05
-0.00017264
-2.44603e-05
-0.000143326
-6.75014e-06
-9.78906e-05
-3.68105e-05
-6.78854e-06
4.17139e-05
-2.34254e-05
0.000105057
-4.65336e-05
0.000148633
-7.33567e-05
0.000175006
-0.000101822
0.000187698
-0.000130473
0.000190259
-0.000158338
0.000185686
-0.000184778
0.000176174
-0.000209361
0.000163153
-0.000231768
0.000147466
-0.000251735
0.000129566
-0.000269014
0.000109679
-0.000283355
8.79121e-05
-0.00029449
6.43189e-05
-0.000302123
3.89426e-05
-0.000305929
1.18502e-05
-0.000305558
-1.68433e-05
-0.00030064
-4.6918e-05
-0.00029082
-7.80005e-05
-0.000275805
-0.0001095
-0.000255432
-0.000140514
-0.000229774
-0.000169733
-0.000199258
-0.000195341
-0.000164802
-0.000214958
-0.000127923
-0.000225666
-9.07877e-05
-0.000224187
-5.61654e-05
-0.000207263
-2.72626e-05
-0.000172229
-7.46437e-06
-0.000117689
-4.42749e-05
-7.35061e-06
4.90645e-05
-2.5366e-05
0.000123072
-5.03577e-05
0.000173625
-7.93175e-05
0.000203966
-0.000109999
0.00021838
-0.000140846
0.000221106
-0.000170838
0.000215678
-0.000199324
0.00020466
-0.000225878
0.000189707
-0.000250195
0.000171783
-0.000272026
0.000151397
-0.000291134
0.000128788
-0.000307273
0.000104051
-0.000320162
7.72082e-05
-0.000329479
4.8259e-05
-0.000334844
1.72161e-05
-0.000335827
-1.58609e-05
-0.000331939
-5.08058e-05
-0.00032268
-8.72596e-05
-0.000307583
-0.000124597
-0.000286307
-0.000161789
-0.000258774
-0.000197267
-0.000225332
-0.000228783
-0.000186951
-0.000253339
-0.000145372
-0.000267245
-0.000103178
-0.000266381
-6.37063e-05
-0.000246734
-3.07875e-05
-0.000205148
-8.35681e-06
-0.00014012
-5.26317e-05
-8.01176e-06
5.70763e-05
-2.76281e-05
0.000142689
-5.47848e-05
0.000200782
-8.61774e-05
0.000235358
-0.000119361
0.000251563
-0.000152665
0.000254411
-0.000185022
0.000248036
-0.000215773
0.000235411
-0.000244508
0.000218441
-0.000270945
0.00019822
-0.000294862
0.000175314
-0.000316048
0.000149973
-0.000334268
0.000122271
-0.000349244
9.21844e-05
-0.000360632
5.96466e-05
-0.000368003
2.45873e-05
-0.000370839
-1.30254e-05
-0.000368512
-5.3133e-05
-0.000360337
-9.54347e-05
-0.000345615
-0.000139318
-0.000323749
-0.000183656
-0.000294412
-0.000226603
-0.00025779
-0.000265405
-0.000214845
-0.000296284
-0.000167557
-0.000314533
-0.000119033
-0.000314906
-7.33776e-05
-0.000292389
-3.52933e-05
-0.000243232
-9.48203e-06
-0.000165931
-6.21137e-05
-8.78823e-06
6.58645e-05
-3.02666e-05
0.000164167
-5.99153e-05
0.00023043
-9.40759e-05
0.000269519
-0.000130071
0.000287558
-0.000166107
0.000290447
-0.000201068
0.000282996
-0.000234294
0.000268638
-0.000265403
0.00024955
-0.000294152
0.00022697
-0.000320363
0.000201525
-0.000343863
0.000173473
-0.000364452
0.00014286
-0.00038187
0.000109602
-0.000395767
7.35441e-05
-0.000405677
3.44975e-05
-0.000411007
-7.69604e-06
-0.000410958
-5.31818e-05
-0.000404632
-0.00010176
-0.00039103
-0.000152921
-0.000369186
-0.000205499
-0.000338394
-0.000257396
-0.00029852
-0.000305279
-0.000250401
-0.000344403
-0.000196222
-0.000368712
-0.000139726
-0.000371402
-8.60634e-05
-0.000346052
-4.11893e-05
-0.000288106
-1.09297e-05
-0.00019619
-7.30434e-05
-9.70025e-06
7.55648e-05
-3.33468e-05
0.000187814
-6.58631e-05
0.000262947
-0.000103165
0.000306821
-0.000142305
0.000326698
-0.000181349
0.000329491
-0.000219137
0.000320784
-0.000255023
0.000304524
-0.000288666
0.000283192
-0.000319882
0.000258186
-0.000348555
0.000230198
-0.000374576
0.000199495
-0.000397805
0.000166088
-0.000418026
0.000129824
-0.000434914
9.04322e-05
-0.000447979
4.75626e-05
-0.00045661
9.35174e-07
-0.000459783
-5.00087e-05
-0.000456397
-0.000105147
-0.000445066
-0.000164252
-0.000424328
-0.000226237
-0.000392896
-0.000288828
-0.00035008
-0.000348095
-0.000296356
-0.000398127
-0.000233979
-0.00043109
-0.000167404
-0.000437976
-0.0001032
-0.000410256
-4.91666e-05
-0.000342139
-1.28604e-05
-0.000232497
-8.59038e-05
-1.07762e-05
8.6341e-05
-3.69563e-05
0.000213994
-7.27763e-05
0.000298767
-0.000113635
0.00034768
-0.000156268
0.000369331
-0.00019859
0.000371813
-0.000239403
0.000361596
-0.000278089
0.000343211
-0.000314371
0.000319475
-0.000348148
0.000291962
-0.00037939
0.00026144
-0.000408083
0.000228188
-0.000434177
0.000192181
-0.000457541
0.000153188
-0.000477921
0.000110812
-0.000494877
6.45193e-05
-0.000507648
1.37061e-05
-0.000515301
-4.23565e-05
-0.000516348
-0.000104099
-0.000508988
-0.000171612
-0.000491116
-0.000244109
-0.00046061
-0.000319333
-0.000415858
-0.000392847
-0.000356555
-0.000457429
-0.000284695
-0.00050295
-0.000205412
-0.000517259
-0.000127127
-0.000488541
-6.04024e-05
-0.000408864
-1.55658e-05
-0.000277333
-0.00010147
-1.20579e-05
9.83989e-05
-4.12197e-05
0.000243155
-8.08593e-05
0.000338406
-0.000125743
0.000392563
-0.000172233
0.000415821
-0.000218084
0.000417663
-0.000262071
0.000405584
-0.000303632
0.000384772
-0.00034258
0.000358423
-0.000378921
0.000328303
-0.000412744
0.000295264
-0.00044416
0.000259604
-0.000473249
0.000221271
-0.000500016
0.000179955
-0.00052433
0.000135126
-0.000545849
8.60383e-05
-0.000563902
3.17591e-05
-0.000577452
-2.88063e-05
-0.000584838
-9.67133e-05
-0.000583797
-0.000172653
-0.000571444
-0.000256462
-0.000544516
-0.000346262
-0.000499964
-0.000437398
-0.000436036
-0.000521357
-0.000353794
-0.000585191
-0.000258728
-0.000612326
-0.000161531
-0.000585738
-7.6848e-05
-0.000493548
-1.95619e-05
-0.000334619
-0.000121031
-1.36084e-05
0.000112007
-4.63188e-05
0.000275866
-9.04012e-05
0.000382489
-0.000139838
0.000442
-0.000190559
0.000466543
-0.000240152
0.000467256
-0.000287395
0.000452827
-0.00033181
0.000429187
-0.000373333
0.000399947
-0.000412111
0.000367081
-0.000448383
0.000331536
-0.000482419
0.00029364
-0.000514473
0.000253325
-0.00054474
0.000210222
-0.00057329
0.000163675
-0.00059998
0.000112729
-0.000624322
5.61014e-05
-0.000645352
-7.77691e-06
-0.00066132
-8.07447e-05
-0.000669581
-0.000164392
-0.000666401
-0.000259642
-0.000647072
-0.000365592
-0.000606486
-0.000477984
-0.00054047
-0.000587373
-0.000448014
-0.000677647
-0.000334091
-0.000726249
-0.000211794
-0.000708035
-0.000101553
-0.000603788
-2.57142e-05
-0.000410458
-0.000146746
-1.55244e-05
0.000127532
-5.25219e-05
0.000312863
-0.000101814
0.000431781
-0.000156403
0.00049659
-0.000211721
0.00052186
-0.000265202
0.000520737
-0.000315668
0.000503292
-0.000362773
0.000476292
-0.000406617
0.000443791
-0.000447519
0.000407982
-0.000485896
0.000369913
-0.000522212
0.000329956
-0.000556936
0.000288049
-0.000590507
0.000243792
-0.000623277
0.000196446
-0.000655421
0.000144872
-0.000686781
8.74618e-05
-0.000716648
2.20901e-05
-0.000743444
-5.3949e-05
-0.000764304
-0.000143532
-0.000774727
-0.000249219
-0.000768373
-0.000371946
-0.000737455
-0.000508902
-0.000674199
-0.000650629
-0.000573845
-0.000778001
-0.000439134
-0.00086096
-0.00028485
-0.000862319
-0.000138882
-0.000749756
-3.53835e-05
-0.000513957
-0.000182129
-1.7958e-05
0.00014549
-6.02301e-05
0.000355135
-0.000115685
0.000487236
-0.000176092
0.000556996
-0.000236327
0.000582096
-0.000293714
0.000578124
-0.000347189
0.000556767
-0.000396602
0.000525705
-0.000442264
0.000489453
-0.000484698
0.000450416
-0.000524527
0.000409741
-0.000562427
0.000367856
-0.00059911
0.000324732
-0.000635302
0.000279985
-0.000671706
0.000232849
-0.000708918
0.000182085
-0.000747279
0.000125824
-0.000786585
6.13953e-05
-0.000825712
-1.4822e-05
-0.000861941
-0.000107303
-0.000890306
-0.000220854
-0.000902937
-0.000359315
-0.00088902
-0.000522819
-0.000836104
-0.000703545
-0.000733684
-0.000880421
-0.000579551
-0.00101509
-0.000387841
-0.00105403
-0.000194365
-0.000943232
-5.05907e-05
-0.000657731
-0.00023272
-2.11544e-05
0.000166644
-7.00484e-05
0.000404029
-0.000132848
0.000550035
-0.000199767
0.000623916
-0.000265104
0.000647432
-0.000326169
0.00063919
-0.000382128
0.000612725
-0.000433113
0.000576691
-0.000479702
0.000536041
-0.000522652
0.000493366
-0.000562805
0.000449894
-0.000601058
0.000406108
-0.000638368
0.000362042
-0.000675756
0.000317373
-0.0007143
0.000271393
-0.000755082
0.000222867
-0.000799057
0.000169799
-0.000846774
0.000109112
-0.000897857
3.62618e-05
-0.000950203
-5.49571e-05
-0.000999035
-0.000172022
-0.00103551
-0.00032284
-0.00104612
-0.000512209
-0.00101338
-0.000736281
-0.000919405
-0.000974401
-0.0007536
-0.0011809
-0.000524775
-0.00128285
-0.000273805
-0.0011942
-7.42342e-05
-0.000857302
-0.000306954
-2.55221e-05
0.000192166
-8.28998e-05
0.000461407
-0.000154464
0.000621599
-0.000228503
0.000697955
-0.000298795
0.000717724
-0.000362835
0.00070323
-0.000420196
0.000670086
-0.000471413
0.000627908
-0.000517395
0.000582024
-0.000559166
0.000535137
-0.00059779
0.000488518
-0.00063437
0.000442689
-0.00067008
0.000397751
-0.000706194
0.000353488
-0.000744121
0.000309319
-0.00078539
0.000264136
-0.000831576
0.000215985
-0.00088406
0.000161595
-0.000943557
9.57588e-05
-0.00100884
1.03259e-05
-0.00107646
-0.000104403
-0.00113768
-0.000261619
-0.00117777
-0.000472116
-0.00117537
-0.000738687
-0.00110498
-0.00104478
-0.000944631
-0.00134125
-0.000690853
-0.00153663
-0.000381043
-0.00150401
-0.000110307
-0.00112804
-0.000417261
-3.17686e-05
0.000223935
-0.000100207
0.000529846
-0.000182118
0.00070351
-0.000263497
0.000779334
-0.000337857
0.000792084
-0.000403239
0.000768612
-0.000459898
0.000726745
-0.00050894
0.000676949
-0.00055169
0.000624774
-0.000589477
0.000572924
-0.000623592
0.000522632
-0.000655318
0.000474415
-0.000685987
0.00042842
-0.000717035
0.000384535
-0.00075006
0.000342345
-0.000786873
0.000300949
-0.000829483
0.000258595
-0.000879957
0.00021207
-0.000940007
0.000155809
-0.00101043
8.07505e-05
-0.0010886
-2.62316e-05
-0.00116867
-0.000181556
-0.00123713
-0.000403652
-0.00127195
-0.000703864
-0.00124251
-0.00107422
-0.0011146
-0.00146916
-0.000865217
-0.00178601
-0.000513396
-0.00185583
-0.000163522
-0.00147791
-0.000580784
-4.1173e-05
0.000265108
-0.000124184
0.000612857
-0.000217843
0.000797168
-0.000305712
0.000867204
-0.000381684
0.000868056
-0.000444982
0.00083191
-0.00049696
0.000778723
-0.000539533
0.000719522
-0.000574576
0.000659817
-0.00060379
0.000602138
-0.000628719
0.000547561
-0.00065081
0.000496506
-0.000671483
0.000449093
-0.000692204
0.000405256
-0.000714566
0.000364707
-0.000740374
0.000326757
-0.00077171
0.00028993
-0.000810934
0.000251295
-0.000860526
0.0002054
-0.000922668
0.000142893
-0.000997693
4.87931e-05
-0.00108296
-9.62932e-05
-0.00117027
-0.000316335
-0.00124176
-0.00063238
-0.00126729
-0.00104869
-0.00120385
-0.00153261
-0.00100519
-0.00198467
-0.000654402
-0.00220663
-0.000236809
-0.0018955
-0.000817593
-5.61378e-05
0.000321246
-0.000158264
0.000714983
-0.000263913
0.000902817
-0.000354856
0.000958147
-0.000426786
0.000939985
-0.000481185
0.00088631
-0.000521145
0.000818683
-0.000549745
0.000748121
-0.000569626
0.000679699
-0.00058299
0.000615502
-0.000591694
0.000556265
-0.000597352
0.000502164
-0.000601414
0.000453155
-0.00060525
0.000409092
-0.000610234
0.000369691
-0.000617849
0.000334371
-0.000629813
0.000301895
-0.000648233
0.000269714
-0.000675713
0.000232881
-0.000715347
0.000182527
-0.000770669
0.000104115
-0.000842933
-2.40295e-05
-0.000932215
-0.000227053
-0.00102988
-0.000534719
-0.00111427
-0.000964298
-0.00114212
-0.00150475
-0.00104796
-0.00207883
-0.000766898
-0.00248769
-0.000325258
-0.00233714
-0.00114285
-8.12865e-05
0.000402532
-0.000207544
0.000841241
-0.000321695
0.00101697
-0.000406554
0.00104301
-0.000462497
0.000995928
-0.000495046
0.000918858
-0.000509987
0.000833625
-0.000512097
0.000750231
-0.000505082
0.000672684
-0.000491797
0.000602217
-0.000474469
0.000538937
-0.000454854
0.000482549
-0.000434357
0.000432658
-0.000414127
0.000388862
-0.00039515
0.000350714
-0.000378355
0.000317577
-0.000364769
0.000288309
-0.000355777
0.000260721
-0.000353469
0.000230573
-0.000361126
0.000190184
-0.000383755
0.000126744
-0.000428252
2.04673e-05
-0.000501054
-0.00015425
-0.000606527
-0.000429247
-0.000739722
-0.000831102
-0.000868961
-0.00137551
-0.000923734
-0.00202405
-0.000792948
-0.00261848
-0.000408038
-0.00272205
-0.00155089
-0.000125502
0.000528034
-0.000278251
0.00099399
-0.000386956
0.00112567
-0.000444176
0.00110023
-0.000460372
0.00101212
-0.000447859
0.000906345
-0.000416395
0.000802161
-0.000373002
0.000706838
-0.000322612
0.000622293
-0.000268661
0.000548266
-0.000213563
0.00048384
-0.000158996
0.000427981
-0.00010609
0.000379753
-5.55738e-05
0.000338345
-7.87553e-06
0.000303016
3.67464e-05
0.000272955
7.80376e-05
0.000247018
0.000115507
0.000223251
0.000147907
0.000198173
0.0001724
0.00016569
0.000183503
0.000115641
0.000171647
3.23238e-05
0.000124162
-0.000106765
2.50816e-05
-0.000330166
-0.000134148
-0.000671872
-0.000351745
-0.00115792
-0.000574685
-0.00180111
-0.000664311
-0.00252885
-0.000446857
-0.00293951
-0.00199775
-0.000205242
0.000733276
-0.000369651
0.0011584
-0.000430985
0.00118701
-0.000413483
0.00108272
-0.000346414
0.000945056
-0.000251895
0.000811825
-0.000144074
0.00069434
-3.17191e-05
0.000594483
7.99477e-05
0.000510626
0.000187829
0.000440385
0.000290191
0.000381478
0.000386163
0.000332009
0.000475452
0.000290464
0.000558159
0.000255639
0.000634652
0.000226524
0.000705452
0.000202155
0.000771085
0.000181385
0.000831797
0.000162539
0.000887073
0.000142897
0.000934795
0.000117968
0.000969852
8.05842e-05
0.000981983
2.01929e-05
0.000956418
-8.12001e-05
0.000870787
-0.000244535
0.000696799
-0.000497884
0.000416258
-0.000877377
4.54113e-05
-0.00143027
-0.000313776
-0.00216966
-0.000390478
-0.0028628
-0.00238822
-0.000334366
0.00106764
-0.000415987
0.00124002
-0.000324429
0.00109545
-0.000144492
0.000902786
6.85205e-05
0.000732043
0.000286772
0.000593574
0.000496527
0.000484585
0.000691849
0.000399161
0.000870653
0.000331823
0.00103277
0.000278267
0.00117895
0.000235297
0.00131039
0.00020057
0.00142849
0.000172368
0.00153472
0.000149406
0.00163056
0.000130682
0.0017174
0.000115311
0.00179643
0.000102361
0.00186835
9.06162e-05
0.00193301
7.8234e-05
0.00198865
6.23313e-05
0.00203055
3.86816e-05
0.00204848
2.26529e-06
0.00202795
-6.06724e-05
0.00194346
-0.000160044
0.0017606
-0.000315022
0.00143863
-0.000555411
0.000942408
-0.000934043
0.000332172
-0.00155943
-0.000117788
-0.00241284
-0.00250601
-0.000294615
0.00136226
-3.11291e-05
0.000976535
0.0004098
0.00065452
0.000836836
0.00047575
0.00121844
0.000350436
0.00155063
0.000261383
0.00183626
0.000198955
0.00208075
0.000154673
0.00229008
0.000122492
0.00246977
9.85832e-05
0.00262455
8.05119e-05
0.00275846
6.66643e-05
0.00287488
5.59411e-05
0.00297672
4.75762e-05
0.00306639
4.10078e-05
0.00314592
3.5776e-05
0.00321686
3.14288e-05
0.00328005
2.74201e-05
0.00333529
2.29933e-05
0.00338056
1.7064e-05
0.0034111
8.14174e-06
0.00342017
-6.80548e-06
0.00339119
-3.16947e-05
0.00330138
-7.02329e-05
0.0031157
-0.000129343
0.00278513
-0.000224837
0.00224295
-0.000391867
0.00143456
-0.000751034
0.00048243
-0.00146071
-0.00202358
0.00136226
0.00233879
0.00299331
0.00346906
0.0038195
0.00408088
0.00427984
0.00443451
0.004557
0.00465558
0.0047361
0.00480276
0.0048587
0.00490628
0.00494729
0.00498306
0.00501449
0.00504191
0.0050649
0.00508197
0.00509011
0.0050833
0.00505161
0.00498138
0.00485203
0.0046272
0.00423533
0.0034843
0.00202358
)
;

boundaryField
{
    movingWall
    {
        type            calculated;
        value           uniform 0;
    }
    fixedWalls
    {
        type            calculated;
        value           uniform 0;
    }
    frontAndBack
    {
        type            empty;
        value           nonuniform 0();
    }
}


// ************************************************************************* //
