/*--------------------------------*- C++ -*----------------------------------*\
  =========                 |
  \\      /  F ield         | OpenFOAM: The Open Source CFD Toolbox
   \\    /   O peration     | Website:  https://openfoam.org
    \\  /    A nd           | Version:  7
     \\/     M anipulation  |
\*---------------------------------------------------------------------------*/
FoamFile
{
    version     2.0;
    format      ascii;
    class       volScalarField;
    location    "0.5";
    object      p;
}
// * * * * * * * * * * * * * * * * * * * * * * * * * * * * * * * * * * * * * //

dimensions      [0 2 -2 0 0 0 0];

internalField   nonuniform List<scalar> 
900
(
8.50535e-09
-0.000129731
-0.00012654
1.43664e-05
0.000278289
0.000671629
0.00117857
0.00179821
0.00251684
0.00332936
0.00422418
0.00518721
0.0062075
0.00727207
0.00836641
0.00947575
0.0105852
0.0116792
0.0127416
0.0137567
0.014712
0.0155903
0.0163759
0.0170613
0.0176276
0.0180727
0.0183742
0.0185403
0.0185524
0.018423
0.000129603
-4.10605e-06
1.81279e-05
0.000167119
0.000431371
0.000817071
0.00131491
0.00192144
0.0026268
0.00342396
0.00430315
0.00524899
0.0062516
0.00729828
0.00837446
0.00946557
0.010557
0.0116334
0.0126783
0.0136763
0.0146162
0.0154792
0.0162519
0.0169239
0.0174807
0.0179177
0.0182198
0.0183947
0.018428
0.0182934
0.000118306
-3.70074e-05
-1.60208e-05
0.000134943
0.000399496
0.000786223
0.00128362
0.00189137
0.00259692
0.00339587
0.00427733
0.00522542
0.00623096
0.00728119
0.00836142
0.00945704
0.0105533
0.011635
0.0126851
0.0136879
0.0146333
0.0155017
0.016278
0.0169547
0.0175138
0.0179546
0.0182587
0.018437
0.0184696
0.0183114
-1.93295e-05
-0.000194193
-0.000177647
-2.5501e-05
0.000241961
0.000634443
0.00113843
0.00175551
0.00247122
0.00328276
0.0041784
0.00514181
0.00616408
0.00723236
0.0083317
0.00944723
0.010564
0.0116664
0.0127372
0.0137603
0.0147255
0.0156127
0.0164054
0.0170976
0.0176687
0.01812
0.0184306
0.0186126
0.0186417
0.018463
-0.000288548
-0.000478463
-0.000465191
-0.000310458
-3.66747e-05
0.000366126
0.000883522
0.00151766
0.00225307
0.00308743
0.00400867
0.00499993
0.00605218
0.00715239
0.00828527
0.0094355
0.0105877
0.0117259
0.0128323
0.0138904
0.0148895
0.0158084
0.0166298
0.0173479
0.0179404
0.018409
0.0187312
0.0189193
0.0189469
0.0187529
-0.000695349
-0.000898712
-0.000887425
-0.000727968
-0.000444086
-2.57159e-05
0.000512141
0.00117164
0.00193663
0.0028047
0.00376364
0.00479591
0.00589208
0.00703887
0.00822048
0.00942098
0.0106245
0.0118144
0.0129723
0.014081
0.0151289
0.0160934
0.0169567
0.0177122
0.0183361
0.0188296
0.019169
0.0193666
0.0193944
0.0191866
-0.00124457
-0.00146171
-0.0014513
-0.00128464
-0.000986589
-0.000547068
1.85507e-05
0.000712113
0.00151684
0.00242994
0.0034391
0.00452599
0.00568055
0.00688907
0.00813511
0.0094021
0.0106735
0.0119319
0.0131578
0.0143335
0.0154461
0.0164714
0.0173905
0.0181958
0.0188618
0.0193888
0.0197518
0.0199626
0.0199921
0.0197693
-0.00194278
-0.00217524
-0.00216486
-0.0019884
-0.00167183
-0.00120521
-0.000604179
0.000132591
0.000987644
0.00195757
0.00302996
0.00418559
0.0054135
0.00669944
0.00802629
0.0093767
0.0107333
0.0120776
0.0133893
0.0146495
0.0158439
0.016946
0.0179363
0.018805
0.0195251
0.0200951
0.0204887
0.0207172
0.0207498
0.0205093
-0.00279882
-0.00304919
-0.00303823
-0.00284925
-0.00250958
-0.00200949
-0.00136494
-0.000575245
0.000341339
0.0013805
0.00252976
0.00376885
0.00508576
0.00646556
0.00789038
0.009342
0.0108021
0.0122509
0.013667
0.0150306
0.0163253
0.0175221
0.0186003
0.0195479
0.0203355
0.0209595
0.0213918
0.0216428
0.02168
0.0214184
-0.0038239
-0.00409564
-0.0040837
-0.00387938
-0.00351172
-0.00297132
-0.0022745
-0.00142146
-0.00043141
0.000690158
0.00193065
0.00326872
0.0046911
0.00618206
0.00772288
0.00929444
0.0108773
0.0124506
0.0139913
0.0154787
0.0168939
0.018205
0.0193902
0.020434
0.0213045
0.0219952
0.0224756
0.0227551
0.0227984
0.0225117
-0.00503213
-0.00532943
-0.00531619
-0.00509349
-0.0046925
-0.00410429
-0.0033457
-0.00241801
-0.00134167
-0.000123613
0.00122339
0.00267687
0.0042221
0.00584242
0.00751825
0.00922953
0.0109557
0.0126745
0.0143619
0.0159953
0.0175532
0.0190008
0.0203144
0.0214746
0.022446
0.0232183
0.0237581
0.0240729
0.0241245
0.0238078
-0.00644072
-0.00676845
-0.00675363
-0.00650915
-0.00606885
-0.00542447
-0.00459362
-0.00357894
-0.00240234
-0.00107254
0.000397361
0.0019837
0.00367012
0.00543898
0.00726984
0.00914169
0.0110329
0.01292
0.0147775
0.0165812
0.0183067
0.0199155
0.0213822
0.0226823
0.0237758
0.0246479
0.0252605
0.0256192
0.0256816
0.0253292
-0.00807028
-0.00843411
-0.00841735
-0.00814715
-0.00766071
-0.00695072
-0.00603585
-0.00492042
-0.00362817
-0.00217001
-0.000559557
0.00117824
0.00302528
0.00496285
0.00696974
0.00902411
0.0111033
0.0131828
0.0152357
0.0172365
0.0191569
0.0209553
0.0226036
0.0240713
0.0253125
0.0263062
0.0270087
0.0274219
0.0274983
0.0271033
-0.00994526
-0.0103519
-0.0103327
-0.0100321
-0.00949153
-0.00870495
-0.00769258
-0.00646089
-0.00503584
-0.00343103
-0.00166093
0.000248207
0.00227639
0.00440382
0.00660868
0.00886844
0.0111597
0.0134569
0.0157326
0.0179593
0.0201052
0.0221254
0.0239886
0.0256568
0.0270768
0.0282195
0.0290332
0.0295146
0.0296092
0.0291626
-0.0120947
-0.0125525
-0.0125301
-0.0121933
-0.0115888
-0.0107126
-0.00958701
-0.00822122
-0.00664401
-0.00487225
-0.00292168
-0.000819941
0.00141105
0.00375044
0.00617594
0.00866464
0.0111928
0.0137345
0.0162616
0.0187454
0.0211508
0.0234295
0.0255464
0.0274545
0.0290917
0.0304182
0.0313706
0.0319382
0.0320569
0.031547
-0.0145534
-0.0150724
-0.0150457
-0.0146652
-0.0139847
-0.0130031
-0.0117456
-0.0102249
-0.00847332
-0.00651181
-0.00435791
-0.00204074
0.00041585
0.00299006
0.00565937
0.0084009
0.0111912
0.0140045
0.0168131
0.0195874
0.0222894
0.0248681
0.0272842
0.0294799
0.0313822
0.0329369
0.0340647
0.0347431
0.0348939
0.0343051
-0.0173629
-0.0179563
-0.0179234
-0.0174893
-0.0167174
-0.0156104
-0.0141983
-0.012498
-0.0105462
-0.00836907
-0.0059865
-0.00342932
-0.000723246
0.00210916
0.00504555
0.00806359
0.0111409
0.0142531
0.0173736
0.020473
0.0235117
0.0264371
0.0292052
0.0317464
0.0339741
0.0358152
0.0371678
0.0379914
0.0381863
0.037497
-0.0205745
-0.0212595
-0.021217
-0.0207156
-0.0198317
-0.0185741
-0.0169789
-0.015069
-0.0128867
-0.0104641
-0.00782457
-0.00500082
-0.00202032
0.00109387
0.00432011
0.00763761
0.0110254
0.0144622
0.0179242
0.0213838
0.0248014
0.0281248
0.0313058
0.0342621
0.0368916
0.0390966
0.0407425
0.041761
0.0420184
0.0411983
-0.0242523
-0.0250516
-0.0249937
-0.024405
-0.0233813
-0.0219398
-0.0201254
-0.0179689
-0.0155196
-0.0128169
-0.0098886
-0.00676944
-0.00348858
-6.92503e-05
0.00346831
0.00710573
0.0108252
0.0146099
0.0184406
0.0222935
0.0261324
0.0299084
0.033571
0.0370258
0.0401541
0.0428265
0.0448629
0.0461511
0.0465013
0.0455059
-0.0284785
-0.0294228
-0.0293385
-0.0286333
-0.0274307
-0.0257607
-0.0236802
-0.0212305
-0.0184698
-0.0154463
-0.012193
-0.00874705
-0.00513902
-0.00139177
0.0024766
0.00645122
0.0105194
0.0146702
0.0188912
0.023166
0.0274656
0.0317492
0.035968
0.040019
0.043768
0.0470476
0.049615
0.0512892
0.051785
0.0505487
-0.0333628
-0.0344938
-0.0343623
-0.033495
-0.0320575
-0.030098
-0.0276899
-0.0248877
-0.0217609
-0.018368
-0.0147483
-0.0109412
-0.00697847
-0.00288175
0.00133396
0.00565856
0.0100859
0.0146132
0.0192378
0.0239542
0.0287459
0.0335869
0.0384374
0.043194
0.0477139
0.0517884
0.0550931
0.0573406
0.0580801
0.0565083
-0.0390593
-0.0404309
-0.0402122
-0.0391107
-0.0373566
-0.035023
-0.0322048
-0.0289738
-0.0254129
-0.0215924
-0.0175584
-0.0133527
-0.00900722
-0.00454149
3.38311e-05
0.00471478
0.00950339
0.0144069
0.0194356
0.0245987
0.0298987
0.0353327
0.0408808
0.0464558
0.0519231
0.0570397
0.0613867
0.0645178
0.0656927
0.0636654
-0.0457984
-0.0474731
-0.0470878
-0.0456356
-0.0434438
-0.0406173
-0.0372782
-0.0335192
-0.029439
-0.0251206
-0.0206171
-0.015972
-0.0112158
-0.0063645
-0.00142286
0.00361281
0.00875415
0.0140201
0.0194361
0.0250299
0.0308289
0.036863
0.0431476
0.0496367
0.0562381
0.0627061
0.0685412
0.0730786
0.0750748
0.0725077
-0.0539561
-0.0559757
-0.0552643
-0.0532703
-0.0504603
-0.0469734
-0.042963
-0.0385464
-0.03384
-0.0289392
-0.0239032
-0.0187748
-0.013581
-0.00833176
-0.00302399
0.00235539
0.00782905
0.013427
0.019192
0.0251723
0.0314244
0.0380186
0.0450225
0.0524651
0.0603517
0.0685156
0.0764649
0.0832927
0.0869075
0.0840115
-0.0642025
-0.0664768
-0.0651178
-0.0622713
-0.0585748
-0.0541908
-0.0493041
-0.0440602
-0.0385937
-0.0330103
-0.0273711
-0.0217145
-0.0160592
-0.0104055
-0.00474016
0.000961488
0.00673616
0.0126165
0.0186688
0.0249586
0.0315709
0.0386182
0.0462307
0.0545444
0.0637293
0.0738627
0.0847125
0.0952925
0.10225
0.100328
-0.0778635
-0.0798001
-0.0771374
-0.0729455
-0.0679674
-0.0623477
-0.0563033
-0.050011
-0.0436207
-0.0372408
-0.0309258
-0.0247003
-0.0185676
-0.0125129
-0.00650914
-0.000519917
0.00549869
0.0116118
0.0178711
0.0243643
0.0311976
0.0385154
0.0465042
0.0554078
0.0655851
0.0776143
0.0920236
0.108468
0.122332
0.125618
-0.0980168
-0.0972449
-0.0918751
-0.0855404
-0.07868
-0.0713333
-0.0637536
-0.0561472
-0.048661
-0.0413837
-0.0343432
-0.0275342
-0.020933
-0.014502
-0.00819576
-0.00196386
0.00425091
0.0105188
0.0168948
0.0234773
0.030378
0.0377519
0.0458166
0.0548833
0.0652924
0.0784935
0.0962814
0.120652
0.147134
0.165513
-0.132235
-0.120084
-0.109456
-0.0996106
-0.0899353
-0.0802399
-0.0707488
-0.0616429
-0.0530015
-0.0448419
-0.0371298
-0.0298084
-0.0228145
-0.0160824
-0.00954541
-0.00313941
0.0032007
0.00954207
0.0159731
0.0225669
0.0294321
0.0367234
0.0446927
0.0538295
0.0635108
0.0773946
0.0979199
0.131583
0.176459
0.232714
-0.19113
-0.142854
-0.12629
-0.110991
-0.0977413
-0.0857628
-0.0747103
-0.0645323
-0.0551575
-0.0464915
-0.0384279
-0.0308589
-0.0236879
-0.0168281
-0.0102009
-0.00373357
0.00264336
0.00900118
0.0154117
0.0219752
0.0287657
0.0359438
0.0437448
0.0526064
0.0633246
0.0788595
0.104597
0.15249
0.225207
0.379006
-0.364669
-0.156036
-0.113922
-0.0986042
-0.0873035
-0.077561
-0.0686929
-0.0602445
-0.0520991
-0.044284
-0.0368148
-0.0296702
-0.0228099
-0.0161859
-0.00974456
-0.00343006
0.00281545
0.0090515
0.0153443
0.0217509
0.0284039
0.0354303
0.0430785
0.051907
0.0632611
0.0812026
0.114821
0.188777
0.330557
0.657704
)
;

boundaryField
{
    movingWall
    {
        type            zeroGradient;
    }
    fixedWalls
    {
        type            zeroGradient;
    }
    frontAndBack
    {
        type            empty;
    }
}


// ************************************************************************* //
