/*--------------------------------*- C++ -*----------------------------------*\
  =========                 |
  \\      /  F ield         | OpenFOAM: The Open Source CFD Toolbox
   \\    /   O peration     | Website:  https://openfoam.org
    \\  /    A nd           | Version:  7
     \\/     M anipulation  |
\*---------------------------------------------------------------------------*/
FoamFile
{
    version     2.0;
    format      ascii;
    class       surfaceScalarField;
    location    "0.5";
    object      phi;
}
// * * * * * * * * * * * * * * * * * * * * * * * * * * * * * * * * * * * * * //

dimensions      [0 3 -1 0 0 0 0];

internalField   nonuniform List<scalar> 
1740
(
-1.04182e-06
1.04181e-06
-3.84504e-06
2.80322e-06
-7.72606e-06
3.88102e-06
-1.16048e-05
3.8787e-06
-1.55245e-05
3.91978e-06
-1.91439e-05
3.6194e-06
-2.25806e-05
3.43669e-06
-2.56882e-05
3.10757e-06
-2.84938e-05
2.80564e-06
-3.09489e-05
2.45507e-06
-3.30085e-05
2.05964e-06
-3.46627e-05
1.65417e-06
-3.5893e-05
1.2303e-06
-3.66795e-05
7.86457e-07
-3.7011e-05
3.31518e-07
-3.68826e-05
-1.28369e-07
-3.629e-05
-5.92621e-07
-3.52333e-05
-1.05668e-06
-3.37253e-05
-1.50799e-06
-3.17809e-05
-1.94439e-06
-2.9398e-05
-2.38294e-06
-2.66174e-05
-2.78057e-06
-2.34958e-05
-3.12161e-06
-1.99796e-05
-3.51624e-06
-1.62436e-05
-3.73592e-06
-1.21255e-05
-4.11809e-06
-8.05488e-06
-4.07067e-06
-3.96056e-06
-4.09432e-06
-1.07028e-06
-2.89027e-06
-1.07028e-06
-2.97316e-06
4.01497e-06
-9.02341e-06
8.85347e-06
-1.64784e-05
1.1336e-05
-2.41213e-05
1.15216e-05
-3.16516e-05
1.14501e-05
-3.8768e-05
1.07358e-05
-4.54272e-05
1.00959e-05
-5.15027e-05
9.18314e-06
-5.69515e-05
8.25438e-06
-6.16978e-05
7.20136e-06
-6.56913e-05
6.05316e-06
-6.88849e-05
4.84774e-06
-7.12399e-05
3.58531e-06
-7.27284e-05
2.27495e-06
-7.333e-05
9.33103e-07
-7.30331e-05
-4.25196e-07
-7.18352e-05
-1.79057e-06
-6.97419e-05
-3.15002e-06
-6.67689e-05
-4.48092e-06
-6.2944e-05
-5.76935e-06
-5.83049e-05
-7.02199e-06
-5.28956e-05
-8.18989e-06
-4.67901e-05
-9.22707e-06
-4.00249e-05
-1.02815e-05
-3.27372e-05
-1.10236e-05
-2.49637e-05
-1.18916e-05
-1.70557e-05
-1.19787e-05
-9.31786e-06
-1.18321e-05
-3.0725e-06
-9.13563e-06
-4.14278e-06
-3.84958e-06
7.86455e-06
-1.14773e-05
1.64812e-05
-2.04286e-05
2.02872e-05
-2.96567e-05
2.07497e-05
-3.86142e-05
2.04076e-05
-4.71597e-05
1.92813e-05
-5.50933e-05
1.80295e-05
-6.23754e-05
1.64652e-05
-6.8875e-05
1.47539e-05
-7.45384e-05
1.28648e-05
-7.9304e-05
1.08187e-05
-8.31099e-05
8.65366e-06
-8.5911e-05
6.38645e-06
-8.76748e-05
4.03877e-06
-8.83789e-05
1.63717e-06
-8.80092e-05
-7.94956e-07
-8.65618e-05
-3.23792e-06
-8.40468e-05
-5.66507e-06
-8.04824e-05
-8.04528e-06
-7.58983e-05
-1.03535e-05
-7.03495e-05
-1.25708e-05
-6.38943e-05
-1.4645e-05
-5.6575e-05
-1.65464e-05
-4.85388e-05
-1.83176e-05
-3.98181e-05
-1.97444e-05
-3.06415e-05
-2.10681e-05
-2.11468e-05
-2.14733e-05
-1.19123e-05
-2.10666e-05
-4.00883e-06
-1.70391e-05
-8.15161e-06
-4.24198e-06
1.21065e-05
-1.26114e-05
2.48507e-05
-2.22571e-05
2.99329e-05
-3.2185e-05
3.06776e-05
-4.17717e-05
2.99943e-05
-5.09309e-05
2.84405e-05
-5.94247e-05
2.65233e-05
-6.72242e-05
2.42648e-05
-7.41854e-05
2.17151e-05
-8.0247e-05
1.89264e-05
-8.53463e-05
1.5918e-05
-8.94185e-05
1.27259e-05
-9.24171e-05
9.38499e-06
-9.4308e-05
5.9297e-06
-9.50656e-05
2.39483e-06
-9.46738e-05
-1.18682e-06
-9.31302e-05
-4.78154e-06
-9.04443e-05
-8.35095e-06
-8.66351e-05
-1.18545e-05
-8.17336e-05
-1.52549e-05
-7.57972e-05
-1.85072e-05
-6.88844e-05
-2.15579e-05
-6.10437e-05
-2.43871e-05
-5.24371e-05
-2.69242e-05
-4.30832e-05
-2.90982e-05
-3.32597e-05
-3.08916e-05
-2.30333e-05
-3.16998e-05
-1.30839e-05
-3.1016e-05
-4.4068e-06
-2.57162e-05
-1.25584e-05
-4.49755e-06
1.66041e-05
-1.3329e-05
3.36821e-05
-2.34791e-05
4.0083e-05
-3.3894e-05
4.10925e-05
-4.39403e-05
4.00406e-05
-5.35307e-05
3.80308e-05
-6.2425e-05
3.54177e-05
-7.05827e-05
3.24224e-05
-7.7867e-05
2.89994e-05
-8.42093e-05
2.52687e-05
-8.95433e-05
2.12521e-05
-9.38051e-05
1.69877e-05
-9.69482e-05
1.25281e-05
-9.8937e-05
7.91849e-06
-9.97443e-05
3.20216e-06
-9.9354e-05
-1.57714e-06
-9.77623e-05
-6.37321e-06
-9.49775e-05
-1.11358e-05
-9.10168e-05
-1.58152e-05
-8.59112e-05
-2.03605e-05
-7.97146e-05
-2.47037e-05
-7.24846e-05
-2.87879e-05
-6.42778e-05
-3.2594e-05
-5.52485e-05
-3.59534e-05
-4.54249e-05
-3.89219e-05
-3.50864e-05
-4.12301e-05
-2.43103e-05
-4.24759e-05
-1.3809e-05
-4.15173e-05
-4.65353e-06
-3.48717e-05
-1.72119e-05
-4.73538e-06
2.13395e-05
-1.40118e-05
4.29586e-05
-2.47065e-05
5.07776e-05
-3.56536e-05
5.20397e-05
-4.62167e-05
5.06038e-05
-5.62771e-05
4.80912e-05
-6.56079e-05
4.47485e-05
-7.41547e-05
4.09692e-05
-8.17876e-05
3.66323e-05
-8.84304e-05
3.19115e-05
-9.40156e-05
2.68373e-05
-9.84827e-05
2.14548e-05
-0.000101784
1.58295e-05
-0.000103883
1.00172e-05
-0.000104752
4.07103e-06
-0.000104374
-1.95482e-06
-0.000102744
-8.00273e-06
-9.98673e-05
-1.4013e-05
-9.57577e-05
-1.99247e-05
-9.0445e-05
-2.56733e-05
-8.39778e-05
-3.11709e-05
-7.64116e-05
-3.63541e-05
-6.78099e-05
-4.11957e-05
-5.83146e-05
-4.54487e-05
-4.7971e-05
-4.92655e-05
-3.70471e-05
-5.2154e-05
-2.56629e-05
-5.38601e-05
-1.4544e-05
-5.26362e-05
-4.90276e-06
-4.4513e-05
-2.21147e-05
-5.00543e-06
2.63449e-05
-1.48137e-05
5.27669e-05
-2.61651e-05
6.2129e-05
-3.77614e-05
6.3636e-05
-4.89555e-05
6.17979e-05
-5.95931e-05
5.87288e-05
-6.94566e-05
5.4612e-05
-7.8476e-05
4.99886e-05
-8.65275e-05
4.46837e-05
-9.35297e-05
3.89136e-05
-9.94168e-05
3.27245e-05
-0.00010413
2.61677e-05
-0.000107621
1.93209e-05
-0.000109854
1.22502e-05
-0.000110801
5.01767e-06
-0.000110444
-2.31158e-06
-0.000108775
-9.67144e-06
-0.000105795
-1.69928e-05
-0.000101516
-2.42047e-05
-9.59613e-05
-3.12276e-05
-8.91757e-05
-3.79564e-05
-8.12101e-05
-4.43197e-05
-7.21326e-05
-5.02732e-05
-6.20742e-05
-5.55071e-05
-5.10981e-05
-6.02415e-05
-3.94628e-05
-6.37894e-05
-2.73365e-05
-6.59863e-05
-1.5463e-05
-6.45097e-05
-5.21279e-06
-5.47632e-05
-2.73275e-05
-5.32964e-06
3.16745e-05
-1.57891e-05
6.32263e-05
-2.79335e-05
7.42734e-05
-4.03241e-05
7.60267e-05
-5.22856e-05
7.37593e-05
-6.36271e-05
7.00703e-05
-7.41339e-05
6.51187e-05
-8.37216e-05
5.95763e-05
-9.22729e-05
5.32351e-05
-9.9704e-05
4.63447e-05
-0.000105951
3.89709e-05
-0.000110955
3.11724e-05
-0.000114673
2.30383e-05
-0.000117066
1.46441e-05
-0.000118109
6.06061e-06
-0.000117782
-2.63865e-06
-0.000116074
-1.138e-05
-0.00011298
-2.0087e-05
-0.000108505
-2.86789e-05
-0.000102671
-3.70616e-05
-9.55125e-05
-4.51153e-05
-8.70744e-05
-5.27578e-05
-7.74277e-05
-5.99199e-05
-6.66936e-05
-6.62413e-05
-5.49523e-05
-7.19828e-05
-4.24574e-05
-7.62843e-05
-2.94247e-05
-7.9019e-05
-1.66289e-05
-7.73055e-05
-5.60717e-06
-6.5785e-05
-3.29347e-05
-5.72414e-06
3.73987e-05
-1.69755e-05
7.44777e-05
-3.00684e-05
8.73663e-05
-4.34128e-05
8.9371e-05
-5.62882e-05
8.66348e-05
-6.84659e-05
8.2248e-05
-7.97308e-05
7.63836e-05
-8.99867e-05
6.98323e-05
-9.91223e-05
6.23707e-05
-0.000107052
5.42747e-05
-0.000113715
4.56335e-05
-0.000119057
3.65145e-05
-0.000123036
2.70175e-05
-0.000125619
1.72267e-05
-0.000126778
7.21952e-06
-0.000126492
-2.92418e-06
-0.000124746
-1.31256e-05
-0.000121531
-2.33028e-05
-0.000116843
-3.33662e-05
-0.000110696
-4.32095e-05
-0.000103111
-5.26996e-05
-9.41279e-05
-6.17412e-05
-8.38152e-05
-7.02327e-05
-7.22846e-05
-7.77718e-05
-5.96321e-05
-8.46353e-05
-4.61111e-05
-8.98054e-05
-3.19842e-05
-9.31458e-05
-1.80735e-05
-9.12162e-05
-6.09753e-06
-7.7761e-05
-3.90322e-05
-6.206e-06
4.36047e-05
-1.84129e-05
8.66846e-05
-3.26296e-05
0.000101583
-4.70985e-05
0.00010384
-6.10424e-05
0.000100579
-7.41949e-05
9.54005e-05
-8.63374e-05
8.85261e-05
-9.7363e-05
8.08579e-05
-0.000107166
7.21736e-05
-0.000115662
6.27704e-05
-0.000122794
5.27658e-05
-0.000128517
4.22372e-05
-0.000132792
3.12931e-05
-0.000135591
2.00252e-05
-0.000136887
8.51563e-06
-0.000136658
-3.15274e-06
-0.000134884
-1.48996e-05
-0.000131547
-2.664e-05
-0.000126636
-3.82776e-05
-0.000120148
-4.96971e-05
-0.000112094
-6.07538e-05
-0.000102497
-7.13375e-05
-9.14226e-05
-8.13076e-05
-7.89692e-05
-9.02252e-05
-6.52457e-05
-9.83588e-05
-5.05102e-05
-0.000104541
-3.50739e-05
-0.000108582
-1.98267e-05
-0.000106463
-6.69322e-06
-9.08945e-05
-4.57254e-05
-6.78847e-06
5.03931e-05
-2.01363e-05
0.000100032
-3.56755e-05
0.000117122
-5.14586e-05
0.000119623
-6.66401e-05
0.00011576
-8.09154e-05
0.000109676
-9.40589e-05
0.00010167
-0.000105955
9.27537e-05
-0.000116504
8.27233e-05
-0.000125628
7.18942e-05
-0.000133279
6.04163e-05
-0.00013942
4.83784e-05
-0.000144023
3.5896e-05
-0.000147063
2.30657e-05
-0.000148519
9.97176e-06
-0.000148368
-3.30422e-06
-0.000146582
-1.66855e-05
-0.000143134
-3.00878e-05
-0.000137999
-4.34123e-05
-0.000131158
-5.65382e-05
-0.000122601
-6.93113e-05
-0.000112332
-8.16061e-05
-0.000100403
-9.32366e-05
-8.68969e-05
-0.000103732
-7.19293e-05
-0.000113326
-5.57668e-05
-0.000120703
-3.87728e-05
-0.000125576
-2.19308e-05
-0.000123305
-7.4074e-06
-0.000105418
-5.31328e-05
-7.48392e-06
5.78771e-05
-2.21844e-05
0.000114733
-3.92747e-05
0.000134212
-5.65878e-05
0.000136936
-7.31943e-05
0.000132367
-8.87503e-05
0.000125232
-0.000103021
0.00011594
-0.000115885
0.000105618
-0.000127255
9.40932e-05
-0.000137061
8.17004e-05
-0.00014527
6.86248e-05
-0.00015186
5.49683e-05
-0.000156815
4.08512e-05
-0.000160121
2.63716e-05
-0.000161761
1.16116e-05
-0.000161712
-3.35353e-06
-0.00015994
-1.84575e-05
-0.000156405
-3.36219e-05
-0.000151066
-4.87521e-05
-0.000143877
-6.37271e-05
-0.000134801
-7.83869e-05
-0.000123816
-9.25916e-05
-0.000110948
-0.000106104
-9.62577e-05
-0.000118422
-7.98601e-05
-0.000129724
-6.20313e-05
-0.000138532
-4.31921e-05
-0.000144415
-2.44493e-05
-0.000142048
-8.2613e-06
-0.000121606
-6.13941e-05
-8.30954e-06
6.61866e-05
-2.46092e-05
0.000131033
-4.35171e-05
0.00015312
-6.26066e-05
0.000156026
-8.08468e-05
0.000150607
-9.78517e-05
0.000142237
-0.000113378
0.000131467
-0.000127302
0.000119543
-0.000139555
0.000106346
-0.000150085
9.223e-05
-0.000158877
7.74173e-05
-0.000165934
6.20246e-05
-0.000171257
4.61745e-05
-0.000174847
2.99618e-05
-0.000176696
1.34601e-05
-0.00017678
-3.26895e-06
-0.000175061
-2.0177e-05
-0.000171482
-3.72002e-05
-0.000165978
-5.42565e-05
-0.000158473
-7.12325e-05
-0.000148891
-8.79689e-05
-0.000137168
-0.000104314
-0.000123296
-0.000119976
-0.000107295
-0.000134423
-8.92709e-05
-0.000147748
-6.95065e-05
-0.000158297
-4.8486e-05
-0.000165436
-2.74743e-05
-0.00016306
-9.28677e-06
-0.000139793
-7.06809e-05
-9.28972e-06
7.54763e-05
-2.74813e-05
0.000149224
-4.85211e-05
0.00017416
-6.96711e-05
0.000177176
-8.97775e-05
0.000170713
-0.00010841
0.000160869
-0.000125317
0.000148374
-0.000140384
0.000134609
-0.000153564
0.000119527
-0.000164837
0.000103503
-0.00017422
8.67995e-05
-0.000181742
6.95473e-05
-0.000187436
5.1868e-05
-0.000191321
3.38468e-05
-0.000193401
1.5541e-05
-0.000193659
-3.01167e-06
-0.000192045
-2.17904e-05
-0.000188489
-4.07568e-05
-0.000182891
-5.9854e-05
-0.000175137
-7.8987e-05
-0.000165099
-9.80069e-05
-0.000152657
-0.000116755
-0.000137744
-0.00013489
-0.000120322
-0.000151844
-0.000100468
-0.000167602
-7.84651e-05
-0.0001803
-5.48656e-05
-0.000189035
-3.11337e-05
-0.000186792
-1.05284e-05
-0.000160399
-8.12093e-05
-1.04583e-05
8.59346e-05
-3.08973e-05
0.000169663
-5.44453e-05
0.000197708
-7.7987e-05
0.000200717
-0.00010022
0.000192946
-0.000120665
0.000181315
-0.000139072
0.00016678
-0.000155341
0.000150878
-0.000169467
0.000133653
-0.000181474
0.00011551
-0.000191422
9.67469e-05
-0.000199384
7.75101e-05
-0.00020543
5.79138e-05
-0.000209608
3.80251e-05
-0.000211942
1.78746e-05
-0.000212418
-2.5355e-06
-0.000210983
-2.3226e-05
-0.000207543
-4.41966e-05
-0.000201964
-6.54325e-05
-0.000194078
-8.68729e-05
-0.000183691
-0.000108395
-0.000170603
-0.000129843
-0.000154661
-0.000150832
-0.00013574
-0.000170765
-0.000113856
-0.000189486
-8.92754e-05
-0.00020488
-6.26207e-05
-0.00021569
-3.56046e-05
-0.000213808
-1.20475e-05
-0.000183956
-9.32568e-05
-1.1864e-05
9.77986e-05
-3.49926e-05
0.000192792
-6.15079e-05
0.000224223
-8.78309e-05
0.00022704
-0.000112479
0.000217594
-0.000134926
0.000203762
-0.00015493
0.000186784
-0.000172428
0.000168377
-0.000187478
0.000148703
-0.000200164
0.000128196
-0.000210611
0.000107194
-0.000218951
8.58509e-05
-0.000225304
6.42663e-05
-0.000229756
4.24775e-05
-0.000232357
2.04754e-05
-0.000233106
-1.7871e-06
-0.000231941
-2.43906e-05
-0.000228749
-4.73887e-05
-0.000223353
-7.08284e-05
-0.00021552
-9.47065e-05
-0.000204966
-0.000118949
-0.000191388
-0.00014342
-0.000174508
-0.000167712
-0.000154067
-0.000191207
-0.000129975
-0.000213577
-0.000102443
-0.000232413
-7.21565e-05
-0.000245976
-4.11372e-05
-0.000244827
-1.39301e-05
-0.000211163
-0.000107187
-1.35773e-05
0.000111376
-3.99601e-05
0.000219175
-7.00119e-05
0.000254275
-9.95775e-05
0.000256606
-0.000126959
0.000244975
-0.000151587
0.00022839
-0.00017325
0.000208447
-0.000191953
0.000187079
-0.00020784
0.00016459
-0.000221089
0.000141446
-0.000231912
0.000118016
-0.00024052
9.44588e-05
-0.000247095
7.08418e-05
-0.000251778
4.71597e-05
-0.000254649
2.33471e-05
-0.000255729
-7.07463e-07
-0.000254952
-2.51678e-05
-0.000252182
-5.01584e-05
-0.000247196
-7.58142e-05
-0.000239685
-0.000102218
-0.000229255
-0.000129378
-0.000215465
-0.000157211
-0.000197858
-0.000185319
-0.000175978
-0.000213087
-0.000149555
-0.00024
-0.000118674
-0.000263294
-8.40564e-05
-0.000280594
-4.80991e-05
-0.000280784
-1.63037e-05
-0.000242958
-0.000123491
-1.5702e-05
0.000127078
-4.60779e-05
0.000249551
-8.03836e-05
0.000288581
-0.000113739
0.000289961
-0.000144194
0.00027543
-0.000171156
0.000255352
-0.00019448
0.000231771
-0.000214279
0.000206879
-0.000230831
0.000181141
-0.000244442
0.000155057
-0.000255441
0.000129015
-0.00026414
0.000103158
-0.000270805
7.75071e-05
-0.000275639
5.19935e-05
-0.000278767
2.64756e-05
-0.000280241
7.65999e-07
-0.00027999
-2.54189e-05
-0.000277865
-5.2283e-05
-0.000273594
-8.0085e-05
-0.000266783
-0.000109029
-0.00025691
-0.000139251
-0.000243352
-0.000170769
-0.000225416
-0.000203255
-0.000202351
-0.000236152
-0.000173594
-0.000268757
-0.000138979
-0.000297909
-9.91859e-05
-0.000320386
-5.70533e-05
-0.000322917
-1.93677e-05
-0.000280644
-0.000142858
-1.83956e-05
0.000145474
-5.37551e-05
0.00028491
-9.32325e-05
0.000328058
-0.000131026
0.000327755
-0.000164903
0.000309307
-0.000194288
0.000284737
-0.000219172
0.000256655
-0.00023984
0.000227547
-0.000256759
0.00019806
-0.000270415
0.000168712
-0.000281289
0.000139889
-0.000289822
0.000111691
-0.00029638
8.40651e-05
-0.000301244
5.68568e-05
-0.000304595
2.98273e-05
-0.000306508
2.67923e-06
-0.000306949
-2.49787e-05
-0.000305744
-5.34878e-05
-0.000302581
-8.32483e-05
-0.00029698
-0.00011463
-0.000288277
-0.000147953
-0.000275631
-0.000183415
-0.000258035
-0.000220851
-0.000234325
-0.000259862
-0.000203465
-0.000299617
-0.000164825
-0.000336549
-0.000118868
-0.000366344
-6.88977e-05
-0.000372887
-2.34531e-05
-0.000326089
-0.000166311
-2.1907e-05
0.000167381
-6.36125e-05
0.000326615
-0.000109447
0.000373893
-0.000152434
0.000370742
-0.000190054
0.000346927
-0.000221834
0.000316517
-0.00024801
0.000282832
-0.00026914
0.000248677
-0.000285958
0.000214878
-0.00029919
0.000181945
-0.000309512
0.000150211
-0.000317518
0.000119697
-0.000323693
9.02402e-05
-0.000328406
6.15703e-05
-0.000331907
3.33277e-05
-0.000334309
5.08151e-06
-0.000335613
-2.36746e-05
-0.000335648
-5.34531e-05
-0.000334074
-8.48217e-05
-0.000330342
-0.000118362
-0.000323647
-0.000154649
-0.000312904
-0.000194158
-0.000296718
-0.000237038
-0.000273361
-0.000283218
-0.00024107
-0.000331908
-0.000198385
-0.000379234
-0.000145185
-0.000419544
-8.51345e-05
-0.000432938
-2.91504e-05
-0.000382073
-0.000195462
-2.66492e-05
0.00019403
-7.66207e-05
0.000376587
-0.000130349
0.000427621
-0.000179375
0.000419768
-0.000220953
0.000388505
-0.000254884
0.000350448
-0.000281824
0.000309772
-0.000302748
0.000269601
-0.000318764
0.000230893
-0.000330908
0.000194089
-0.000340094
0.000159397
-0.000347091
0.000126694
-0.000352516
9.56646e-05
-0.000356832
6.58868e-05
-0.00036036
3.6856e-05
-0.000363275
7.99649e-06
-0.000365614
-2.13356e-05
-0.00036724
-5.18276e-05
-0.000367819
-8.42427e-05
-0.000366766
-0.000119415
-0.00036317
-0.000158245
-0.000355715
-0.000201613
-0.000342566
-0.000250187
-0.000321277
-0.000304507
-0.000289014
-0.000364171
-0.000242904
-0.000425343
-0.000181514
-0.000480934
-0.000108406
-0.000506046
-3.76031e-05
-0.000452876
-0.000233065
-3.33439e-05
0.000227374
-9.43467e-05
0.00043759
-0.000157936
0.000491211
-0.000213856
0.000475688
-0.000259352
0.000434
-0.000294808
0.000385904
-0.000321582
0.000336546
-0.000341265
0.000289283
-0.000355468
0.000245097
-0.000365618
0.000204238
-0.000372898
0.000166677
-0.000378266
0.000132063
-0.00038247
9.98685e-05
-0.000386066
6.94825e-05
-0.000389444
4.02341e-05
-0.000392845
1.1397e-05
-0.000396364
-1.78162e-05
-0.000399931
-4.82609e-05
-0.00040327
-8.09038e-05
-0.000405831
-0.000116854
-0.000406681
-0.000157395
-0.000404352
-0.000203942
-0.000396598
-0.000257941
-0.000380153
-0.000320952
-0.000350731
-0.000393593
-0.000303185
-0.00047289
-0.000233406
-0.000550713
-0.000143545
-0.000595907
-5.11884e-05
-0.000545233
-0.000284253
-4.33236e-05
0.000270697
-0.000119392
0.000513658
-0.000195253
0.000567072
-0.000258703
0.000539138
-0.00030752
0.000482817
-0.000343219
0.000421603
-0.000368273
0.000361599
-0.000385156
0.000306167
-0.000396135
0.000256075
-0.000403082
0.000211185
-0.000407472
0.000171067
-0.00041044
0.000135031
-0.000412842
0.00010227
-0.000415304
7.19452e-05
-0.000418277
4.32067e-05
-0.000422062
1.51823e-05
-0.000426834
-1.30439e-05
-0.000432629
-4.24664e-05
-0.000439299
-7.42334e-05
-0.000446441
-0.000109712
-0.000453255
-0.000150581
-0.000458313
-0.000198884
-0.000459156
-0.000257098
-0.000451783
-0.000328325
-0.000430187
-0.000415189
-0.000385857
-0.00051722
-0.000309714
-0.000626856
-0.000199378
-0.000706243
-7.49818e-05
-0.000669629
-0.000359235
-5.91609e-05
0.000329858
-0.00015613
0.000610628
-0.000246834
0.000657776
-0.00031763
0.000609934
-0.000368001
0.000533188
-0.000401491
0.000455093
-0.000422275
0.000382384
-0.000434033
0.000317925
-0.000439814
0.000261856
-0.000441964
0.000213335
-0.000442216
0.000171319
-0.000441829
0.000134644
-0.000441709
0.000102151
-0.000442511
7.27465e-05
-0.000444706
4.5402e-05
-0.000448644
1.91205e-05
-0.000454584
-7.1044e-06
-0.00046271
-3.43407e-05
-0.000473084
-6.38589e-05
-0.000485591
-9.72051e-05
-0.000499793
-0.000136379
-0.000514649
-0.000184028
-0.000527951
-0.000243795
-0.000535471
-0.000320806
-0.000529691
-0.000420969
-0.000497825
-0.000549086
-0.000422544
-0.000702137
-0.000290594
-0.000838193
-0.000119227
-0.000840995
-0.000478463
-8.58912e-05
0.000415749
-0.000211613
0.000736349
-0.000318541
0.000764704
-0.000394025
0.000685418
-0.000441573
0.000580736
-0.000468132
0.000481652
-0.000480321
0.000394573
-0.000483336
0.00032094
-0.000481048
0.000259568
-0.000476195
0.000208482
-0.000470643
0.000165766
-0.000465646
0.000129647
-0.000462052
9.85566e-05
-0.000460448
7.11431e-05
-0.00046127
4.62234e-05
-0.000464871
2.27221e-05
-0.000471552
-4.23754e-07
-0.000481703
-2.41898e-05
-0.000495636
-4.99255e-05
-0.00051366
-7.91815e-05
-0.000535961
-0.000114078
-0.000562351
-0.000157638
-0.000591644
-0.000214502
-0.000620541
-0.000291908
-0.000641314
-0.000400196
-0.000637284
-0.000553116
-0.000579818
-0.000759603
-0.000434639
-0.000983371
-0.000200651
-0.00107498
-0.000679113
-0.000132947
0.000548697
-0.000295034
0.000898436
-0.000413185
0.000882855
-0.000483371
0.000755604
-0.000517284
0.000614649
-0.000527157
0.000491526
-0.000522766
0.000390181
-0.000510876
0.00030905
-0.000495923
0.000244615
-0.000480691
0.00019325
-0.000466851
0.000151927
-0.000455383
0.00011818
-0.000446863
9.00363e-05
-0.000441656
6.59357e-05
-0.000440038
4.46052e-05
-0.000442286
2.49706e-05
-0.000448671
5.96067e-06
-0.000459729
-1.31316e-05
-0.000476028
-3.36266e-05
-0.00049833
-5.68794e-05
-0.000527594
-8.48132e-05
-0.000564863
-0.00012037
-0.000610819
-0.000168546
-0.00066473
-0.000237997
-0.000721493
-0.000343433
-0.00076411
-0.000510499
-0.000753924
-0.000769789
-0.000626376
-0.00111092
-0.000332539
-0.00136882
-0.00101165
-0.000215638
0.000764335
-0.000406533
0.00108933
-0.000506484
0.000982805
-0.000540148
0.000789268
-0.000533731
0.000608232
-0.000506236
0.000464032
-0.000470132
0.000354077
-0.000432633
0.000271551
-0.000397553
0.000209536
-0.000366727
0.000162424
-0.000340878
0.000126077
-0.000320174
9.74754e-05
-0.000304537
7.43993e-05
-0.000293858
5.52574e-05
-0.00028805
3.87972e-05
-0.000287148
2.40684e-05
-0.000291383
1.01956e-05
-0.000301054
-3.46081e-06
-0.000317001
-1.76792e-05
-0.000340219
-3.36615e-05
-0.000372254
-5.27781e-05
-0.000415302
-7.73218e-05
-0.000472112
-0.000111736
-0.000545566
-0.000164544
-0.000636922
-0.000252076
-0.000736336
-0.000411085
-0.000808409
-0.000697716
-0.000765217
-0.00115411
-0.00048657
-0.00164747
-0.00149822
-0.000342963
0.0011073
-0.000467044
0.00121341
-0.000449656
0.000965417
-0.000368134
0.000707745
-0.000267313
0.000507411
-0.000167528
0.000364246
-7.78337e-05
0.000264383
-1.24413e-06
0.000194961
6.22227e-05
0.000146069
0.000113805
0.000110842
0.000155032
8.48496e-05
0.000187351
6.51562e-05
0.000211951
4.97992e-05
0.000229798
3.74106e-05
0.000241513
2.70825e-05
0.00024747
1.81108e-05
0.000247733
9.93352e-06
0.000242257
2.01508e-06
0.000230389
-5.81125e-06
0.000211206
-1.44787e-05
0.000183057
-2.46287e-05
0.00014341
-3.76751e-05
8.80009e-05
-5.6327e-05
1.04705e-05
-8.70134e-05
-9.60973e-05
-0.000145509
-0.000240473
-0.000266709
-0.000414666
-0.000523524
-0.000549803
-0.00101897
-0.000485412
-0.00171186
-0.00198363
-0.000286676
0.00139397
-5.44302e-05
0.000981167
0.000299968
0.000611019
0.000604609
0.000403104
0.000847377
0.000264644
0.001037
0.00017462
0.00118327
0.000118115
0.00129566
8.25718e-05
0.00138214
5.95868e-05
0.00144886
4.41264e-05
0.00150041
3.32971e-05
0.00154016
2.54098e-05
0.00157051
1.94449e-05
0.00159317
1.47498e-05
0.00160933
1.0923e-05
0.00161976
7.68089e-06
0.00162489
4.80653e-06
0.00162475
2.14965e-06
0.00161944
-4.98175e-07
0.00160826
-3.30091e-06
0.00159007
-6.43938e-06
0.00156285
-1.04529e-05
0.00152282
-1.62978e-05
0.00146251
-2.67038e-05
0.00136618
-4.91712e-05
0.00120561
-0.00010614
0.00093244
-0.000250358
0.000513694
-0.000600228
9.94473e-05
-0.00129761
-0.00188419
0.00139397
0.00237514
0.00298616
0.00338926
0.00365391
0.00382853
0.00394664
0.00402921
0.0040888
0.00413293
0.00416622
0.00419163
0.00421108
0.00422583
0.00423675
0.00424443
0.00424924
0.00425139
0.00425089
0.00424759
0.00424115
0.0042307
0.0042144
0.0041877
0.00413852
0.00403238
0.00378203
0.0031818
0.00188419
)
;

boundaryField
{
    movingWall
    {
        type            calculated;
        value           uniform 0;
    }
    fixedWalls
    {
        type            calculated;
        value           uniform 0;
    }
    frontAndBack
    {
        type            empty;
        value           nonuniform 0();
    }
}


// ************************************************************************* //
