/*--------------------------------*- C++ -*----------------------------------*\
  =========                 |
  \\      /  F ield         | OpenFOAM: The Open Source CFD Toolbox
   \\    /   O peration     | Website:  https://openfoam.org
    \\  /    A nd           | Version:  7
     \\/     M anipulation  |
\*---------------------------------------------------------------------------*/
FoamFile
{
    version     2.0;
    format      ascii;
    class       volVectorField;
    location    "0.5";
    object      U;
}
// * * * * * * * * * * * * * * * * * * * * * * * * * * * * * * * * * * * * * //

dimensions      [0 1 -1 0 0 0 0];

internalField   nonuniform List<vector> 
900
(
(6.63963e-05 3.9596e-05 0)
(-0.000463991 0.000153382 0)
(-0.000836036 0.000238426 0)
(-0.00171127 0.000232368 0)
(-0.00218341 0.000241196 0)
(-0.00295929 0.000218048 0)
(-0.00344481 0.00021046 0)
(-0.00405453 0.000188665 0)
(-0.00452094 0.000171686 0)
(-0.00496173 0.000150877 0)
(-0.00534439 0.000126289 0)
(-0.00565285 0.000101877 0)
(-0.00589313 7.64304e-05 0)
(-0.00606163 4.94279e-05 0)
(-0.00615529 2.17216e-05 0)
(-0.00617246 -6.22291e-06 0)
(-0.006112 -3.46416e-05 0)
(-0.00597387 -6.32049e-05 0)
(-0.00576058 -9.069e-05 0)
(-0.00547589 -0.000117214 0)
(-0.00510832 -0.000145072 0)
(-0.00467061 -0.000169514 0)
(-0.00421712 -0.000189047 0)
(-0.00358112 -0.000216423 0)
(-0.00310534 -0.000226512 0)
(-0.00226988 -0.000257484 0)
(-0.00180307 -0.000247514 0)
(-0.000849199 -0.000255844 0)
(-0.000494097 -0.000158431 0)
(8.5801e-05 -4.03688e-05 0)
(0.000132676 0.00035937 0)
(-0.00120564 0.000860765 0)
(-0.00181626 0.00115336 0)
(-0.00363266 0.00116015 0)
(-0.00445741 0.00116591 0)
(-0.00603611 0.00108258 0)
(-0.00693634 0.00102449 0)
(-0.00815206 0.000928113 0)
(-0.00904981 0.000836689 0)
(-0.00990402 0.000731201 0)
(-0.0106481 0.000613977 0)
(-0.0112444 0.000492521 0)
(-0.0117065 0.000365499 0)
(-0.0120278 0.000233008 0)
(-0.012203 9.72202e-05 0)
(-0.0122288 -4.01168e-05 0)
(-0.0121033 -0.000178463 0)
(-0.0118274 -0.0003165 0)
(-0.0114065 -0.000451193 0)
(-0.0108472 -0.000581578 0)
(-0.0101242 -0.000710739 0)
(-0.00927108 -0.000829329 0)
(-0.0084012 -0.000932045 0)
(-0.00713097 -0.001046 0)
(-0.00626853 -0.00111488 0)
(-0.00457576 -0.00121915 0)
(-0.00380315 -0.00121254 0)
(-0.00183127 -0.00121088 0)
(-0.00129425 -0.000886417 0)
(0.000185411 -0.000369253 0)
(0.000191315 0.000969771 0)
(-0.00157176 0.00207035 0)
(-0.002262 0.00259566 0)
(-0.00449773 0.00264706 0)
(-0.00544486 0.00261704 0)
(-0.00736102 0.00246297 0)
(-0.00841842 0.00230925 0)
(-0.00988271 0.00210461 0)
(-0.0109516 0.00188837 0)
(-0.011972 0.0016469 0)
(-0.0128601 0.00138475 0)
(-0.0135711 0.00110832 0)
(-0.0141213 0.000818681 0)
(-0.014503 0.000518427 0)
(-0.0147101 0.000211207 0)
(-0.0147382 -9.97926e-05 0)
(-0.0145854 -0.000412232 0)
(-0.0142535 -0.000723037 0)
(-0.0137485 -0.00102768 0)
(-0.0130782 -0.00132283 0)
(-0.0122123 -0.0016078 0)
(-0.0111915 -0.00187395 0)
(-0.0101563 -0.00211457 0)
(-0.0086266 -0.00234866 0)
(-0.00762208 -0.00252521 0)
(-0.00557266 -0.00270911 0)
(-0.00470738 -0.00274492 0)
(-0.00228386 -0.00270152 0)
(-0.00170039 -0.00213845 0)
(0.000262554 -0.00100339 0)
(0.000211814 0.00165553 0)
(-0.00173304 0.00342767 0)
(-0.00247513 0.00416766 0)
(-0.00489051 0.0042681 0)
(-0.00589815 0.00418451 0)
(-0.00795582 0.0039616 0)
(-0.00908534 0.00369917 0)
(-0.0106549 0.00338127 0)
(-0.0117995 0.00302777 0)
(-0.012892 0.00263945 0)
(-0.0138421 0.00221998 0)
(-0.0146033 0.00177518 0)
(-0.0151924 0.00130936 0)
(-0.015601 0.000827433 0)
(-0.0158228 0.000334557 0)
(-0.0158536 -0.000164735 0)
(-0.0156912 -0.000666106 0)
(-0.0153371 -0.00116414 0)
(-0.0147973 -0.00165267 0)
(-0.0140805 -0.00212638 0)
(-0.0131544 -0.0025801 0)
(-0.0120624 -0.00300548 0)
(-0.0109533 -0.00339783 0)
(-0.00931361 -0.00375585 0)
(-0.00823981 -0.00405364 0)
(-0.00603819 -0.00431281 0)
(-0.00511828 -0.00441183 0)
(-0.00249786 -0.00432156 0)
(-0.00187323 -0.00354583 0)
(0.000292151 -0.00171714 0)
(0.000206465 0.00238476 0)
(-0.00182042 0.00486271 0)
(-0.00262456 0.00581655 0)
(-0.00514601 0.00596299 0)
(-0.00621417 0.00581944 0)
(-0.00836013 0.00552355 0)
(-0.00955009 0.00514743 0)
(-0.0111876 0.00471101 0)
(-0.0123881 0.00421498 0)
(-0.0135299 0.00367337 0)
(-0.0145238 0.00308948 0)
(-0.0153208 0.00246955 0)
(-0.0159374 0.00182109 0)
(-0.0163658 0.00115075 0)
(-0.0165999 0.000464851 0)
(-0.0166355 -0.000230276 0)
(-0.0164694 -0.000927915 0)
(-0.0161028 -0.00162049 0)
(-0.0155422 -0.00230048 0)
(-0.0147957 -0.00296066 0)
(-0.01383 -0.00359159 0)
(-0.0126913 -0.00418423 0)
(-0.0115263 -0.00473516 0)
(-0.00981537 -0.00522443 0)
(-0.00867792 -0.00565065 0)
(-0.00637736 -0.00599066 0)
(-0.00539012 -0.00616058 0)
(-0.00264919 -0.00602428 0)
(-0.00196131 -0.00503337 0)
(0.000290225 -0.0024731 0)
(0.000192615 0.00315372 0)
(-0.00189291 0.00636974 0)
(-0.00277773 0.00755047 0)
(-0.00539999 0.00773957 0)
(-0.00654838 0.00753318 0)
(-0.00878243 0.00715759 0)
(-0.0100451 0.00666311 0)
(-0.0117515 0.00610066 0)
(-0.0130156 0.00545586 0)
(-0.0142095 0.00475331 0)
(-0.0152499 0.00399761 0)
(-0.0160853 0.00319569 0)
(-0.0167319 0.0023573 0)
(-0.0171825 0.00149076 0)
(-0.0174312 0.000604069 0)
(-0.0174732 -0.0002945 0)
(-0.0173049 -0.00119619 0)
(-0.0169273 -0.00209171 0)
(-0.0163471 -0.002972 0)
(-0.0155705 -0.00382757 0)
(-0.0145639 -0.00464527 0)
(-0.013378 -0.00541507 0)
(-0.0121494 -0.00613314 0)
(-0.0103669 -0.00676483 0)
(-0.00915038 -0.00732766 0)
(-0.00675058 -0.00775857 0)
(-0.00567238 -0.0080032 0)
(-0.0028155 -0.00782182 0)
(-0.00203823 -0.00659641 0)
(0.000276377 -0.00326826 0)
(0.000176598 0.00396422 0)
(-0.00197459 0.00795669 0)
(-0.00296138 0.00938321 0)
(-0.00570057 0.00961322 0)
(-0.00695209 0.00934154 0)
(-0.00928949 0.00887848 0)
(-0.0106449 0.00825916 0)
(-0.0124327 0.00756123 0)
(-0.0137751 0.00675995 0)
(-0.0150308 0.00588798 0)
(-0.0161266 0.00495187 0)
(-0.0170082 0.00395936 0)
(-0.0176909 0.00292227 0)
(-0.0181685 0.00185085 0)
(-0.0184351 0.000754807 0)
(-0.0184854 -0.000355873 0)
(-0.0183155 -0.00147081 0)
(-0.0179261 -0.00257922 0)
(-0.0173237 -0.00367022 0)
(-0.0165122 -0.00473178 0)
(-0.0154578 -0.00574765 0)
(-0.0142168 -0.00670674 0)
(-0.01291 -0.0076031 0)
(-0.0110444 -0.00839043 0)
(-0.00972761 -0.00909999 0)
(-0.00721261 -0.00963374 0)
(-0.00601754 -0.00995726 0)
(-0.00302577 -0.00973236 0)
(-0.00213238 -0.00824889 0)
(0.000258199 -0.00410899 0)
(0.000158958 0.0048234 0)
(-0.00207391 0.00964067 0)
(-0.00318495 0.0113355 0)
(-0.00606439 0.0116067 0)
(-0.00744418 0.0112661 0)
(-0.00990523 0.0107055 0)
(-0.0113752 0.00995249 0)
(-0.0132596 0.00910813 0)
(-0.0146966 0.00814055 0)
(-0.016026 0.00708851 0)
(-0.0171874 0.00596122 0)
(-0.0181241 0.00476764 0)
(-0.0188498 0.00352175 0)
(-0.0193595 0.0022355 0)
(-0.0196476 0.000920058 0)
(-0.0197084 -0.00041305 0)
(-0.0195376 -0.00175208 0)
(-0.0191358 -0.00308495 0)
(-0.0185084 -0.00439893 0)
(-0.0176561 -0.00567942 0)
(-0.0165465 -0.00690761 0)
(-0.015241 -0.00807096 0)
(-0.01384 -0.00915996 0)
(-0.0118767 -0.0101189 0)
(-0.0104365 -0.0109881 0)
(-0.00778505 -0.0116389 0)
(-0.00644534 -0.0120476 0)
(-0.00329121 -0.0117817 0)
(-0.00225329 -0.0100156 0)
(0.000236654 -0.00500788 0)
(0.000138537 0.00574207 0)
(-0.00219561 0.0114447 0)
(-0.00345598 0.0134328 0)
(-0.00650267 0.0137456 0)
(-0.00803723 0.0133305 0)
(-0.010644 0.0126605 0)
(-0.0122507 0.0117625 0)
(-0.0142478 0.0107583 0)
(-0.015796 0.00961171 0)
(-0.0172117 0.00836636 0)
(-0.0184491 0.00703509 0)
(-0.0194493 0.00562837 0)
(-0.0202246 0.00416202 0)
(-0.0207718 0.00264944 0)
(-0.0210853 0.00110301 0)
(-0.0211591 -0.000464396 0)
(-0.020989 -0.00203992 0)
(-0.0205746 -0.00361048 0)
(-0.0199197 -0.00516168 0)
(-0.0190221 -0.00667661 0)
(-0.0178506 -0.00813421 0)
(-0.016471 -0.00951998 0)
(-0.0149598 -0.0108197 0)
(-0.0128829 -0.0119698 0)
(-0.011295 -0.0130155 0)
(-0.00848264 -0.0138004 0)
(-0.00696779 -0.0143037 0)
(-0.00361858 -0.0139999 0)
(-0.00240456 -0.0119255 0)
(0.000211014 -0.00598017 0)
(0.000113752 0.00673338 0)
(-0.00234428 0.0133936 0)
(-0.00378295 0.0157021 0)
(-0.00702666 0.0160569 0)
(-0.0087437 0.0155596 0)
(-0.0115198 0.0147663 0)
(-0.0132859 0.013709 0)
(-0.0154127 0.0125284 0)
(-0.0170886 0.0111872 0)
(-0.0186028 0.00973295 0)
(-0.0199258 0.00818288 0)
(-0.0209974 0.00654909 0)
(-0.0218289 0.00484896 0)
(-0.0224188 0.00309716 0)
(-0.0227617 0.00130704 0)
(-0.0228516 -0.000507657 0)
(-0.022684 -0.00233345 0)
(-0.0222579 -0.0041565 0)
(-0.0215747 -0.00596115 0)
(-0.0206287 -0.00772868 0)
(-0.0193901 -0.00943583 0)
(-0.0179275 -0.0110657 0)
(-0.016291 -0.0125984 0)
(-0.0140841 -0.0139637 0)
(-0.0123228 -0.0152075 0)
(-0.00932168 -0.016148 0)
(-0.0075973 -0.0167592 0)
(-0.00401506 -0.0164212 0)
(-0.00258881 -0.0140105 0)
(0.000180427 -0.00704261 0)
(8.34683e-05 0.00781288 0)
(-0.00252357 0.0155163 0)
(-0.00417376 0.018174 0)
(-0.0076479 0.0185707 0)
(-0.0095778 0.0179805 0)
(-0.0125487 0.0170467 0)
(-0.0144982 0.0158119 0)
(-0.016772 0.0144353 0)
(-0.0185915 0.0128807 0)
(-0.020216 0.0111994 0)
(-0.0216332 0.00941343 0)
(-0.0227833 0.00753674 0)
(-0.0236766 0.00558804 0)
(-0.0243138 0.00358305 0)
(-0.0246902 0.00153574 0)
(-0.0247997 -0.000539978 0)
(-0.0246378 -0.00263071 0)
(-0.0242024 -0.00472226 0)
(-0.023492 -0.00679826 0)
(-0.0224967 -0.00883889 0)
(-0.0211878 -0.0108191 0)
(-0.0196345 -0.0127191 0)
(-0.0178592 -0.014512 0)
(-0.0155058 -0.0161221 0)
(-0.0135441 -0.0175919 0)
(-0.0103232 -0.0187147 0)
(-0.00835012 -0.0194521 0)
(-0.00449067 -0.0190853 0)
(-0.00280989 -0.0163066 0)
(0.000143929 -0.00821367 0)
(4.68774e-05 0.00899839 0)
(-0.00273718 0.0178457 0)
(-0.00463739 0.0208845 0)
(-0.00838026 0.0213207 0)
(-0.0105571 0.0206226 0)
(-0.013751 0.0195271 0)
(-0.0159086 0.0180921 0)
(-0.0183468 0.0164953 0)
(-0.0203245 0.0147051 0)
(-0.0220701 0.0127754 0)
(-0.0235886 0.0107341 0)
(-0.0248229 0.0085971 0)
(-0.0257826 0.00638403 0)
(-0.0264711 0.00411136 0)
(-0.0268848 0.0017931 0)
(-0.027018 -0.000557485 0)
(-0.0268663 -0.00292811 0)
(-0.0264255 -0.00530503 0)
(-0.0256914 -0.00767178 0)
(-0.0246493 -0.0100082 0)
(-0.0232705 -0.012288 0)
(-0.0216215 -0.0144889 0)
(-0.0196956 -0.0165755 0)
(-0.0171799 -0.018467 0)
(-0.01499 -0.0201986 0)
(-0.011515 -0.021538 0)
(-0.00924847 -0.0224271 0)
(-0.00506009 -0.0220388 0)
(-0.00307414 -0.0188555 0)
(0.000100142 -0.00951458 0)
(2.93103e-06 0.01031 0)
(-0.00299027 0.0204199 0)
(-0.00518577 0.0238742 0)
(-0.00924163 0.024345 0)
(-0.011704 0.0235188 0)
(-0.0151515 0.0222345 0)
(-0.0175428 0.0205708 0)
(-0.0201623 0.0187248 0)
(-0.0223114 0.0166719 0)
(-0.0241869 0.0144692 0)
(-0.0258116 0.0121506 0)
(-0.0271334 0.00973427 0)
(-0.0281624 0.00724054 0)
(-0.0289048 0.00468576 0)
(-0.0293591 0.00208322 0)
(-0.0295209 -0.000555468 0)
(-0.0293854 -0.00322027 0)
(-0.0289461 -0.00589929 0)
(-0.0281951 -0.0085772 0)
(-0.0271127 -0.0112341 0)
(-0.0256688 -0.0138434 0)
(-0.0239233 -0.0163806 0)
(-0.0218392 -0.0188016 0)
(-0.0191473 -0.02102 0)
(-0.0167008 -0.0230597 0)
(-0.0129341 -0.0246604 0)
(-0.0103227 -0.0257357 0)
(-0.00574408 -0.0253374 0)
(-0.00339111 -0.0217074 0)
(4.70711e-05 -0.0109709 0)
(-4.98722e-05 0.0117713 0)
(-0.00329011 0.0232832 0)
(-0.00583484 0.0271911 0)
(-0.0102554 0.0276876 0)
(-0.013047 0.0267058 0)
(-0.0167814 0.0251981 0)
(-0.0194327 0.0232696 0)
(-0.0222495 0.0211387 0)
(-0.0245802 0.0187907 0)
(-0.0265913 0.0162862 0)
(-0.0283237 0.0136657 0)
(-0.029733 0.0109499 0)
(-0.0308312 0.00815922 0)
(-0.0316285 0.00530882 0)
(-0.0321261 0.00241009 0)
(-0.0323216 -0.000528309 0)
(-0.0322102 -0.00349989 0)
(-0.0317825 -0.00649625 0)
(-0.0310262 -0.00950518 0)
(-0.0299154 -0.0125087 0)
(-0.0284175 -0.0154807 0)
(-0.026581 -0.0183953 0)
(-0.0243372 -0.0211993 0)
(-0.0214594 -0.0238012 0)
(-0.0187288 -0.0262086 0)
(-0.0146299 -0.0281294 0)
(-0.0116141 -0.0294385 0)
(-0.00657134 -0.0290483 0)
(-0.00377425 -0.0249241 0)
(-1.79955e-05 -0.0126146 0)
(-0.000113638 0.0134103 0)
(-0.00364681 0.0264889 0)
(-0.0066062 0.0308922 0)
(-0.0114526 0.0313993 0)
(-0.0146235 0.0302246 0)
(-0.0186809 0.0284483 0)
(-0.0216185 0.026209 0)
(-0.0246456 0.0237489 0)
(-0.027164 0.0210669 0)
(-0.0293116 0.0182278 0)
(-0.0311481 0.0152784 0)
(-0.0326401 0.0122422 0)
(-0.0338036 0.00913888 0)
(-0.034654 0.00598145 0)
(-0.0351963 0.00277763 0)
(-0.035431 -0.000468806 0)
(-0.0353535 -0.00375669 0)
(-0.0349515 -0.00708296 0)
(-0.0342076 -0.0104409 0)
(-0.0330882 -0.0138168 0)
(-0.031556 -0.0171874 0)
(-0.0296432 -0.020526 0)
(-0.0272477 -0.0237716 0)
(-0.0241814 -0.0268272 0)
(-0.0211421 -0.0296794 0)
(-0.0166684 -0.0319983 0)
(-0.0131788 -0.0336077 0)
(-0.00758149 -0.0332551 0)
(-0.00424222 -0.0285837 0)
(-9.86646e-05 -0.014486 0)
(-0.000191434 0.015262 0)
(-0.00407479 0.0301026 0)
(-0.00752989 0.0350465 0)
(-0.0128755 0.0355402 0)
(-0.0164832 0.0341211 0)
(-0.0209021 0.0320168 0)
(-0.0241504 0.0294074 0)
(-0.0273965 0.0265632 0)
(-0.0301017 0.0235006 0)
(-0.0323796 0.0202891 0)
(-0.0343095 0.0169818 0)
(-0.0358728 0.0136042 0)
(-0.0370921 0.0101746 0)
(-0.0379899 0.00670205 0)
(-0.0385765 0.0031888 0)
(-0.038856 -0.000368602 0)
(-0.0388245 -0.00397689 0)
(-0.0384669 -0.00764081 0)
(-0.0377601 -0.011362 0)
(-0.036662 -0.0151341 0)
(-0.0351275 -0.01894 0)
(-0.0331666 -0.0227547 0)
(-0.0306414 -0.026511 0)
(-0.0273961 -0.0301072 0)
(-0.0240304 -0.0335042 0)
(-0.0191391 -0.0363267 0)
(-0.0150951 -0.0383301 0)
(-0.00883041 -0.0380627 0)
(-0.00482138 -0.0327867 0)
(-0.000199922 -0.0166377 0)
(-0.000287809 0.017371 0)
(-0.00459493 0.034207 0)
(-0.00864827 0.0397386 0)
(-0.0145822 0.0401806 0)
(-0.0186925 0.038446 0)
(-0.0235125 0.0359347 0)
(-0.0270922 0.0328793 0)
(-0.0305579 0.0295829 0)
(-0.0334388 0.0260837 0)
(-0.0358304 0.0224566 0)
(-0.0378332 0.0187605 0)
(-0.0394475 0.0150221 0)
(-0.0407059 0.0112561 0)
(-0.04164 0.00746559 0)
(-0.0422671 0.00364512 0)
(-0.0425969 -0.000218511 0)
(-0.0426259 -0.00414312 0)
(-0.0423367 -0.0081445 0)
(-0.041701 -0.0122362 0)
(-0.0406664 -0.0164237 0)
(-0.0391775 -0.0207003 0)
(-0.0372155 -0.0250467 0)
(-0.0346039 -0.0293939 0)
(-0.0312085 -0.0336382 0)
(-0.0275127 -0.0377097 0)
(-0.0221652 -0.0411794 0)
(-0.0174741 -0.043711 0)
(-0.0103996 -0.0436065 0)
(-0.00555084 -0.0376664 0)
(-0.000329167 -0.019139 0)
(-0.000409616 0.019796 0)
(-0.00523774 0.0389086 0)
(-0.0100218 0.0450743 0)
(-0.0166536 0.045404 0)
(-0.0213411 0.0432545 0)
(-0.0266007 0.0402307 0)
(-0.0305244 0.0366313 0)
(-0.0341982 0.0327985 0)
(-0.0372291 0.028796 0)
(-0.0397027 0.0247047 0)
(-0.0417442 0.0205884 0)
(-0.0433775 0.0164726 0)
(-0.0446489 0.0123656 0)
(-0.0456011 0.00826217 0)
(-0.0462608 0.00414589 0)
(-0.0466445 -9.31961e-06 0)
(-0.0467507 -0.00423427 0)
(-0.0465601 -0.0085611 0)
(-0.0460395 -0.0130196 0)
(-0.0451264 -0.0176324 0)
(-0.0437516 -0.0224096 0)
(-0.0418613 -0.0273441 0)
(-0.0392373 -0.0323723 0)
(-0.0357518 -0.0373948 0)
(-0.0317474 -0.0423091 0)
(-0.025919 -0.0466228 0)
(-0.0204776 -0.0498782 0)
(-0.0124124 -0.0500638 0)
(-0.00649142 -0.0434045 0)
(-0.000498275 -0.0220857 0)
(-0.000567623 0.0226166 0)
(-0.00604903 0.0443485 0)
(-0.0117383 0.051188 0)
(-0.0192033 0.05131 0)
(-0.0245513 0.0486052 0)
(-0.0302829 0.0449265 0)
(-0.0345487 0.0406566 0)
(-0.0383998 0.0361835 0)
(-0.041534 0.0316 0)
(-0.0440381 0.0269916 0)
(-0.0460656 0.0224244 0)
(-0.0476707 0.0179197 0)
(-0.0489167 0.0134759 0)
(-0.04986 0.00907545 0)
(-0.0505389 0.0046875 0)
(-0.0509773 0.000269949 0)
(-0.051178 -0.00422494 0)
(-0.0511224 -0.00884934 0)
(-0.0507726 -0.0136546 0)
(-0.0500568 -0.0186871 0)
(-0.0488903 -0.0239824 0)
(-0.0471792 -0.0295554 0)
(-0.0446604 -0.035361 0)
(-0.0411925 -0.0413154 0)
(-0.0369468 -0.047288 0)
(-0.0306445 -0.0527169 0)
(-0.0243477 -0.0569846 0)
(-0.0150621 -0.0576713 0)
(-0.00774288 -0.0502564 0)
(-0.00072793 -0.0256148 0)
(-0.000779753 0.025945 0)
(-0.0071001 0.0507185 0)
(-0.0139289 0.058253 0)
(-0.0223943 0.0580163 0)
(-0.0284911 0.0545564 0)
(-0.0347129 0.0500306 0)
(-0.0392938 0.0449275 0)
(-0.0432619 0.0396873 0)
(-0.0464227 0.0344334 0)
(-0.0488784 0.0292533 0)
(-0.0508163 0.0242091 0)
(-0.0523263 0.0193129 0)
(-0.0534935 0.0145481 0)
(-0.0543897 0.00988054 0)
(-0.0550664 0.00526124 0)
(-0.0555571 0.000628768 0)
(-0.0558702 -0.00408665 0)
(-0.05599 -0.00895963 0)
(-0.0558775 -0.0140686 0)
(-0.0554545 -0.0194912 0)
(-0.0546209 -0.0252992 0)
(-0.0532407 -0.0315446 0)
(-0.0510048 -0.0382199 0)
(-0.047735 -0.045279 0)
(-0.0433931 -0.0525796 0)
(-0.0366905 -0.0594955 0)
(-0.029454 -0.0652053 0)
(-0.0186634 -0.066748 0)
(-0.00947924 -0.0585949 0)
(-0.00105781 -0.029935 0)
(-0.00107773 0.0299461 0)
(-0.00850661 0.0582856 0)
(-0.0167934 0.0664939 0)
(-0.0264633 0.0656582 0)
(-0.0333931 0.061157 0)
(-0.0400932 0.0555253 0)
(-0.0449201 0.0493824 0)
(-0.0489007 0.0432239 0)
(-0.0519695 0.0372013 0)
(-0.0542619 0.0313969 0)
(-0.0560054 0.0258592 0)
(-0.057331 0.0205825 0)
(-0.0583482 0.0155289 0)
(-0.0591458 0.0106422 0)
(-0.0597896 0.0058511 0)
(-0.0603241 0.00107162 0)
(-0.0607651 -0.00379022 0)
(-0.0611029 -0.00883545 0)
(-0.0613027 -0.0141739 0)
(-0.0612862 -0.0199222 0)
(-0.0609427 -0.0262004 0)
(-0.0600985 -0.0331165 0)
(-0.0584026 -0.0407304 0)
(-0.0556179 -0.04907 0)
(-0.0514544 -0.058021 0)
(-0.0445556 -0.0669239 0)
(-0.0363718 -0.074719 0)
(-0.0237491 -0.0777225 0)
(-0.012026 -0.0689822 0)
(-0.00157229 -0.0353874 0)
(-0.00152151 0.0348741 0)
(-0.0104644 0.0674304 0)
(-0.0206451 0.0762018 0)
(-0.0317574 0.074383 0)
(-0.0395774 0.0684295 0)
(-0.0466857 0.061346 0)
(-0.0516218 0.0539064 0)
(-0.0554454 0.0466562 0)
(-0.0582463 0.039764 0)
(-0.0602142 0.0332929 0)
(-0.0616235 0.0272624 0)
(-0.0626487 0.021637 0)
(-0.0634252 0.0163488 0)
(-0.0640581 0.0113131 0)
(-0.0646271 0.00643258 0)
(-0.065188 0.00159845 0)
(-0.0657661 -0.00330831 0)
(-0.0663618 -0.00841699 0)
(-0.0669516 -0.0138716 0)
(-0.0674677 -0.0198333 0)
(-0.0678009 -0.0264822 0)
(-0.067755 -0.0340047 0)
(-0.0669534 -0.0425672 0)
(-0.0650878 -0.0523285 0)
(-0.0615831 -0.0632792 0)
(-0.0549355 -0.0748147 0)
(-0.0459973 -0.0856473 0)
(-0.0312442 -0.0911524 0)
(-0.0160286 -0.0822922 0)
(-0.00246549 -0.0425785 0)
(-0.0022318 0.0411447 0)
(-0.0133195 0.0787062 0)
(-0.0259823 0.0877463 0)
(-0.0387854 0.0843296 0)
(-0.0474765 0.0763368 0)
(-0.054814 0.067347 0)
(-0.0596118 0.058302 0)
(-0.0630137 0.0497747 0)
(-0.0652935 0.0419235 0)
(-0.066717 0.034767 0)
(-0.0676102 0.0282736 0)
(-0.0681896 0.0223609 0)
(-0.0686133 0.0169204 0)
(-0.0689996 0.0118324 0)
(-0.0694385 0.00697026 0)
(-0.0699958 0.00220008 0)
(-0.0707076 -0.00262101 0)
(-0.0715892 -0.00764842 0)
(-0.0726375 -0.0130595 0)
(-0.0738099 -0.0190617 0)
(-0.0750203 -0.025902 0)
(-0.0760811 -0.0338658 0)
(-0.0766284 -0.0432704 0)
(-0.0762989 -0.0544847 0)
(-0.0742356 -0.0677361 0)
(-0.0687089 -0.0826676 0)
(-0.0596573 -0.0979026 0)
(-0.0427265 -0.107694 0)
(-0.0227885 -0.0999138 0)
(-0.00419477 -0.0526872 0)
(-0.00346349 0.0494785 0)
(-0.0177044 0.0929208 0)
(-0.0335952 0.101564 0)
(-0.04826 0.0955709 0)
(-0.0576167 0.0847154 0)
(-0.0647994 0.0732426 0)
(-0.0690269 0.0622447 0)
(-0.0715958 0.0522661 0)
(-0.0729925 0.0434036 0)
(-0.0735747 0.0355891 0)
(-0.0737172 0.0287081 0)
(-0.0736695 0.0226112 0)
(-0.0736029 0.0171363 0)
(-0.0736404 0.0121228 0)
(-0.0738752 0.00741351 0)
(-0.0743786 0.0028514 0)
(-0.0751965 -0.00172603 0)
(-0.0763633 -0.00649204 0)
(-0.0779062 -0.0116519 0)
(-0.0798251 -0.0174521 0)
(-0.0820861 -0.0242029 0)
(-0.0845609 -0.0322967 0)
(-0.0869687 -0.0422398 0)
(-0.0889626 -0.0547008 0)
(-0.0894956 -0.0703362 0)
(-0.0866025 -0.0893942 0)
(-0.0789429 -0.110831 0)
(-0.0605749 -0.127878 0)
(-0.0347484 -0.124005 0)
(-0.0077713 -0.0681104 0)
(-0.00575987 0.06121 0)
(-0.02477 0.111238 0)
(-0.0446421 0.118069 0)
(-0.0609786 0.107965 0)
(-0.0703378 0.0931302 0)
(-0.0765637 0.0784888 0)
(-0.0794494 0.0651957 0)
(-0.0805222 0.0536554 0)
(-0.0804958 0.0438124 0)
(-0.079818 0.0354491 0)
(-0.0788926 0.0283276 0)
(-0.0779791 0.0222068 0)
(-0.0772421 0.0168596 0)
(-0.0767923 0.0120811 0)
(-0.0767132 0.00768516 0)
(-0.0770729 0.00349718 0)
(-0.0779202 -0.000656243 0)
(-0.0793098 -0.00495647 0)
(-0.0813067 -0.00961824 0)
(-0.0839658 -0.0149094 0)
(-0.0873359 -0.0211815 0)
(-0.0914103 -0.0289167 0)
(-0.0960917 -0.0388149 0)
(-0.101195 -0.0519042 0)
(-0.105734 -0.0694882 0)
(-0.107698 -0.0929649 0)
(-0.104264 -0.122526 0)
(-0.0869814 -0.151291 0)
(-0.0554378 -0.157252 0)
(-0.0150189 -0.0933562 0)
(-0.0102284 0.0789647 0)
(-0.036438 0.135184 0)
(-0.0602565 0.137293 0)
(-0.0767961 0.120719 0)
(-0.0842948 0.100492 0)
(-0.0878017 0.0819852 0)
(-0.0878591 0.0661871 0)
(-0.0862687 0.0531576 0)
(-0.0839358 0.0425423 0)
(-0.0813473 0.0338896 0)
(-0.0788779 0.0267909 0)
(-0.0767456 0.0208917 0)
(-0.0750688 0.0158932 0)
(-0.0739159 0.0115496 0)
(-0.0733378 0.00765241 0)
(-0.0733821 0.00402016 0)
(-0.0740897 0.000480697 0)
(-0.0755245 -0.00314746 0)
(-0.077782 -0.007055 0)
(-0.0809748 -0.0115023 0)
(-0.0852459 -0.0168398 0)
(-0.0907546 -0.0235839 0)
(-0.0976752 -0.0325681 0)
(-0.106169 -0.045145 0)
(-0.115735 -0.0633986 0)
(-0.124862 -0.0904997 0)
(-0.12969 -0.129314 0)
(-0.118867 -0.175203 0)
(-0.0861326 -0.201246 0)
(-0.0276912 -0.135784 0)
(-0.0188236 0.107495 0)
(-0.0549038 0.165357 0)
(-0.0785494 0.157262 0)
(-0.0897053 0.130953 0)
(-0.0903515 0.103955 0)
(-0.0871863 0.0813219 0)
(-0.0814819 0.063339 0)
(-0.0751308 0.0493776 0)
(-0.0690218 0.0385852 0)
(-0.0634998 0.0301874 0)
(-0.0587659 0.0235744 0)
(-0.0548911 0.018276 0)
(-0.0518726 0.0139328 0)
(-0.0496862 0.0102745 0)
(-0.0483133 0.00708481 0)
(-0.0477525 0.00419155 0)
(-0.0480213 0.00143908 0)
(-0.0491609 -0.00132861 0)
(-0.0512673 -0.00426711 0)
(-0.0544915 -0.00758546 0)
(-0.0590388 -0.0115777 0)
(-0.065211 -0.0167076 0)
(-0.0734378 -0.0238113 0)
(-0.0843042 -0.034408 0)
(-0.0982218 -0.0512395 0)
(-0.11503 -0.0796805 0)
(-0.13154 -0.126796 0)
(-0.135122 -0.194125 0)
(-0.115064 -0.254099 0)
(-0.0426638 -0.207119 0)
(-0.0330515 0.152238 0)
(-0.0761455 0.194492 0)
(-0.0799223 0.168098 0)
(-0.0699484 0.129615 0)
(-0.0528842 0.0964784 0)
(-0.0358767 0.0714789 0)
(-0.0199171 0.0532316 0)
(-0.00601517 0.040035 0)
(0.00558858 0.0304292 0)
(0.0151046 0.0233258 0)
(0.0227766 0.0179724 0)
(0.0288488 0.0138455 0)
(0.0335475 0.010578 0)
(0.0370533 0.00791105 0)
(0.0394945 0.00565833 0)
(0.0409552 0.0036774 0)
(0.0414734 0.00185014 0)
(0.0410512 7.23725e-05 0)
(0.0396287 -0.00177685 0)
(0.0370834 -0.00381663 0)
(0.0332131 -0.00623512 0)
(0.027677 -0.0093578 0)
(0.0199369 -0.0138273 0)
(0.00918923 -0.0210159 0)
(-0.00602313 -0.0339497 0)
(-0.0274767 -0.0593952 0)
(-0.0555306 -0.109288 0)
(-0.0811593 -0.195948 0)
(-0.103197 -0.301901 0)
(-0.0418765 -0.311769 0)
(-0.0348859 0.243384 0)
(-0.0455958 0.203964 0)
(0.0230352 0.141321 0)
(0.0776441 0.0972116 0)
(0.123421 0.0662755 0)
(0.159028 0.045473 0)
(0.186538 0.0318608 0)
(0.207744 0.0229053 0)
(0.224023 0.0168644 0)
(0.236568 0.0126531 0)
(0.246272 0.00962274 0)
(0.253772 0.00737375 0)
(0.259533 0.00565115 0)
(0.263897 0.00428356 0)
(0.267095 0.00316241 0)
(0.269287 0.00220744 0)
(0.27057 0.00135615 0)
(0.270984 0.000562208 0)
(0.270539 -0.000224644 0)
(0.269183 -0.00105834 0)
(0.266775 -0.00201706 0)
(0.263058 -0.00323027 0)
(0.257562 -0.00497834 0)
(0.249387 -0.00800413 0)
(0.236535 -0.0142962 0)
(0.215627 -0.0290786 0)
(0.179991 -0.065328 0)
(0.130556 -0.14795 0)
(0.025176 -0.287535 0)
(0.0246727 -0.371516 0)
(0.234982 0.162239 0)
(0.298931 0.120068 0)
(0.447065 0.0755438 0)
(0.537149 0.0475728 0)
(0.59138 0.0296433 0)
(0.62625 0.018301 0)
(0.649643 0.0114514 0)
(0.665785 0.00741287 0)
(0.677252 0.00501235 0)
(0.685649 0.00353689 0)
(0.691949 0.00258507 0)
(0.696746 0.00193761 0)
(0.700421 0.00147434 0)
(0.703227 0.0011257 0)
(0.705338 0.000851862 0)
(0.70687 0.000628128 0)
(0.707898 0.000436941 0)
(0.708468 0.000264816 0)
(0.708605 0.000113527 0)
(0.70829 -3.3811e-05 0)
(0.70748 -0.000199377 0)
(0.706079 -0.000399883 0)
(0.703823 -0.00067856 0)
(0.700224 -0.00117432 0)
(0.693559 -0.00231854 0)
(0.681125 -0.00530391 0)
(0.650465 -0.0135864 0)
(0.596501 -0.0369713 0)
(0.419884 -0.103054 0)
(0.30209 -0.174408 0)
)
;

boundaryField
{
    movingWall
    {
        type            fixedValue;
        value           uniform (1 0 0);
    }
    fixedWalls
    {
        type            noSlip;
    }
    frontAndBack
    {
        type            empty;
    }
}


// ************************************************************************* //
