/*--------------------------------*- C++ -*----------------------------------*\
  =========                 |
  \\      /  F ield         | OpenFOAM: The Open Source CFD Toolbox
   \\    /   O peration     | Website:  https://openfoam.org
    \\  /    A nd           | Version:  7
     \\/     M anipulation  |
\*---------------------------------------------------------------------------*/
FoamFile
{
    version     2.0;
    format      ascii;
    class       volScalarField;
    location    "0.23";
    object      p;
}
// * * * * * * * * * * * * * * * * * * * * * * * * * * * * * * * * * * * * * //

dimensions      [0 2 -2 0 0 0 0];

internalField   nonuniform List<scalar> 
1936
(
-3.3156e-05
-3083.27
-6586.73
-6346.12
-5809.89
-5965.09
-5676.52
-4953.36
-4323.32
-4173.83
-4473.64
-5975.36
-7536.19
-6270.38
-4036.94
-3452.9
-3610.98
-4686.39
-6727.22
-7069.17
-4987.54
-3503.04
-3414.69
-4008.31
-6234.41
-7712.62
-5800.08
-3659.07
-3252.11
-3479.83
-5225.1
-7510.77
-6596.11
-4062.85
-3268.54
-3411.92
-5102.03
-7490.69
-6636.35
-4146.34
-3315.17
-3308.87
-4533.96
-7219.9
-104.068
-3077.13
-6529.69
-6313.54
-5797.28
-5944.89
-5660.12
-4955.9
-4351.24
-4212.43
-4491.92
-5942.46
-7471.81
-6227.56
-4047.89
-3506.16
-3663.72
-4704.48
-6699.89
-7014.96
-4974.08
-3552.87
-3473.36
-4019.47
-6182.31
-7641.95
-5767.7
-3687.33
-3314.02
-3525.01
-5212.39
-7453.61
-6549.79
-4077.52
-3332.74
-3459.96
-5077.35
-7422.19
-6591.86
-4154.9
-3370.44
-3365.88
-4535.47
-7167.47
-426.357
-3067.26
-6323.71
-6228.65
-5769.93
-5880.61
-5613.16
-4967.47
-4424.79
-4305.07
-4552.13
-5865.62
-7269.2
-6114.81
-4101.61
-3633.93
-3802.84
-4777.8
-6612.04
-6843.5
-4953.37
-3687.55
-3611.29
-4071.94
-6048.23
-7416.27
-5693.97
-3781.05
-3458.29
-3654.85
-5200.88
-7266.69
-6417.37
-4143.34
-3486.93
-3589.23
-5033.15
-7204.95
-6465.71
-4209.55
-3502.74
-3510.98
-4570.31
-7002.53
-868.941
-3082.88
-6026.95
-6093.76
-5728.24
-5790.34
-5545.49
-4985.45
-4528.22
-4432.43
-4643.72
-5762
-6967.45
-5959.06
-4202.14
-3817.72
-3989.92
-4868.04
-6458.17
-6585.85
-4933.13
-3874.61
-3800.74
-4167.25
-5868.17
-7077.55
-5591.11
-3927.17
-3660.33
-3839.07
-5183.36
-6976.82
-6221.29
-4247.38
-3699.53
-3777.08
-4986.61
-6880.61
-6273.18
-4300.96
-3691.95
-3713.77
-4624.93
-6746.77
-1374.88
-3137.4
-5692.98
-5916.36
-5663.03
-5683.09
-5467.73
-5008.12
-4644.63
-4571.13
-4746.7
-5646.6
-6618.79
-5788.97
-4338.21
-4030.52
-4190.3
-4949.49
-6257.26
-6286.59
-4914.9
-4078.26
-4009.66
-4291.41
-5676.46
-6684.68
-5474.82
-4102.94
-3888.39
-4043.52
-5157.61
-6633.27
-5995.17
-4369.79
-3932.11
-3990.11
-4946.93
-6507.28
-6045.12
-4413.56
-3908.3
-3937.3
-4685.27
-6443.06
-1906.12
-3236.88
-5361.36
-5708.1
-5570.05
-5566.3
-5387.37
-5032.27
-4759.86
-4705.07
-4846.06
-5530.46
-6265.46
-5623.04
-4493.18
-4250.88
-4382.88
-5009.62
-6026.69
-5982.06
-4901.31
-4275.77
-4217.52
-4429.76
-5495.85
-6285.53
-5356.94
-4287.33
-4119.72
-4245.23
-5124.26
-6274.86
-5764.28
-4496.97
-4159.71
-4202.14
-4920.42
-6131.81
-5805.15
-4533.59
-4128.51
-4156.56
-4744.61
-6125.21
-2434.01
-3382.11
-5062.04
-5482.91
-5451.37
-5445.47
-5309.24
-5054.19
-4861.87
-4822.95
-4931.29
-5422.93
-5938.44
-5472.27
-4648.26
-4460.27
-4556.04
-5045.74
-5787.2
-5700.43
-4896.87
-4453.64
-4409.7
-4567.04
-5340.47
-5915.46
-5247.04
-4462.47
-4336.06
-4429.27
-5088.41
-5932.55
-5548.33
-4617.36
-4366.53
-4396.14
-4909.23
-5788.09
-5573.42
-4647.52
-4335.03
-4357.02
-4800
-5819.83
-2934.19
-3567.08
-4817.15
-5258.48
-5314.42
-5324.35
-5235.52
-5069.01
-4943.5
-4917.53
-4997.16
-5328.46
-5658.14
-5342.87
-4786.35
-4644.06
-4703.84
-5061.9
-5559.84
-5461.27
-4904.08
-4605.72
-4576.2
-4690.93
-5214.27
-5598.56
-5151.98
-4615.26
-4523.76
-4587.94
-5055.57
-5629.65
-5360.19
-4723.14
-4543.28
-4562.64
-4911.16
-5498.19
-5366.72
-4744.72
-4515.56
-4530.79
-4848.58
-5548.06
-3381.7
-3778.76
-4642.98
-5054.62
-5170.88
-5206.97
-5165.96
-5073.15
-5000.87
-4986.11
-5042.13
-5246.79
-5435.23
-5238.67
-4895.65
-4792.61
-4824.47
-5062.05
-5362.81
-5274.97
-4920.1
-4729.7
-4711
-4792.94
-5117.11
-5348.31
-5075.64
-4738.61
-4675.27
-4718.76
-5026.33
-5382.17
-5208.42
-4808.76
-4685.15
-4696.83
-4920.26
-5273.83
-5197.87
-4819.74
-4662.76
-4673.14
-4887.6
-5324.21
-3754.87
-3995.61
-4547.35
-4890.63
-5035.57
-5098.01
-5100.19
-5064.91
-5033.41
-5028.99
-5065.7
-5178.3
-5271.41
-5160.54
-4971.68
-4901.2
-4914.63
-5051.58
-5208.61
-5143.27
-4938.28
-4824.84
-4812.94
-4868.05
-5047
-5168.84
-5019.87
-4830.46
-4789.09
-4818.68
-5001.28
-5197.04
-5096.46
-4870.77
-4791.85
-4798.85
-4929.16
-5116.02
-5074.27
-4870.48
-4775.13
-4782.52
-4913.52
-5155.91
-4045.37
-4192.86
-4521.73
-4779.5
-4923.47
-5003.74
-5039.22
-5045.23
-5043.55
-5048.1
-5070.36
-5123.04
-5160.44
-5106.08
-5015
-4971.52
-4972.83
-5036.33
-5101.93
-5059.52
-4953.02
-4891.53
-4884.12
-4916.16
-5000.91
-5054.38
-4984.03
-4891.65
-4868
-4886.95
-4981.12
-5073.03
-5022.24
-4910.32
-4865.52
-4869.35
-4934.96
-5017.7
-4995.73
-4901.25
-4852.73
-4858.15
-4927.51
-5043.14
-4260.1
-4354.25
-4542.43
-4720.97
-4844.84
-4930.47
-4986.1
-5018.4
-5035.99
-5047.69
-5060.68
-5080.21
-5091.09
-5069.35
-5032.33
-5008.46
-5002.54
-5021.23
-5037.9
-5012.42
-4963.25
-4933.16
-4928.38
-4942.64
-4974.31
-4991.95
-4964.49
-4927.43
-4916.51
-4926.81
-4966.53
-5000.91
-4979.09
-4932.07
-4910.53
-4911.98
-4938.05
-4965.6
-4954.39
-4918.29
-4899.62
-4903.47
-4933.36
-4977.91
-4412.48
-4476.67
-4586.57
-4702
-4800.72
-4881.19
-4943.9
-4988.81
-5017.91
-5034
-5042.37
-5047.91
-5049.82
-5043.88
-5032.31
-5020.45
-5011.6
-5008.79
-5004.78
-4989.48
-4968.86
-4955.64
-4952.02
-4954.92
-4961.68
-4964.38
-4956.05
-4945.18
-4941.76
-4945.61
-4957.42
-4965.83
-4957.79
-4942.13
-4934.04
-4933.92
-4939.94
-4943.97
-4937.99
-4927.65
-4923.89
-4926.22
-4935.17
-4946.89
-4523.88
-4565.72
-4632.98
-4708.81
-4783.5
-4852.9
-4913.09
-4960.38
-4993.09
-5011.87
-5020.28
-5023.24
-5024.48
-5024.91
-5023.13
-5017.83
-5008.84
-4999.06
-4989.61
-4979.85
-4971.3
-4965.61
-4962.29
-4959.73
-4957.5
-4955.64
-4953.71
-4952.34
-4952.04
-4952.11
-4952.72
-4952.28
-4949.51
-4946.06
-4944.24
-4943.22
-4941.7
-4938.58
-4934.92
-4933.34
-4934.5
-4935.48
-4935.85
-4936.05
-4609.16
-4634.13
-4675.94
-4726.73
-4782.55
-4838.99
-4891.27
-4934.89
-4966.95
-4987.13
-4997.83
-5003.02
-5006.33
-5009.15
-5010.19
-5007.47
-5000.53
-4991.37
-4982.64
-4976.11
-4971.88
-4968.69
-4965.42
-4961.33
-4957.16
-4954.45
-4953.87
-4954.51
-4954.67
-4953.38
-4950.94
-4948.7
-4947.54
-4947.54
-4947.7
-4946.58
-4943.48
-4939.49
-4936.87
-4937.02
-4938.45
-4938.54
-4936.68
-4934.59
-4676.69
-4690.44
-4715.92
-4749.84
-4790.06
-4833.61
-4876.06
-4913.31
-4942.59
-4963.15
-4976.36
-4984.65
-4990.34
-4994.41
-4996.35
-4995.19
-4990.82
-4984.64
-4978.67
-4974.24
-4971.3
-4968.73
-4965.61
-4961.73
-4958
-4955.6
-4954.85
-4954.92
-4954.56
-4952.97
-4950.64
-4948.68
-4947.99
-4948.33
-4948.55
-4947.49
-4944.97
-4941.97
-4939.96
-4939.59
-4939.9
-4939.38
-4937.75
-4936.08
-4730.14
-4737.6
-4752.9
-4775.01
-4802.88
-4834.44
-4866.89
-4896.87
-4922.17
-4941.87
-4956.37
-4966.81
-4974.35
-4979.58
-4982.48
-4982.91
-4981.1
-4977.96
-4974.62
-4971.81
-4969.51
-4967.2
-4964.49
-4961.51
-4958.73
-4956.72
-4955.6
-4954.91
-4954.01
-4952.61
-4950.97
-4949.66
-4949.04
-4948.91
-4948.65
-4947.71
-4946
-4944.02
-4942.4
-4941.48
-4940.92
-4940.12
-4939.02
-4938.13
-4771.91
-4776.25
-4785.62
-4799.88
-4818.58
-4840.48
-4863.78
-4886.61
-4907.19
-4924.64
-4938.78
-4949.92
-4958.46
-4964.7
-4968.8
-4970.9
-4971.33
-4970.64
-4969.42
-4968.03
-4966.53
-4964.8
-4962.8
-4960.68
-4958.7
-4957.1
-4955.87
-4954.85
-4953.79
-4952.61
-4951.46
-4950.51
-4949.87
-4949.4
-4948.84
-4947.98
-4946.76
-4945.39
-4944.09
-4943.03
-4942.15
-4941.33
-4940.58
-4940.07
-4804.38
-4807.15
-4813.15
-4822.45
-4834.81
-4849.6
-4865.81
-4882.34
-4898.09
-4912.38
-4924.83
-4935.34
-4943.95
-4950.72
-4955.77
-4959.24
-4961.39
-4962.52
-4962.93
-4962.83
-4962.33
-4961.47
-4960.34
-4959.06
-4957.79
-4956.63
-4955.6
-4954.63
-4953.67
-4952.73
-4951.84
-4951.08
-4950.42
-4949.81
-4949.15
-4948.35
-4947.42
-4946.4
-4945.38
-4944.44
-4943.6
-4942.88
-4942.33
-4941.99
-4829.55
-4831.43
-4835.42
-4841.57
-4849.76
-4859.63
-4870.66
-4882.24
-4893.85
-4904.9
-4915.09
-4924.19
-4932.09
-4938.75
-4944.18
-4948.45
-4951.68
-4954.02
-4955.64
-4956.65
-4957.15
-4957.24
-4957.01
-4956.56
-4955.99
-4955.36
-4954.71
-4954.03
-4953.34
-4952.65
-4951.98
-4951.36
-4950.76
-4950.16
-4949.54
-4948.85
-4948.11
-4947.34
-4946.57
-4945.83
-4945.16
-4944.61
-4944.2
-4943.95
-4848.88
-4850.18
-4852.88
-4857.01
-4862.47
-4869.09
-4876.58
-4884.64
-4892.95
-4901.21
-4909.15
-4916.58
-4923.37
-4929.42
-4934.69
-4939.17
-4942.9
-4945.93
-4948.33
-4950.17
-4951.53
-4952.46
-4953.04
-4953.35
-4953.46
-4953.4
-4953.23
-4952.96
-4952.62
-4952.24
-4951.82
-4951.38
-4950.92
-4950.45
-4949.94
-4949.41
-4948.86
-4948.29
-4947.74
-4947.21
-4946.74
-4946.34
-4946.06
-4945.89
-4863.36
-4864.27
-4866.12
-4868.93
-4872.64
-4877.15
-4882.3
-4887.95
-4893.9
-4900
-4906.06
-4911.95
-4917.55
-4922.78
-4927.56
-4931.86
-4935.65
-4938.95
-4941.77
-4944.14
-4946.09
-4947.66
-4948.9
-4949.85
-4950.54
-4951.03
-4951.35
-4951.52
-4951.57
-4951.51
-4951.38
-4951.19
-4950.94
-4950.65
-4950.32
-4949.97
-4949.6
-4949.22
-4948.85
-4948.51
-4948.2
-4947.95
-4947.77
-4947.66
-4872.99
-4873.65
-4874.99
-4877.02
-4879.69
-4882.96
-4886.73
-4890.9
-4895.37
-4900.04
-4904.81
-4909.57
-4914.23
-4918.72
-4922.97
-4926.93
-4930.58
-4933.89
-4936.86
-4939.48
-4941.76
-4943.73
-4945.39
-4946.78
-4947.92
-4948.83
-4949.55
-4950.08
-4950.47
-4950.72
-4950.86
-4950.91
-4950.88
-4950.78
-4950.63
-4950.45
-4950.24
-4950.02
-4949.79
-4949.58
-4949.39
-4949.23
-4949.12
-4949.06
-4878.44
-4878.97
-4880.03
-4881.64
-4883.77
-4886.39
-4889.42
-4892.81
-4896.48
-4900.36
-4904.37
-4908.45
-4912.52
-4916.52
-4920.39
-4924.09
-4927.58
-4930.83
-4933.82
-4936.54
-4938.99
-4941.16
-4943.07
-4944.72
-4946.13
-4947.31
-4948.29
-4949.08
-4949.7
-4950.17
-4950.5
-4950.73
-4950.86
-4950.91
-4950.9
-4950.84
-4950.74
-4950.62
-4950.49
-4950.36
-4950.24
-4950.14
-4950.07
-4950.03
-4881.23
-4881.69
-4882.61
-4884
-4885.86
-4888.14
-4890.8
-4893.78
-4897.04
-4900.51
-4904.12
-4907.84
-4911.58
-4915.31
-4918.96
-4922.51
-4925.89
-4929.1
-4932.09
-4934.86
-4937.39
-4939.68
-4941.73
-4943.53
-4945.1
-4946.45
-4947.59
-4948.53
-4949.3
-4949.91
-4950.38
-4950.72
-4950.95
-4951.1
-4951.17
-4951.18
-4951.15
-4951.09
-4951.02
-4950.93
-4950.85
-4950.78
-4950.73
-4950.71
-4882.49
-4882.91
-4883.76
-4885.05
-4886.77
-4888.89
-4891.36
-4894.14
-4897.19
-4900.45
-4903.87
-4907.4
-4910.98
-4914.57
-4918.12
-4921.59
-4924.94
-4928.13
-4931.14
-4933.95
-4936.54
-4938.9
-4941.04
-4942.94
-4944.61
-4946.06
-4947.3
-4948.34
-4949.2
-4949.9
-4950.44
-4950.85
-4951.15
-4951.35
-4951.46
-4951.52
-4951.53
-4951.5
-4951.45
-4951.39
-4951.33
-4951.27
-4951.23
-4951.21
-4882.87
-4883.28
-4884.09
-4885.33
-4886.99
-4889.03
-4891.42
-4894.11
-4897.06
-4900.24
-4903.58
-4907.03
-4910.56
-4914.1
-4917.62
-4921.07
-4924.41
-4927.62
-4930.66
-4933.51
-4936.15
-4938.57
-4940.76
-4942.73
-4944.47
-4945.98
-4947.29
-4948.39
-4949.3
-4950.04
-4950.63
-4951.07
-4951.4
-4951.62
-4951.76
-4951.83
-4951.85
-4951.84
-4951.79
-4951.74
-4951.69
-4951.63
-4951.6
-4951.58
-4882.77
-4883.17
-4883.97
-4885.2
-4886.84
-4888.86
-4891.22
-4893.89
-4896.83
-4899.98
-4903.3
-4906.75
-4910.27
-4913.82
-4917.34
-4920.81
-4924.18
-4927.41
-4930.49
-4933.37
-4936.06
-4938.52
-4940.76
-4942.76
-4944.54
-4946.09
-4947.43
-4948.56
-4949.49
-4950.25
-4950.85
-4951.31
-4951.64
-4951.87
-4952.01
-4952.08
-4952.09
-4952.07
-4952.03
-4951.97
-4951.92
-4951.86
-4951.82
-4951.8
-4882.51
-4882.91
-4883.7
-4884.93
-4886.57
-4888.6
-4890.97
-4893.65
-4896.6
-4899.77
-4903.12
-4906.59
-4910.13
-4913.71
-4917.27
-4920.76
-4924.16
-4927.43
-4930.53
-4933.45
-4936.16
-4938.65
-4940.91
-4942.93
-4944.72
-4946.28
-4947.62
-4948.75
-4949.69
-4950.44
-4951.03
-4951.47
-4951.79
-4952.01
-4952.13
-4952.19
-4952.19
-4952.16
-4952.1
-4952.04
-4951.97
-4951.92
-4951.87
-4951.85
-4882.25
-4882.65
-4883.44
-4884.68
-4886.34
-4888.39
-4890.79
-4893.5
-4896.49
-4899.69
-4903.08
-4906.58
-4910.17
-4913.78
-4917.37
-4920.9
-4924.33
-4927.62
-4930.74
-4933.67
-4936.39
-4938.89
-4941.15
-4943.17
-4944.95
-4946.49
-4947.81
-4948.92
-4949.83
-4950.55
-4951.11
-4951.52
-4951.81
-4951.99
-4952.09
-4952.12
-4952.1
-4952.05
-4951.98
-4951.9
-4951.82
-4951.75
-4951.71
-4951.68
-4882.11
-4882.51
-4883.31
-4884.56
-4886.24
-4888.32
-4890.76
-4893.51
-4896.54
-4899.78
-4903.21
-4906.75
-4910.37
-4914.01
-4917.63
-4921.18
-4924.63
-4927.93
-4931.06
-4933.99
-4936.71
-4939.19
-4941.43
-4943.43
-4945.18
-4946.69
-4947.97
-4949.03
-4949.89
-4950.56
-4951.07
-4951.43
-4951.66
-4951.8
-4951.85
-4951.84
-4951.79
-4951.71
-4951.61
-4951.52
-4951.43
-4951.36
-4951.31
-4951.28
-4882.16
-4882.56
-4883.36
-4884.63
-4886.34
-4888.46
-4890.93
-4893.71
-4896.77
-4900.05
-4903.5
-4907.07
-4910.71
-4914.38
-4918.01
-4921.57
-4925.02
-4928.33
-4931.45
-4934.37
-4937.07
-4939.53
-4941.74
-4943.69
-4945.4
-4946.86
-4948.08
-4949.08
-4949.88
-4950.48
-4950.92
-4951.21
-4951.38
-4951.44
-4951.43
-4951.36
-4951.26
-4951.14
-4951.01
-4950.89
-4950.79
-4950.72
-4950.66
-4950.64
-4882.45
-4882.84
-4883.65
-4884.94
-4886.67
-4888.8
-4891.29
-4894.09
-4897.16
-4900.45
-4903.91
-4907.49
-4911.15
-4914.82
-4918.45
-4922.02
-4925.47
-4928.76
-4931.88
-4934.78
-4937.45
-4939.87
-4942.04
-4943.96
-4945.61
-4947.01
-4948.17
-4949.1
-4949.82
-4950.34
-4950.7
-4950.91
-4950.99
-4950.97
-4950.87
-4950.72
-4950.55
-4950.36
-4950.18
-4950.03
-4949.91
-4949.82
-4949.77
-4949.75
-4883.01
-4883.41
-4884.22
-4885.5
-4887.23
-4889.35
-4891.82
-4894.6
-4897.66
-4900.94
-4904.39
-4907.97
-4911.62
-4915.29
-4918.92
-4922.48
-4925.92
-4929.2
-4932.3
-4935.18
-4937.82
-4940.21
-4942.34
-4944.21
-4945.81
-4947.15
-4948.24
-4949.1
-4949.74
-4950.18
-4950.45
-4950.56
-4950.55
-4950.43
-4950.23
-4949.98
-4949.71
-4949.43
-4949.16
-4948.94
-4948.77
-4948.66
-4948.62
-4948.62
-4883.89
-4884.28
-4885.07
-4886.31
-4887.98
-4890.04
-4892.46
-4895.2
-4898.21
-4901.46
-4904.89
-4908.45
-4912.09
-4915.74
-4919.37
-4922.92
-4926.35
-4929.62
-4932.7
-4935.56
-4938.17
-4940.53
-4942.62
-4944.44
-4945.99
-4947.28
-4948.31
-4949.1
-4949.66
-4950.02
-4950.2
-4950.22
-4950.11
-4949.88
-4949.58
-4949.21
-4948.81
-4948.4
-4948.02
-4947.68
-4947.42
-4947.24
-4947.18
-4947.2
-4885.16
-4885.5
-4886.22
-4887.31
-4888.88
-4890.83
-4893.15
-4895.81
-4898.76
-4901.96
-4905.36
-4908.89
-4912.51
-4916.16
-4919.78
-4923.32
-4926.74
-4930
-4933.06
-4935.9
-4938.5
-4940.83
-4942.89
-4944.67
-4946.17
-4947.4
-4948.38
-4949.1
-4949.6
-4949.88
-4949.98
-4949.91
-4949.7
-4949.37
-4948.95
-4948.46
-4947.92
-4947.36
-4946.82
-4946.31
-4945.89
-4945.56
-4945.45
-4945.44
-4886.93
-4887.06
-4887.62
-4888.46
-4889.84
-4891.63
-4893.83
-4896.38
-4899.26
-4902.41
-4905.77
-4909.28
-4912.88
-4916.52
-4920.13
-4923.66
-4927.08
-4930.33
-4933.38
-4936.21
-4938.78
-4941.09
-4943.12
-4944.87
-4946.34
-4947.53
-4948.45
-4949.12
-4949.56
-4949.78
-4949.8
-4949.65
-4949.35
-4948.93
-4948.39
-4947.78
-4947.1
-4946.38
-4945.65
-4944.92
-4944.27
-4943.66
-4943.41
-4943.23
-4889.33
-4888.94
-4889.2
-4889.65
-4890.78
-4892.37
-4894.43
-4896.88
-4899.68
-4902.78
-4906.1
-4909.59
-4913.18
-4916.81
-4920.41
-4923.95
-4927.36
-4930.6
-4933.65
-4936.47
-4939.03
-4941.32
-4943.33
-4945.05
-4946.49
-4947.64
-4948.52
-4949.15
-4949.54
-4949.7
-4949.66
-4949.45
-4949.07
-4948.56
-4947.93
-4947.2
-4946.39
-4945.51
-4944.58
-4943.6
-4942.67
-4941.64
-4941.12
-4940.44
-4892.5
-4891.04
-4890.85
-4890.78
-4891.63
-4893.01
-4894.93
-4897.28
-4900.02
-4903.06
-4906.36
-4909.83
-4913.41
-4917.03
-4920.64
-4924.17
-4927.58
-4930.82
-4933.87
-4936.68
-4939.23
-4941.51
-4943.5
-4945.2
-4946.62
-4947.74
-4948.6
-4949.19
-4949.53
-4949.65
-4949.57
-4949.3
-4948.86
-4948.28
-4947.57
-4946.74
-4945.81
-4944.79
-4943.68
-4942.44
-4941.2
-4939.62
-4938.69
-4936.93
-4896.53
-4893.17
-4892.4
-4891.75
-4892.32
-4893.5
-4895.3
-4897.57
-4900.25
-4903.26
-4906.54
-4910
-4913.58
-4917.2
-4920.8
-4924.33
-4927.75
-4930.99
-4934.03
-4936.84
-4939.39
-4941.66
-4943.64
-4945.33
-4946.72
-4947.83
-4948.66
-4949.22
-4949.54
-4949.63
-4949.51
-4949.19
-4948.71
-4948.08
-4947.3
-4946.4
-4945.38
-4944.24
-4942.97
-4941.51
-4939.95
-4937.78
-4936.29
-4932.62
-4901.33
-4895.13
-4893.7
-4892.49
-4892.83
-4893.85
-4895.56
-4897.77
-4900.41
-4903.4
-4906.66
-4910.11
-4913.68
-4917.31
-4920.91
-4924.45
-4927.86
-4931.11
-4934.15
-4936.95
-4939.5
-4941.76
-4943.74
-4945.42
-4946.8
-4947.9
-4948.71
-4949.26
-4949.55
-4949.62
-4949.47
-4949.13
-4948.62
-4947.95
-4947.13
-4946.18
-4945.09
-4943.86
-4942.48
-4940.83
-4939.02
-4936.29
-4934.16
-4927.61
-4906.55
-4896.68
-4894.61
-4892.98
-4893.14
-4894.06
-4895.71
-4897.88
-4900.5
-4903.47
-4906.72
-4910.17
-4913.75
-4917.37
-4920.98
-4924.51
-4927.93
-4931.18
-4934.22
-4937.02
-4939.57
-4941.83
-4943.8
-4945.47
-4946.85
-4947.94
-4948.74
-4949.28
-4949.56
-4949.62
-4949.45
-4949.1
-4948.56
-4947.87
-4947.03
-4946.04
-4944.92
-4943.63
-4942.18
-4940.41
-4938.42
-4935.25
-4932.5
-4922.24
-4911.49
-4897.66
-4895.1
-4893.23
-4893.3
-4894.17
-4895.78
-4897.94
-4900.54
-4903.5
-4906.75
-4910.2
-4913.77
-4917.4
-4921
-4924.54
-4927.96
-4931.21
-4934.25
-4937.06
-4939.6
-4941.86
-4943.83
-4945.5
-4946.87
-4947.96
-4948.76
-4949.29
-4949.57
-4949.61
-4949.45
-4949.08
-4948.54
-4947.84
-4946.98
-4945.98
-4944.84
-4943.52
-4942.03
-4940.2
-4938.11
-4934.71
-4931.47
-4917.24
-4915.44
-4898.09
-4895.27
-4893.32
-4893.35
-4894.2
-4895.81
-4897.95
-4900.55
-4903.52
-4906.76
-4910.21
-4913.78
-4917.4
-4921.01
-4924.55
-4927.97
-4931.22
-4934.26
-4937.06
-4939.61
-4941.87
-4943.84
-4945.51
-4946.88
-4947.96
-4948.76
-4949.29
-4949.57
-4949.61
-4949.44
-4949.08
-4948.53
-4947.82
-4946.97
-4945.96
-4944.81
-4943.49
-4941.98
-4940.13
-4938.01
-4934.52
-4931.02
-4913.27
)
;

boundaryField
{
    movingWall
    {
        type            zeroGradient;
    }
    fixedWalls
    {
        type            zeroGradient;
    }
    frontAndBack
    {
        type            empty;
    }
    defaultFaces
    {
        type            empty;
    }
}


// ************************************************************************* //
