/*--------------------------------*- C++ -*----------------------------------*\
  =========                 |
  \\      /  F ield         | OpenFOAM: The Open Source CFD Toolbox
   \\    /   O peration     | Website:  https://openfoam.org
    \\  /    A nd           | Version:  7
     \\/     M anipulation  |
\*---------------------------------------------------------------------------*/
FoamFile
{
    version     2.0;
    format      ascii;
    class       volScalarField;
    location    "1.9";
    object      p;
}
// * * * * * * * * * * * * * * * * * * * * * * * * * * * * * * * * * * * * * //

dimensions      [0 2 -2 0 0 0 0];

internalField   nonuniform List<scalar> 
900
(
1.90684e-08
-0.000128354
-0.000233984
-0.000296846
-0.000292254
-0.000211917
-5.66261e-05
0.000169816
0.000463032
0.000818621
0.00123205
0.00169835
0.00221178
0.00276562
0.00335195
0.00396159
0.00458406
0.00520759
0.00581931
0.00640541
0.00695143
0.00744263
0.00786447
0.00820326
0.00844716
0.00858796
0.00862456
0.00856968
0.00845738
0.00831253
0.000127246
-2.35566e-06
-7.59566e-05
-0.000105906
-8.1366e-05
6.02442e-06
0.000158075
0.000373806
0.000651063
0.000986887
0.00137759
0.0018187
0.0023048
0.00282945
0.003385
0.00396258
0.00455206
0.00514217
0.00572057
0.00627411
0.00678918
0.00725217
0.00765013
0.00797159
0.00820766
0.00835346
0.00841069
0.00839191
0.0083149
0.00816988
0.000235788
6.83576e-05
-7.32992e-06
-3.09948e-05
-1.69228e-06
8.70271e-05
0.00023671
0.000446835
0.000715992
0.00104192
0.00142152
0.00185073
0.00232453
0.00283676
0.00338001
0.00394565
0.0045238
0.00510325
0.00567181
0.00621645
0.00672366
0.00718
0.00757276
0.00789087
0.00812592
0.00827331
0.00833449
0.00832048
0.0082391
0.00805392
0.000303103
9.22467e-05
4.53111e-06
-2.19197e-05
6.49876e-06
9.41047e-05
0.000241446
0.000447784
0.000711988
0.00103226
0.00140596
0.00182951
0.00229824
0.00280632
0.00334662
0.00391069
0.00448871
0.00506949
0.0056407
0.00618908
0.00670081
0.00716203
0.00755961
0.00788204
0.00812042
0.00826942
0.00832945
0.00831
0.00821267
0.00798029
0.000300499
5.35715e-05
-4.71685e-05
-7.93783e-05
-5.4186e-05
3.12328e-05
0.000176511
0.000380595
0.000642491
0.000960747
0.00133314
0.00175651
0.0022266
0.00273791
0.00328356
0.00385521
0.00444308
0.0050358
0.00562072
0.00618401
0.00671113
0.00718734
0.00759853
0.00793217
0.00817835
0.00833068
0.00838857
0.00836084
0.00824607
0.00797343
0.000214234
-6.19171e-05
-0.000175182
-0.000214265
-0.000193206
-0.000110078
3.40694e-05
0.000237917
0.000500567
0.000820861
0.00119697
0.00162614
0.00210452
0.00262695
0.0031868
0.00377583
0.00438417
0.00500017
0.00561057
0.00620072
0.00675492
0.00725706
0.00769147
0.00804405
0.00830342
0.00846194
0.00851825
0.00848139
0.00834917
0.00804185
3.88368e-05
-0.000262468
-0.000387609
-0.00043372
-0.000416754
-0.000335295
-0.00019087
1.50201e-05
0.000281593
0.000607994
0.000992791
0.00143368
0.00192725
0.00246869
0.00305165
0.00366797
0.00430767
0.00495866
0.0056069
0.00623658
0.00683042
0.0073704
0.00783868
0.00821898
0.00849795
0.00866651
0.00872273
0.00867664
0.00852661
0.0081863
-0.000228787
-0.000554145
-0.000690918
-0.000743865
-0.000730496
-0.000649709
-0.000503391
-0.000293152
-1.96034e-05
0.000316748
0.000714928
0.00117314
0.00168847
0.00225657
0.0028714
0.00352495
0.00420709
0.00490525
0.00560444
0.00628736
0.00693472
0.00752596
0.00804036
0.00845871
0.00876505
0.00894848
0.00900665
0.00895123
0.008782
0.0084064
-0.000592069
-0.000942848
-0.00109165
-0.00115133
-0.00114099
-0.00105982
-0.000910034
-0.000693308
-0.00041003
-6.02825e-05
0.000355507
0.000836158
0.00137937
0.00198137
0.00263659
0.00333727
0.00407318
0.00483131
0.00559558
0.00634695
0.00706362
0.00772177
0.00829693
0.00876592
0.00910927
0.00931366
0.00937625
0.00931096
0.00911971
0.008703
-0.00105585
-0.0014352
-0.00159707
-0.00166361
-0.0016559
-0.00157344
-0.00141884
-0.00119384
-0.000898564
-0.000532569
-9.56172e-05
0.000411868
0.00098838
0.00163092
0.00233457
0.00309205
0.00389324
0.00472475
0.00556945
0.0064063
0.00721053
0.00795426
0.00860807
0.00914348
0.00953617
0.00976936
0.0098394
0.00976314
0.00954542
0.00907853
-0.00162676
-0.00203913
-0.00221562
-0.00228948
-0.0022842
-0.00219981
-0.00203942
-0.00180489
-0.001496
-0.00111169
-0.000650928
-0.000113186
0.000501044
0.0011898
0.00194913
0.00277255
0.00365036
0.00456914
0.00551078
0.00645223
0.00736525
0.00821701
0.00897171
0.00959374
0.0100519
0.0103244
0.0104059
0.010317
0.0100664
0.0095368
-0.00231339
-0.00276427
-0.00295737
-0.00303926
-0.00303648
-0.00294985
-0.00278314
-0.00253842
-0.00221509
-0.00181139
-0.00132531
-0.00075517
-0.000100175
0.000639084
0.00146005
0.00235748
0.00332262
0.00434254
0.00539854
0.00646575
0.00751219
0.00849912
0.00938265
0.0101175
0.0106629
0.0109891
0.0110879
0.010984
0.0106917
0.0100823
-0.00312638
-0.0036223
-0.00383441
-0.00392524
-0.00392521
-0.00383627
-0.00366318
-0.00340826
-0.00307059
-0.00264756
-0.00213604
-0.00153298
-0.000835986
-4.38832e-05
0.000842689
0.00182041
0.00288212
0.00401612
0.00520409
0.00641989
0.00762788
0.00878261
0.00983015
0.0107124
0.0113747
0.0117754
0.0119005
0.0117788
0.0114326
0.0107194
-0.00407857
-0.0046273
-0.00486117
-0.00496193
-0.00496495
-0.0048738
-0.0046946
-0.00443015
-0.00407916
-0.00363814
-0.00310268
-0.00246812
-0.00173022
-0.000885578
6.76929e-05
0.00112895
0.00229354
0.00355242
0.00488881
0.00627663
0.00767731
0.00903841
0.0102941
0.0113695
0.0121902
0.0126961
0.0128621
0.0127205
0.0123034
0.0114513
-0.00518539
-0.0057963
-0.00605498
-0.00616653
-0.00617266
-0.0060793
-0.00589444
-0.00562163
-0.00525925
-0.00480289
-0.00424674
-0.00358441
-0.0028095
-0.00191605
-0.000899073
0.000244227
0.0015132
0.00290346
0.00440142
0.005983
0.00760879
0.00922026
0.0107385
0.0120675
0.0131055
0.0137633
0.0139956
0.0138342
0.0133227
0.0122783
-0.0064654
-0.00715006
-0.00743683
-0.00755949
-0.00756808
-0.00747196
-0.00728171
-0.00700192
-0.0066308
-0.00616296
-0.00559119
-0.00490725
-0.00410246
-0.00316807
-0.00209572
-0.000877853
0.000490969
0.00201047
0.00367528
0.00546638
0.00734694
0.00925555
0.0111009
0.0127626
0.0141014
0.0149841
0.0153279
0.0151548
0.0145179
0.0131973
-0.00794125
-0.00871435
-0.00903238
-0.00916528
-0.00917424
-0.00907354
-0.00887733
-0.0085917
-0.00821477
-0.00774025
-0.00715951
-0.00646257
-0.00563852
-0.00467577
-0.00356221
-0.0022854
-0.000833314
0.000802623
0.0026265
0.00462946
0.00678395
0.00903234
0.0112761
0.0133697
0.0151272
0.0163497
0.016888
0.0167316
0.015932
0.0142024
-0.00964127
-0.0105218
-0.0108737
-0.0110136
-0.011018
-0.0109085
-0.0107041
-0.0104127
-0.0100325
-0.00955636
-0.00897438
-0.00827502
-0.0074455
-0.00647179
-0.00533832
-0.00402771
-0.00252108
-0.000799904
0.00115375
0.00334699
0.00577059
0.00838272
0.0110904
0.0137318
0.0160692
0.0178113
0.0186963
0.0186335
0.0176371
0.0152913
-0.0116022
-0.0126153
-0.0130017
-0.0131407
-0.013131
-0.0130044
-0.0127862
-0.0124869
-0.0121046
-0.0116312
-0.0110557
-0.0103655
-0.00954651
-0.00858334
-0.00745809
-0.00614966
-0.00463281
-0.00287805
-0.000855233
0.00146822
0.0041117
0.00706681
0.0102711
0.0135722
0.0166934
0.0192282
0.020733
0.0209457
0.0197558
0.0164855
-0.0138736
-0.0150526
-0.0154696
-0.0155918
-0.0155501
-0.0153912
-0.0151487
-0.0148356
-0.0144494
-0.0139808
-0.0134179
-0.0127473
-0.011955
-0.0110257
-0.00994141
-0.00868005
-0.00721323
-0.00550426
-0.0035072
-0.00116633
0.00157774
0.00477117
0.00842114
0.0124397
0.016562
0.0202724
0.0228634
0.0237438
0.0224857
0.017877
-0.0165267
-0.0179153
-0.0183488
-0.018423
-0.0183178
-0.0181011
-0.0178159
-0.0174769
-0.01708
-0.0166139
-0.0160653
-0.0154209
-0.0146678
-0.0137931
-0.012782
-0.0116155
-0.0102678
-0.00870178
-0.00686348
-0.0046776
-0.00204499
0.00115391
0.00504447
0.00969155
0.0149587
0.020304
0.0247073
0.027018
0.0261148
0.0197293
-0.0196702
-0.0213219
-0.0217357
-0.0217035
-0.021481
-0.0211646
-0.0208067
-0.0204208
-0.0199987
-0.0195253
-0.0189851
-0.0183652
-0.0176552
-0.0168468
-0.015932
-0.0149007
-0.0137374
-0.0124154
-0.0108869
-0.00906809
-0.00683887
-0.00401251
-0.000295363
0.0046383
0.0109698
0.0183494
0.0255355
0.030578
0.0310198
0.0226939
-0.0234826
-0.0254508
-0.025761
-0.0255146
-0.0250846
-0.0246021
-0.0241244
-0.0236576
-0.0231843
-0.0226824
-0.022133
-0.0215231
-0.0208455
-0.0200985
-0.0192843
-0.0184073
-0.01747
-0.0164684
-0.0153819
-0.0141473
-0.0126092
-0.010604
-0.00762196
-0.00299847
0.00398085
0.0135119
0.0244888
0.0341166
0.0377181
0.028235
-0.0282818
-0.0305775
-0.030598
-0.0299407
-0.0291539
-0.0284021
-0.0277327
-0.0271322
-0.0265656
-0.0259992
-0.025408
-0.0247774
-0.0241035
-0.0233919
-0.0226568
-0.02192
-0.0212082
-0.0205491
-0.0199616
-0.0194348
-0.0188757
-0.0179385
-0.0161587
-0.0124598
-0.00544545
0.00599737
0.021469
0.0377522
0.0472156
0.0392927
-0.0346742
-0.0371283
-0.0364568
-0.0350349
-0.0336492
-0.0324702
-0.0315023
-0.0306902
-0.029969
-0.0292862
-0.0286066
-0.0279121
-0.0272001
-0.0264824
-0.0257842
-0.0251436
-0.0246104
-0.0242432
-0.0240995
-0.0242078
-0.0244993
-0.0246773
-0.0241808
-0.0215788
-0.0148556
-0.00180014
0.0184179
0.0431428
0.0618875
0.0608219
-0.0439082
-0.0457453
-0.0435149
-0.040717
-0.0383537
-0.0365147
-0.0350976
-0.033971
-0.0330215
-0.0321669
-0.0313553
-0.0305603
-0.0297769
-0.0290195
-0.0283201
-0.0277273
-0.0273057
-0.0271316
-0.0272806
-0.0277888
-0.0285752
-0.0295708
-0.0295793
-0.0273411
-0.0202807
-0.00525037
0.0199813
0.0546496
0.0864408
0.0994679
-0.0589209
-0.0573481
-0.051726
-0.0465473
-0.0426508
-0.0398406
-0.0377965
-0.0362615
-0.0350419
-0.0340048
-0.0330681
-0.0321889
-0.0313535
-0.030573
-0.0298798
-0.0293246
-0.028973
-0.0288984
-0.0291637
-0.0297797
-0.0306268
-0.0313426
-0.0308567
-0.0274294
-0.0182068
0.000495085
0.0320228
0.0787271
0.127182
0.163872
-0.0871902
-0.0727431
-0.0606599
-0.0515541
-0.0453717
-0.0412831
-0.0385162
-0.0366016
-0.035202
-0.0340988
-0.0331608
-0.032317
-0.0315391
-0.0308309
-0.0302204
-0.0297531
-0.0294838
-0.0294626
-0.0297062
-0.0301463
-0.030537
-0.0303038
-0.0281498
-0.0219736
-0.00848121
0.0167116
0.0581168
0.119155
0.189713
0.271304
-0.139689
-0.0877981
-0.0677351
-0.0529231
-0.0439035
-0.0387211
-0.035699
-0.0338764
-0.0327142
-0.0319023
-0.031264
-0.0307065
-0.0301931
-0.0297254
-0.02933
-0.0290482
-0.0289224
-0.0289759
-0.0291735
-0.0293488
-0.0290851
-0.0275514
-0.0233585
-0.013927
0.00458407
0.0377224
0.0918303
0.174227
0.28198
0.453761
-0.31126
-0.0969492
-0.0495668
-0.0336378
-0.0262356
-0.0234756
-0.0231288
-0.023687
-0.0244511
-0.0251658
-0.0257415
-0.0261555
-0.0264244
-0.0265895
-0.0267063
-0.0268336
-0.0270206
-0.0272837
-0.0275678
-0.0276799
-0.027187
-0.025248
-0.0202988
-0.00959299
0.0108869
0.0476576
0.110173
0.218969
0.393283
0.73868
)
;

boundaryField
{
    movingWall
    {
        type            zeroGradient;
    }
    fixedWalls
    {
        type            zeroGradient;
    }
    frontAndBack
    {
        type            empty;
    }
}


// ************************************************************************* //
