/*--------------------------------*- C++ -*----------------------------------*\
  =========                 |
  \\      /  F ield         | OpenFOAM: The Open Source CFD Toolbox
   \\    /   O peration     | Website:  https://openfoam.org
    \\  /    A nd           | Version:  7
     \\/     M anipulation  |
\*---------------------------------------------------------------------------*/
FoamFile
{
    version     2.0;
    format      ascii;
    class       surfaceScalarField;
    location    "1.9";
    object      phi;
}
// * * * * * * * * * * * * * * * * * * * * * * * * * * * * * * * * * * * * * //

dimensions      [0 3 -1 0 0 0 0];

internalField   nonuniform List<scalar> 
1740
(
9.64925e-08
-9.65104e-08
-1.30787e-06
1.40436e-06
-4.07732e-06
2.76945e-06
-7.68439e-06
3.60707e-06
-1.16817e-05
3.99731e-06
-1.57616e-05
4.07991e-06
-1.97355e-05
3.9739e-06
-2.34925e-05
3.75697e-06
-2.6963e-05
3.47052e-06
-3.00958e-05
3.1328e-06
-3.2846e-05
2.75017e-06
-3.51702e-05
2.32419e-06
-3.70254e-05
1.85525e-06
-3.83696e-05
1.34425e-06
-3.9163e-05
7.93355e-07
-3.93693e-05
2.06331e-07
-3.89582e-05
-4.11167e-07
-3.79068e-05
-1.05138e-06
-3.62027e-05
-1.70413e-06
-3.38461e-05
-2.35653e-06
-3.08539e-05
-2.99219e-06
-2.72644e-05
-3.58954e-06
-2.31461e-05
-4.11836e-06
-1.86123e-05
-4.53377e-06
-1.38448e-05
-4.76752e-06
-9.12497e-06
-4.71978e-06
-4.86387e-06
-4.2611e-06
-1.60472e-06
-3.25915e-06
5.40988e-08
-1.65882e-06
5.40944e-08
-1.40483e-06
1.30832e-06
-5.98772e-06
5.98725e-06
-1.30956e-05
9.87738e-06
-2.18449e-05
1.23564e-05
-3.14214e-05
1.35738e-05
-4.12029e-05
1.38614e-05
-5.07604e-05
1.35314e-05
-5.98103e-05
1.28069e-05
-6.81598e-05
1.182e-05
-7.56653e-05
1.06383e-05
-8.22079e-05
9.29271e-06
-8.76806e-05
7.79695e-06
-9.19842e-05
6.15886e-06
-9.50262e-05
4.38626e-06
-9.67228e-05
2.48987e-06
-9.70008e-05
4.84346e-07
-9.58034e-05
-1.60859e-06
-9.30915e-05
-3.76322e-06
-8.88515e-05
-5.94419e-06
-8.31e-05
-8.10798e-06
-7.58931e-05
-1.01991e-05
-6.73384e-05
-1.21443e-05
-5.76139e-05
-1.38428e-05
-4.69978e-05
-1.51499e-05
-3.59075e-05
-1.58579e-05
-2.49435e-05
-1.56838e-05
-1.4914e-05
-1.42905e-05
-6.80004e-06
-1.13731e-05
-1.59314e-06
-6.86572e-06
-1.53905e-06
-2.85294e-06
4.16126e-06
-1.01532e-05
1.32875e-05
-2.0678e-05
2.04021e-05
-3.32396e-05
2.4918e-05
-4.681e-05
2.71442e-05
-6.05978e-05
2.76492e-05
-7.40404e-05
2.6974e-05
-8.67499e-05
2.55164e-05
-9.84528e-05
2.35229e-05
-0.000108942
2.11278e-05
-0.000118049
1.83991e-05
-0.000125623
1.53712e-05
-0.00013153
1.20661e-05
-0.000135648
8.50416e-06
-0.000137868
4.70989e-06
-0.0001381
7.15781e-07
-0.000136271
-3.43721e-06
-0.00013234
-7.6943e-06
-0.000126297
-1.19875e-05
-0.000118174
-1.6231e-05
-0.000108057
-2.03157e-05
-9.61027e-05
-2.40986e-05
-8.25609e-05
-2.73846e-05
-6.78111e-05
-2.98998e-05
-5.24065e-05
-3.12624e-05
-3.71209e-05
-3.09694e-05
-2.29733e-05
-2.84382e-05
-1.11959e-05
-2.31505e-05
-3.11358e-06
-1.4948e-05
-4.65264e-06
-3.87947e-06
8.04074e-06
-1.32613e-05
2.26694e-05
-2.63851e-05
3.3526e-05
-4.17682e-05
4.03011e-05
-5.8215e-05
4.3591e-05
-7.48296e-05
4.42638e-05
-9.09758e-05
4.31203e-05
-0.00010621
4.07501e-05
-0.000120212
3.75252e-05
-0.000132739
3.3655e-05
-0.00014359
2.92502e-05
-0.00015259
2.43713e-05
-0.000159582
1.90583e-05
-0.000164426
1.33477e-05
-0.000166997
7.28106e-06
-0.000167193
9.11283e-07
-0.000164933
-5.69695e-06
-0.000160171
-1.24566e-05
-0.000152897
-1.92612e-05
-0.000143152
-2.59761e-05
-0.000131038
-3.24296e-05
-0.000116739
-3.83969e-05
-0.00010055
-4.35742e-05
-8.29084e-05
-4.75411e-05
-6.44497e-05
-4.97211e-05
-4.60532e-05
-4.93659e-05
-2.88788e-05
-4.56126e-05
-1.4359e-05
-3.76703e-05
-4.13347e-06
-2.51736e-05
-8.78611e-06
-4.56158e-06
1.26023e-05
-1.54665e-05
3.35742e-05
-3.05395e-05
4.8599e-05
-4.80358e-05
5.77974e-05
-6.66128e-05
6.2168e-05
-8.52944e-05
6.29454e-05
-0.000103398
6.12238e-05
-0.000120448
5.78006e-05
-0.000136103
5.31804e-05
-0.0001501
4.76511e-05
-0.000162219
4.13691e-05
-0.00017227
3.44224e-05
-0.000180082
2.68707e-05
-0.000185502
1.87673e-05
-0.000188392
1.01715e-05
-0.000188638
1.15739e-06
-0.000186149
-8.18624e-06
-0.000180867
-1.77388e-05
-0.000172775
-2.7353e-05
-0.00016191
-3.68408e-05
-0.000148378
-4.59615e-05
-0.000132376
-5.43996e-05
-0.00011422
-6.17299e-05
-9.43917e-05
-6.73693e-05
-7.35866e-05
-7.05263e-05
-5.27723e-05
-7.01802e-05
-3.32365e-05
-6.51484e-05
-1.66015e-05
-5.43052e-05
-4.79265e-06
-3.69825e-05
-1.35788e-05
-5.03207e-06
1.76344e-05
-1.70888e-05
4.5631e-05
-3.36905e-05
6.52006e-05
-5.28696e-05
7.69765e-05
-7.31495e-05
8.24479e-05
-9.34813e-05
8.32771e-05
-0.000113145
8.08874e-05
-0.000131646
7.63013e-05
-0.000148629
7.01633e-05
-0.00016382
6.28427e-05
-0.000176993
5.45417e-05
-0.000187946
4.5376e-05
-0.000196499
3.54238e-05
-0.000202486
2.4754e-05
-0.000205757
1.3442e-05
-0.00020618
1.58066e-06
-0.000203647
-1.0719e-05
-0.000198082
-2.33039e-05
-0.000189449
-3.59857e-05
-0.000177769
-4.85206e-05
-0.000163138
-6.05932e-05
-0.00014575
-7.17871e-05
-0.00012594
-8.15406e-05
-0.000104222
-8.90872e-05
-8.13549e-05
-9.33931e-05
-5.84046e-05
-9.31306e-05
-3.67999e-05
-8.6753e-05
-1.83598e-05
-7.27454e-05
-5.26753e-06
-5.00747e-05
-1.88463e-05
-5.40876e-06
2.30431e-05
-1.84386e-05
5.86609e-05
-3.63707e-05
8.31327e-05
-5.70429e-05
9.76487e-05
-7.88514e-05
0.000104256
-0.000100675
0.000105101
-0.000121758
0.00010197
-0.000141588
9.61313e-05
-0.000159802
8.83781e-05
-0.000176123
7.91637e-05
-0.000190318
6.87366e-05
-0.00020218
5.7238e-05
-0.000211519
4.47624e-05
-0.000218156
3.13912e-05
-0.000221925
1.72112e-05
-0.000222674
2.32996e-06
-0.000220269
-1.31241e-05
-0.000214604
-2.89692e-05
-0.000205612
-4.49778e-05
-0.000193283
-6.08493e-05
-0.000177689
-7.61876e-05
-0.000159013
-9.04627e-05
-0.000137598
-0.000102956
-0.000113995
-0.00011269
-8.904e-05
-0.000118348
-6.39184e-05
-0.000118252
-4.02299e-05
-0.000110442
-2.00109e-05
-9.29644e-05
-5.69668e-06
-6.43889e-05
-2.4543e-05
-5.77504e-06
2.88182e-05
-1.97524e-05
7.26383e-05
-3.89948e-05
0.000102375
-6.11546e-05
0.000119809
-8.45007e-05
0.000127602
-0.000107837
0.000128437
-0.000130369
0.000124502
-0.000151568
0.000117331
-0.000171067
0.000107877
-0.000188584
9.66805e-05
-0.000203884
8.40369e-05
-0.000216757
7.01109e-05
-0.000227004
5.50093e-05
-0.000234433
3.88204e-05
-0.000238859
2.16367e-05
-0.000240101
3.57263e-06
-0.000237993
-1.52328e-05
-0.000232385
-3.45771e-05
-0.000223165
-5.41975e-05
-0.000210277
-7.37375e-05
-0.000193751
-9.27139e-05
-0.000173745
-0.000110468
-0.000150603
-0.000126098
-0.000124921
-0.000138372
-9.76257e-05
-0.000145643
-7.00579e-05
-0.00014582
-4.40285e-05
-0.000136471
-2.18303e-05
-0.000115163
-6.17134e-06
-8.00478e-05
-3.07143e-05
-6.18214e-06
3.50003e-05
-2.11875e-05
8.76436e-05
-4.18465e-05
0.000123034
-6.56174e-05
0.000143579
-9.06339e-05
0.000152619
-0.000115619
0.000153422
-0.000139737
0.00014862
-0.000162443
0.000140037
-0.000183363
0.000128797
-0.000202218
0.000115536
-0.000218774
0.000100592
-0.000232817
8.41537e-05
-0.000244141
6.63342e-05
-0.000252543
4.72223e-05
-0.000257814
2.69072e-05
-0.000259741
5.49985e-06
-0.000258113
-1.68609e-05
-0.000252727
-3.99633e-05
-0.000243406
-6.35184e-05
-0.000230026
-8.7117e-05
-0.000212556
-0.000110184
-0.000191109
-0.000131915
-0.000166018
-0.000151189
-0.000137924
-0.000166466
-0.00010787
-0.000175697
-7.73921e-05
-0.000176298
-4.85688e-05
-0.000165294
-2.401e-05
-0.000139721
-6.74733e-06
-9.73105e-05
-3.74616e-05
-6.65988e-06
4.16602e-05
-2.28427e-05
0.000103826
-4.51097e-05
0.000145301
-7.07007e-05
0.00016917
-9.75992e-05
0.000179517
-0.000124439
0.000180262
-0.00015034
0.000174521
-0.000174742
0.000164438
-0.000197268
0.000151323
-0.000217642
0.00013591
-0.000235636
0.000118586
-0.000251039
9.95561e-05
-0.00026364
7.89361e-05
-0.000273225
5.68067e-05
-0.00027956
3.32425e-05
-0.000282397
8.33697e-06
-0.000281472
-1.77865e-05
-0.00027651
-4.4925e-05
-0.000267251
-7.27771e-05
-0.000253477
-0.000100891
-0.000235062
-0.000128599
-0.000212047
-0.000154931
-0.000184734
-0.000178502
-0.000153803
-0.000197397
-0.000120435
-0.000209065
-8.64133e-05
-0.00021032
-5.41632e-05
-0.000197544
-2.67006e-05
-0.000167184
-7.4623e-06
-0.000116549
-4.49239e-05
-7.22687e-06
4.88871e-05
-2.47833e-05
0.000121383
-4.8908e-05
0.000169426
-7.65859e-05
0.000196848
-0.000105628
0.00020856
-0.00013457
0.000209203
-0.000162484
0.000202435
-0.000188794
0.000190748
-0.000213127
0.000175657
-0.000235217
0.000158001
-0.000254847
0.000138216
-0.000271813
0.000116522
-0.000285909
9.30327e-05
-0.000296912
6.78089e-05
-0.000304566
4.08973e-05
-0.000308585
1.23558e-05
-0.000308643
-1.7729e-05
-0.000304379
-4.91887e-05
-0.000295424
-8.17324e-05
-0.00028143
-0.000114885
-0.000262136
-0.000147893
-0.000237464
-0.000179603
-0.000207647
-0.00020832
-0.000173388
-0.000231656
-0.000136024
-0.000246428
-9.76489e-05
-0.000248695
-6.11418e-05
-0.000234051
-3.00544e-05
-0.000198271
-8.35056e-06
-0.000138253
-5.32745e-05
-7.8979e-06
5.6785e-05
-2.70615e-05
0.000140546
-5.33392e-05
0.000195704
-8.34133e-05
0.000226922
-0.000114896
0.000240042
-0.000146209
0.000240517
-0.000176379
0.000232604
-0.000204816
0.000219186
-0.00023116
0.000202
-0.00025516
0.000182001
-0.000276621
0.000159676
-0.000295359
0.00013526
-0.000311178
0.000108852
-0.000323856
8.04869e-05
-0.000333124
5.01648e-05
-0.000338654
1.78862e-05
-0.000340057
-1.63266e-05
-0.000336868
-5.23774e-05
-0.00032858
-9.00202e-05
-0.000314674
-0.000128792
-0.000294694
-0.000167872
-0.000268376
-0.000205921
-0.000235817
-0.000240879
-0.000197703
-0.00026977
-0.000155531
-0.0002886
-0.000111783
-0.000292443
-6.99362e-05
-0.000275898
-3.42693e-05
-0.000233938
-9.45529e-06
-0.000163067
-6.27298e-05
-8.68894e-06
6.54739e-05
-2.97311e-05
0.000161589
-5.85009e-05
0.000224473
-9.13187e-05
0.00025974
-0.000125563
0.000274287
-0.000159533
0.000274487
-0.000192202
0.000265273
-0.00022298
0.000249963
-0.000251522
0.000230542
-0.000277611
0.00020809
-0.000301085
0.000183151
-0.000321793
0.000155968
-0.000339566
0.000126626
-0.000354196
9.5116e-05
-0.000365408
6.13771e-05
-0.000372847
2.5325e-05
-0.000376057
-1.31166e-05
-0.000374457
-5.39768e-05
-0.000367375
-9.71028e-05
-0.000354065
-0.000142101
-0.000333803
-0.000188134
-0.000306036
-0.000233689
-0.00027062
-0.000276294
-0.000228136
-0.000312254
-0.000180218
-0.000336518
-0.00012981
-0.000342851
-8.11895e-05
-0.000324519
-3.96451e-05
-0.000275483
-1.08424e-05
-0.000191869
-7.35722e-05
-9.6209e-06
7.50948e-05
-3.28588e-05
0.000184827
-6.45102e-05
0.000256125
-0.00010046
0.00029569
-0.000137813
0.00031164
-0.000174728
0.000311402
-0.000210133
0.000300678
-0.000243442
0.000283272
-0.000274345
0.000261445
-0.000302672
0.000236417
-0.000328312
0.00020879
-0.000351165
0.000178821
-0.00037111
0.00014657
-0.000387972
0.000111978
-0.000401494
7.4899e-05
-0.000411306
3.51366e-05
-0.000416907
-7.51571e-06
-0.000417581
-5.33024e-05
-0.000412473
-0.000102211
-0.000400558
-0.000154016
-0.000380742
-0.000207951
-0.000352045
-0.000262386
-0.000313913
-0.000314425
-0.000266656
-0.000359511
-0.000211951
-0.000391222
-0.000153263
-0.00040154
-9.59265e-05
-0.000381856
-4.66737e-05
-0.000324736
-1.26238e-05
-0.000225919
-8.6196e-05
-1.07234e-05
8.58182e-05
-3.65363e-05
0.000210639
-7.15224e-05
0.000291111
-0.000111039
0.000335206
-0.000151869
0.000352471
-0.000192021
0.000351554
-0.000230377
0.000339035
-0.000266375
0.00031927
-0.000299757
0.000294827
-0.00033042
0.000267081
-0.000358329
0.000236699
-0.000383459
0.000203951
-0.000405761
0.000168872
-0.000425125
0.000131341
-0.000441339
9.1113e-05
-0.000454041
4.78391e-05
-0.000462749
1.19254e-06
-0.000466574
-4.94773e-05
-0.000464505
-0.00010428
-0.000455177
-0.000163344
-0.000437016
-0.000226111
-0.000408432
-0.00029097
-0.000368201
-0.000354656
-0.000316072
-0.00041164
-0.000253538
-0.000453756
-0.000184557
-0.000470521
-0.000115833
-0.00045058
-5.61967e-05
-0.000384372
-1.50009e-05
-0.000267115
-0.000101197
-1.20397e-05
9.78579e-05
-4.08929e-05
0.000239493
-7.97519e-05
0.00032997
-0.000123327
0.000378781
-0.000168028
0.000397171
-0.000211695
0.000395221
-0.000253184
0.000380524
-0.000291975
0.00035806
-0.000327888
0.00033074
-0.000360915
0.000300108
-0.000391121
0.000266905
-0.000418586
0.000231416
-0.000443366
0.000193653
-0.000465453
0.000153429
-0.00048473
0.00011039
-0.000500919
6.40274e-05
-0.000513441
1.3715e-05
-0.000521547
-4.13718e-05
-0.000523928
-0.000101899
-0.000518884
-0.000168388
-0.000504259
-0.000240736
-0.000477628
-0.000317601
-0.000436735
-0.00039555
-0.00038029
-0.000468084
-0.000309127
-0.000524919
-0.000227467
-0.000552181
-0.000143684
-0.000534362
-6.96692e-05
-0.000458387
-1.83454e-05
-0.000318439
-0.000119542
-1.36344e-05
0.000111492
-4.6116e-05
0.000271974
-8.94996e-05
0.000373354
-0.000137697
0.000426978
-0.000186679
0.000446153
-0.000234118
0.00044266
-0.000278864
0.00042527
-0.000320472
0.000399669
-0.000358875
0.000369143
-0.000394188
0.000335421
-0.000426607
0.000299324
-0.00045635
0.000261159
-0.000483616
0.000220918
-0.000508543
0.000178356
-0.000531162
0.000133008
-0.000551322
8.41879e-05
-0.000568587
3.09802e-05
-0.000582188
-2.77713e-05
-0.000590751
-9.33357e-05
-0.000592251
-0.000166889
-0.000583887
-0.0002491
-0.000562166
-0.000339322
-0.00052333
-0.000434386
-0.000464329
-0.000527085
-0.00038448
-0.000604769
-0.000287617
-0.000649044
-0.000183887
-0.000638092
-8.95469e-05
-0.000552727
-2.33338e-05
-0.000384652
-0.000142876
-1.56061e-05
0.000127098
-5.2481e-05
0.000308849
-0.000101193
0.000422065
-0.000154656
0.000480441
-0.000208337
0.000499835
-0.000259753
0.000494076
-0.00030779
0.000473306
-0.000352123
0.000444002
-0.000392837
0.000409857
-0.000430207
0.000372791
-0.000464593
0.00033371
-0.000496384
0.00029295
-0.00052596
0.000250494
-0.000553656
0.000206052
-0.000579714
0.000159066
-0.00060421
0.000108684
-0.00062694
5.37101e-05
-0.000647294
-7.41723e-06
-0.000663966
-7.66634e-05
-0.000674751
-0.000156103
-0.000676248
-0.000247604
-0.000663731
-0.000351839
-0.000631428
-0.000466689
-0.000573561
-0.000584952
-0.000486568
-0.000691762
-0.000372537
-0.000763074
-0.000242902
-0.000767728
-0.000119737
-0.000675892
-3.11424e-05
-0.000473247
-0.000174018
-1.81092e-05
0.000145208
-6.03978e-05
0.000351138
-0.000115439
0.000477106
-0.000174894
0.000539897
-0.00023367
0.00055861
-0.000289166
0.000549572
-0.000340373
0.000524514
-0.000387156
0.000490785
-0.000429799
0.0004525
-0.000468777
0.000411769
-0.000504645
0.000369578
-0.000537991
0.000326296
-0.000569411
0.000281914
-0.000599481
0.000236122
-0.000628722
0.000188307
-0.000657531
0.000137493
-0.000686071
8.22501e-05
-0.000714084
2.05959e-05
-0.000740594
-5.01529e-05
-0.000763477
-0.00013322
-0.000778953
-0.000232128
-0.000781093
-0.000349698
-0.000761718
-0.000486065
-0.000711269
-0.000635401
-0.000621472
-0.000781559
-0.00049035
-0.000894196
-0.000328899
-0.000929178
-0.000165878
-0.000838913
-4.36955e-05
-0.000595429
-0.000217714
-2.13925e-05
0.0001666
-7.04849e-05
0.00040023
-0.000133101
0.000539722
-0.00019933
0.000606125
-0.000263491
0.000622772
-0.000322965
0.000609046
-0.000376963
0.000578512
-0.000425622
0.000539444
-0.000469492
0.00049637
-0.000509285
0.000451562
-0.000545777
0.00040607
-0.000579779
0.000360298
-0.000612121
0.000314257
-0.000643649
0.00026765
-0.000675205
0.000219863
-0.000707587
0.000169875
-0.000741453
0.000116117
-0.000777115
5.62582e-05
-0.000814218
-1.30504e-05
-0.000851134
-9.63045e-05
-0.000884164
-0.000199098
-0.000906552
-0.000327311
-0.000907727
-0.00048489
-0.000873627
-0.000669501
-0.000789373
-0.000865813
-0.000645722
-0.00103785
-0.000449557
-0.00112534
-0.000234971
-0.0010535
-6.39481e-05
-0.000766452
-0.000281662
-2.58703e-05
0.00019247
-8.36855e-05
0.000458045
-0.000155388
0.000611425
-0.000229122
0.00067986
-0.000298681
0.000692331
-0.00036162
0.000671985
-0.000417545
0.000634436
-0.000466989
0.000588889
-0.000510838
0.000540219
-0.000550083
0.000490806
-0.000585744
0.000441732
-0.000618859
0.000393414
-0.000650495
0.000345892
-0.000681759
0.000298914
-0.000713818
0.000251922
-0.000747888
0.000203945
-0.000785183
0.000153412
-0.000826755
9.78304e-05
-0.000873103
3.32973e-05
-0.000923551
-4.58569e-05
-0.000975224
-0.000147425
-0.00102136
-0.000281178
-0.00104981
-0.000456439
-0.00104231
-0.000676994
-0.000976401
-0.000931726
-0.000832285
-0.00118196
-0.000606856
-0.00135077
-0.000333616
-0.00132674
-9.61773e-05
-0.00100389
-0.000377839
-3.22578e-05
0.000224728
-0.000101447
0.000527235
-0.000183941
0.000693918
-0.000265581
0.0007615
-0.000339886
0.000766636
-0.00040494
0.000737039
-0.000461011
0.000690507
-0.000509195
0.000637073
-0.000550803
0.000581827
-0.000587155
0.000527158
-0.000619535
0.000474112
-0.000649206
0.000423085
-0.000677444
0.000374129
-0.000705572
0.000327043
-0.000735012
0.000281362
-0.000767318
0.00023625
-0.000804183
0.000190277
-0.00084736
0.000141007
-0.000898431
8.43679e-05
-0.00095769
1.3402e-05
-0.00102416
-8.09556e-05
-0.00109228
-0.000213055
-0.00115025
-0.000398466
-0.00117775
-0.000649499
-0.00114595
-0.000963523
-0.00102294
-0.00130498
-0.000788665
-0.00158505
-0.000463779
-0.00165163
-0.00014594
-0.00132173
-0.00052378
-4.1837e-05
0.000266565
-0.000125997
0.000611395
-0.00022084
0.000788762
-0.000309779
0.000850439
-0.000386697
0.000843553
-0.000450824
0.000801166
-0.000503496
0.000743179
-0.000546599
0.000680176
-0.000582005
0.000617233
-0.000611435
0.000556588
-0.00063647
0.000499146
-0.000658594
0.000445209
-0.000679247
0.000394782
-0.00069988
0.000347676
-0.000722024
0.000303506
-0.000747367
0.000261594
-0.000777824
0.000220735
-0.00081556
0.000178743
-0.000862849
0.000131657
-0.00092193
7.2483e-05
-0.000992579
-1.0307e-05
-0.00107314
-0.000132494
-0.00115469
-0.000316914
-0.00121908
-0.000585113
-0.00123583
-0.000946771
-0.00116318
-0.00137763
-0.000959321
-0.0017889
-0.000615002
-0.00199595
-0.000218288
-0.00171844
-0.000742068
-5.69872e-05
0.000323552
-0.000160714
0.000715122
-0.000268305
0.000896353
-0.000361398
0.000943532
-0.000435642
0.000917797
-0.000492463
0.000857987
-0.000534872
0.000785588
-0.000565894
0.000711197
-0.000588166
0.000639506
-0.000603939
0.00057236
-0.000615145
0.000510353
-0.000623489
0.000453554
-0.000630516
0.000401809
-0.00063768
0.000354839
-0.000646427
0.000312253
-0.000658295
0.000273461
-0.000675025
0.000237464
-0.000698683
0.000202401
-0.000731747
0.000164722
-0.000777101
0.000117836
-0.000837448
5.00403e-05
-0.000913561
-5.6381e-05
-0.00100357
-0.000226907
-0.00109663
-0.000492047
-0.00116841
-0.000874998
-0.0011751
-0.00137094
-0.00105505
-0.00190895
-0.00075417
-0.00229683
-0.000311729
-0.00216088
-0.0010538
-8.22356e-05
0.000405788
-0.000210471
0.000843357
-0.00032736
0.00101324
-0.000415609
0.00103178
-0.000475482
0.00097767
-0.000512333
0.000894838
-0.000531785
0.00080504
-0.000538524
0.000717936
-0.000536253
0.000637234
-0.000527887
0.000563995
-0.000515748
0.000498214
-0.000501713
0.000439519
-0.000487319
0.000387414
-0.000473861
0.000341381
-0.000462483
0.000300876
-0.000454282
0.00026526
-0.000450434
0.000233616
-0.00045238
0.000204348
-0.000462085
0.000174426
-0.00048232
0.000138071
-0.000517362
8.50827e-05
-0.000571382
-2.36081e-06
-0.000650078
-0.000148211
-0.000754131
-0.000387994
-0.000873845
-0.000755284
-0.0009764
-0.00126838
-0.000992205
-0.00189314
-0.000819531
-0.0024695
-0.000407651
-0.00257276
-0.00146145
-0.000126244
0.000532031
-0.000280949
0.000998063
-0.000392871
0.00112516
-0.000454478
0.00109339
-0.000476007
0.000999199
-0.000469476
0.000888306
-0.000444402
0.000779967
-0.000407695
0.000681229
-0.000364267
0.000593806
-0.000317623
0.00051735
-0.000270249
0.00045084
-0.000223923
0.000393193
-0.000179898
0.000343389
-0.000139037
0.00030052
-0.000101935
0.000263774
-6.90159e-05
0.000232342
-4.0662e-05
0.000205262
-1.74076e-05
0.000181093
-3.03715e-07
0.000157323
8.39274e-06
0.000129375
4.67494e-06
8.88005e-05
-1.86641e-05
2.09782e-05
-7.15336e-05
-9.53415e-05
-0.000167206
-0.000292322
-0.000315138
-0.000607352
-0.000507086
-0.00107644
-0.000689198
-0.00171103
-0.000728111
-0.00243059
-0.000463832
-0.00283704
-0.00192528
-0.000205217
0.000737249
-0.000370629
0.00116347
-0.000434725
0.00118926
-0.000421636
0.0010803
-0.00036031
0.000937873
-0.000272506
0.000800502
-0.000172087
0.000679548
-6.76972e-05
0.000576839
3.54582e-05
0.000490651
0.000134313
0.000418495
0.000227088
0.000358066
0.000312884
0.000307398
0.000391364
0.000264908
0.000462564
0.00022932
0.000526769
0.000199569
0.000584407
0.000174703
0.000635949
0.00015372
0.000681732
0.00013531
0.000721634
0.00011742
0.000754462
9.65468e-05
0.000776634
6.6629e-05
0.000779752
1.78595e-05
0.000751496
-6.70853e-05
0.000670865
-0.000211691
0.000511813
-0.0004483
0.000254899
-0.000819522
-8.25838e-05
-0.00137355
-0.000393938
-0.00211923
-0.000420618
-0.00281036
-0.0023459
-0.000333031
0.00107028
-0.000413576
0.00124402
-0.000323168
0.00109885
-0.000146189
0.00090332
6.22191e-05
0.000729465
0.000274531
0.00058819
0.000477227
0.000476853
0.00066455
0.000389516
0.000834537
0.000320663
0.000987093
0.000265939
0.00112305
0.000222106
0.00124368
0.000186771
0.00135043
0.00015816
0.00144481
0.000134939
0.00152831
0.00011607
0.00160233
0.000100681
0.00166812
8.79344e-05
0.00172659
7.6833e-05
0.00177809
6.59219e-05
0.00182176
5.28797e-05
0.00185435
3.40378e-05
0.00186784
4.36939e-06
0.00184936
-4.86039e-05
0.00177518
-0.000137511
0.00161061
-0.000283732
0.00131242
-0.000521334
0.000844052
-0.000905177
0.000265047
-0.00154023
-0.000149115
-0.0023962
-0.00249501
-0.000292709
0.00136299
-2.72112e-05
0.000978522
0.000415342
0.000656298
0.00084203
0.000476632
0.00122137
0.00035012
0.00154964
0.00025992
0.00182996
0.000196533
0.00206798
0.000151501
0.00226988
0.000118764
0.00244135
9.44653e-05
0.00258732
7.61425e-05
0.00271194
6.21517e-05
0.00281873
5.13648e-05
0.00291068
4.29921e-05
0.00299029
3.64595e-05
0.00305965
3.13162e-05
0.00312043
2.71532e-05
0.00317375
2.35143e-05
0.00321989
1.97869e-05
0.0032577
1.50631e-05
0.00328373
8.00886e-06
0.00329206
-3.95961e-06
0.00326879
-2.53371e-05
0.00319164
-6.03541e-05
0.00302496
-0.000117052
0.00271648
-0.000212853
0.00219533
-0.000384028
0.00140353
-0.000748434
0.000469384
-0.00146205
-0.00202563
0.00136299
0.00234151
0.00299781
0.00347444
0.00382456
0.00408448
0.00428101
0.00443252
0.00455128
0.00464574
0.00472189
0.00478404
0.0048354
0.0048784
0.00491486
0.00494617
0.00497332
0.00499684
0.00501663
0.00503169
0.0050397
0.00503574
0.0050104
0.00495005
0.00483299
0.00462014
0.00423611
0.00348768
0.00202563
)
;

boundaryField
{
    movingWall
    {
        type            calculated;
        value           uniform 0;
    }
    fixedWalls
    {
        type            calculated;
        value           uniform 0;
    }
    frontAndBack
    {
        type            empty;
        value           nonuniform 0();
    }
}


// ************************************************************************* //
