/*--------------------------------*- C++ -*----------------------------------*\
  =========                 |
  \\      /  F ield         | OpenFOAM: The Open Source CFD Toolbox
   \\    /   O peration     | Website:  https://openfoam.org
    \\  /    A nd           | Version:  7
     \\/     M anipulation  |
\*---------------------------------------------------------------------------*/
FoamFile
{
    version     2.0;
    format      ascii;
    class       volVectorField;
    location    "1.9";
    object      U;
}
// * * * * * * * * * * * * * * * * * * * * * * * * * * * * * * * * * * * * * //

dimensions      [0 1 -1 0 0 0 0];

internalField   nonuniform List<vector> 
900
(
(5.22708e-05 -5.16487e-05 0)
(-3.30213e-05 3.66167e-05 0)
(-0.000411796 0.000124311 0)
(-0.0009603 0.00017519 0)
(-0.00160581 0.000196836 0)
(-0.00228742 0.000200313 0)
(-0.00296408 0.000194037 0)
(-0.00361176 0.000182917 0)
(-0.00421639 0.000169177 0)
(-0.00476851 0.000153524 0)
(-0.00526038 0.000136004 0)
(-0.00568477 0.000116452 0)
(-0.00603451 9.47082e-05 0)
(-0.0063025 7.0686e-05 0)
(-0.00648186 4.43979e-05 0)
(-0.0065662 1.59665e-05 0)
(-0.00654992 -1.43599e-05 0)
(-0.00642851 -4.62385e-05 0)
(-0.00619895 -7.91731e-05 0)
(-0.00586011 -0.000112529 0)
(-0.00541329 -0.000145505 0)
(-0.00486283 -0.00017705 0)
(-0.00421725 -0.000205658 0)
(-0.00349106 -0.00022895 0)
(-0.00270797 -0.00024297 0)
(-0.00190592 -0.00024131 0)
(-0.00114275 -0.000214747 0)
(-0.000496087 -0.000152496 0)
(-4.94819e-05 -4.83091e-05 0)
(5.68367e-05 5.47183e-05 0)
(-3.5408e-05 3.21446e-05 0)
(-0.00048036 0.000478305 0)
(-0.00150611 0.000871918 0)
(-0.00286674 0.00111928 0)
(-0.00442091 0.00123792 0)
(-0.00605406 0.00126508 0)
(-0.00767934 0.00123418 0)
(-0.00923905 0.00116791 0)
(-0.0106954 0.00107894 0)
(-0.0120217 0.000973225 0)
(-0.0131966 0.000853108 0)
(-0.0142018 0.000719385 0)
(-0.0150201 0.000572409 0)
(-0.0156355 0.000412623 0)
(-0.0160332 0.000240816 0)
(-0.0162001 5.8237e-05 0)
(-0.0161251 -0.000133355 0)
(-0.0158002 -0.000331459 0)
(-0.0152206 -0.000532913 0)
(-0.0143865 -0.000733712 0)
(-0.0133035 -0.000928747 0)
(-0.0119847 -0.00111128 0)
(-0.0104529 -0.00127194 0)
(-0.00874498 -0.00139694 0)
(-0.00691704 -0.00146586 0)
(-0.00505294 -0.00144968 0)
(-0.00327033 -0.00131216 0)
(-0.00171323 -0.00101849 0)
(-0.000545183 -0.000559122 0)
(-4.01336e-05 -4.70998e-05 0)
(-0.00012684 0.000413787 0)
(-0.000900215 0.00151054 0)
(-0.00245759 0.00239819 0)
(-0.00443561 0.00296629 0)
(-0.00664899 0.00324774 0)
(-0.00895539 0.00331462 0)
(-0.0112434 0.00323625 0)
(-0.0134356 0.00306321 0)
(-0.0154792 0.00282626 0)
(-0.0173359 0.00254173 0)
(-0.0189751 0.00221743 0)
(-0.0203706 0.00185713 0)
(-0.021499 0.00146308 0)
(-0.0223388 0.00103743 0)
(-0.0228707 0.000582955 0)
(-0.0230779 0.000103383 0)
(-0.0229469 -0.00039633 0)
(-0.0224677 -0.000909618 0)
(-0.0216359 -0.00142823 0)
(-0.020453 -0.00194179 0)
(-0.0189283 -0.00243705 0)
(-0.0170813 -0.00289663 0)
(-0.0149447 -0.00329666 0)
(-0.0125692 -0.00360326 0)
(-0.0100307 -0.00376853 0)
(-0.00743879 -0.00372846 0)
(-0.00494258 -0.00340832 0)
(-0.00272048 -0.00274233 0)
(-0.00098635 -0.00171654 0)
(-0.000135696 -0.000472802 0)
(-0.000186896 0.000988183 0)
(-0.00120604 0.00292967 0)
(-0.00317421 0.00440731 0)
(-0.00561601 0.00534004 0)
(-0.00830993 0.00579823 0)
(-0.0110954 0.00589874 0)
(-0.0138471 0.00575189 0)
(-0.0164772 0.00543929 0)
(-0.0189245 0.00501208 0)
(-0.021144 0.00449871 0)
(-0.0230995 0.0039139 0)
(-0.0247602 0.00326544 0)
(-0.0260987 0.00255838 0)
(-0.02709 0.00179738 0)
(-0.0277122 0.000987858 0)
(-0.0279461 0.000136782 0)
(-0.0277764 -0.000746859 0)
(-0.0271921 -0.00165161 0)
(-0.0261883 -0.002563 0)
(-0.0247671 -0.00346288 0)
(-0.0229399 -0.00432813 0)
(-0.0207296 -0.0051285 0)
(-0.0181749 -0.00582289 0)
(-0.0153349 -0.00635411 0)
(-0.012297 -0.00664309 0)
(-0.00918617 -0.00658663 0)
(-0.00617153 -0.00606593 0)
(-0.00345546 -0.00497468 0)
(-0.00129285 -0.00327357 0)
(-0.000193524 -0.00109117 0)
(-0.000222606 0.00169976 0)
(-0.00141517 0.004637 0)
(-0.00369062 0.00677726 0)
(-0.00648102 0.00810158 0)
(-0.00953306 0.00873898 0)
(-0.0126709 0.00886206 0)
(-0.0157597 0.00862725 0)
(-0.0187054 0.00814945 0)
(-0.0214428 0.00750137 0)
(-0.0239232 0.00672435 0)
(-0.0261075 0.00584056 0)
(-0.027962 0.00486236 0)
(-0.0294569 0.00379805 0)
(-0.0305651 0.0026551 0)
(-0.0312624 0.00144196 0)
(-0.0315276 0.000169077 0)
(-0.0313433 -0.00115027 0)
(-0.0306969 -0.00249926 0)
(-0.0295818 -0.00385663 0)
(-0.0279991 -0.00519564 0)
(-0.0259601 -0.00648215 0)
(-0.0234889 -0.00767151 0)
(-0.020627 -0.00870349 0)
(-0.0174388 -0.00949518 0)
(-0.0140201 -0.00993355 0)
(-0.010508 -0.00987244 0)
(-0.00708893 -0.00914315 0)
(-0.00398841 -0.0075884 0)
(-0.00149895 -0.00512493 0)
(-0.000225172 -0.00184248 0)
(-0.000244341 0.00250405 0)
(-0.00156327 0.00656032 0)
(-0.00407667 0.00942826 0)
(-0.00714326 0.0111694 0)
(-0.0104815 0.0119882 0)
(-0.0139009 0.0121237 0)
(-0.0172584 0.0117843 0)
(-0.0204557 0.0111209 0)
(-0.0234251 0.0102288 0)
(-0.0261162 0.00916273 0)
(-0.0284883 0.00795252 0)
(-0.0305062 0.00661518 0)
(-0.0321385 0.00516227 0)
(-0.0333562 0.00360406 0)
(-0.0341329 0.00195188 0)
(-0.0344452 0.000219555 0)
(-0.0342727 -0.00157546 0)
(-0.0335998 -0.00341095 0)
(-0.0324167 -0.0052587 0)
(-0.0307215 -0.00708283 0)
(-0.0285231 -0.00883722 0)
(-0.0258446 -0.0104613 0)
(-0.0227284 -0.0118735 0)
(-0.0192429 -0.0129624 0)
(-0.0154917 -0.0135771 0)
(-0.0116252 -0.0135236 0)
(-0.00784927 -0.0125763 0)
(-0.00441527 -0.0105172 0)
(-0.00165256 -0.00720614 0)
(-0.000244031 -0.00268426 0)
(-0.000260369 0.00337583 0)
(-0.00168355 0.00865441 0)
(-0.00440121 0.01231 0)
(-0.0077108 0.0144939 0)
(-0.0113047 0.0154986 0)
(-0.014978 0.0156392 0)
(-0.0185792 0.0151819 0)
(-0.022006 0.0143166 0)
(-0.025189 0.0131628 0)
(-0.0280771 0.0117888 0)
(-0.0306287 0.0102322 0)
(-0.0328079 0.00851454 0)
(-0.0345817 0.00665023 0)
(-0.0359196 0.00465199 0)
(-0.0367928 0.00253353 0)
(-0.0371747 0.000311488 0)
(-0.0370411 -0.001993 0)
(-0.0363716 -0.0043528 0)
(-0.0351514 -0.00673283 0)
(-0.0333732 -0.00908778 0)
(-0.0310413 -0.0113586 0)
(-0.0281753 -0.0134669 0)
(-0.0248171 -0.015307 0)
(-0.0210387 -0.0167348 0)
(-0.0169526 -0.0175564 0)
(-0.0127255 -0.0175231 0)
(-0.00858753 -0.016345 0)
(-0.00482068 -0.013735 0)
(-0.00179321 -0.00948834 0)
(-0.000259489 -0.00359778 0)
(-0.000275991 0.00430727 0)
(-0.00180031 0.0109036 0)
(-0.00471767 0.0154058 0)
(-0.00826793 0.0180606 0)
(-0.0121179 0.0192584 0)
(-0.0160477 0.0193992 0)
(-0.0198968 0.018813 0)
(-0.0235589 0.0177321 0)
(-0.0269633 0.0163018 0)
(-0.0300581 0.0146046 0)
(-0.0328016 0.0126857 0)
(-0.0351573 0.0105709 0)
(-0.0370915 0.00827698 0)
(-0.0385717 0.00581835 0)
(-0.0395665 0.00321023 0)
(-0.0400453 0.000471106 0)
(-0.039979 -0.00237523 0)
(-0.0393407 -0.00529754 0)
(-0.0381081 -0.00825444 0)
(-0.0362661 -0.0111911 0)
(-0.0338111 -0.0140344 0)
(-0.0307572 -0.0166861 0)
(-0.0271436 -0.0190123 0)
(-0.0230455 -0.0208306 0)
(-0.0185863 -0.0218966 0)
(-0.0139533 -0.0218987 0)
(-0.00940731 -0.0204737 0)
(-0.00526804 -0.0172578 0)
(-0.0019481 -0.0119782 0)
(-0.00027692 -0.00458399 0)
(-0.000294098 0.00530174 0)
(-0.00192905 0.0133142 0)
(-0.00506223 0.0187247 0)
(-0.00887278 0.0218812 0)
(-0.0130005 0.0232815 0)
(-0.0172092 0.023419 0)
(-0.0213291 0.0226937 0)
(-0.0252494 0.0213844 0)
(-0.0288978 0.0196637 0)
(-0.0322226 0.0176293 0)
(-0.0351823 0.015334 0)
(-0.0377402 0.0128073 0)
(-0.0398621 0.0100678 0)
(-0.0415139 0.00713051 0)
(-0.0426612 0.00401092 0)
(-0.0432689 0.00072792 0)
(-0.0433016 -0.00269358 0)
(-0.0427241 -0.0062197 0)
(-0.0415041 -0.0098038 0)
(-0.0396152 -0.0133818 0)
(-0.0370428 -0.0168657 0)
(-0.0337912 -0.0201343 0)
(-0.0298946 -0.0230205 0)
(-0.0254302 -0.0252958 0)
(-0.0205342 -0.0266555 0)
(-0.0154198 -0.0267136 0)
(-0.010387 -0.0250228 0)
(-0.00580313 -0.0211356 0)
(-0.00213482 -0.0147091 0)
(-0.000298929 -0.00565594 0)
(-0.000316148 0.00636908 0)
(-0.00207907 0.0159064 0)
(-0.00545808 0.0222931 0)
(-0.00956326 0.0259852 0)
(-0.0140042 0.0275983 0)
(-0.018527 0.0277287 0)
(-0.0229513 0.0268535 0)
(-0.0271619 0.0253021 0)
(-0.0310854 0.0232768 0)
(-0.0346704 0.0208911 0)
(-0.0378764 0.0182059 0)
(-0.0406675 0.0152537 0)
(-0.0430094 0.012054 0)
(-0.0448667 0.00862126 0)
(-0.0462025 0.00496955 0)
(-0.0469765 0.00111615 0)
(-0.0471458 -0.0029151 0)
(-0.0466653 -0.00708996 0)
(-0.0454892 -0.0113584 0)
(-0.0435764 -0.0156481 0)
(-0.0408957 -0.0198555 0)
(-0.037437 -0.0238333 0)
(-0.0332246 -0.0273747 0)
(-0.0283353 -0.030195 0)
(-0.0229194 -0.0319151 0)
(-0.0172221 -0.0320593 0)
(-0.0115937 -0.0300829 0)
(-0.00646316 -0.0254455 0)
(-0.00236598 -0.0177337 0)
(-0.000326705 -0.00683399 0)
(-0.000342937 0.00752288 0)
(-0.00225634 0.0187097 0)
(-0.00592072 0.0261483 0)
(-0.010365 0.0304128 0)
(-0.0151638 0.0322489 0)
(-0.0200434 0.0323669 0)
(-0.0248118 0.0313287 0)
(-0.0293494 0.0295195 0)
(-0.0335823 0.0271739 0)
(-0.0374604 0.0244224 0)
(-0.0409453 0.0213338 0)
(-0.0440028 0.0179434 0)
(-0.0465996 0.0142707 0)
(-0.0487002 0.0103278 0)
(-0.0502651 0.00612547 0)
(-0.0512495 0.00167674 0)
(-0.0516021 -0.00299879 0)
(-0.0512654 -0.00786985 0)
(-0.0501774 -0.0128861 0)
(-0.0482767 -0.0179692 0)
(-0.0455095 -0.0230003 0)
(-0.0418433 -0.027803 0)
(-0.0372855 -0.0321228 0)
(-0.0319072 -0.0356052 0)
(-0.0258721 -0.0377783 0)
(-0.0194643 -0.0380554 0)
(-0.013099 -0.0357746 0)
(-0.00728669 -0.0302916 0)
(-0.00265359 -0.0211233 0)
(-0.000360916 -0.00814395 0)
(-0.000375083 0.00877928 0)
(-0.00246561 0.0217601 0)
(-0.0064625 0.0303362 0)
(-0.011298 0.0352126 0)
(-0.016506 0.0372805 0)
(-0.0217898 0.0373772 0)
(-0.0269451 0.0361595 0)
(-0.031848 0.0340735 0)
(-0.0364251 0.0313894 0)
(-0.0406291 0.0282562 0)
(-0.044425 0.0247508 0)
(-0.0477821 0.0209111 0)
(-0.0506698 0.0167552 0)
(-0.0530538 0.0122913 0)
(-0.0548938 0.00752423 0)
(-0.0561405 0.00245936 0)
(-0.0567343 -0.002892 0)
(-0.0566038 -0.00850649 0)
(-0.0556671 -0.0143383 0)
(-0.0538364 -0.0203073 0)
(-0.0510269 -0.0262813 0)
(-0.0471729 -0.0320525 0)
(-0.0422529 -0.0373102 0)
(-0.0363228 -0.0416125 0)
(-0.0295558 -0.0443693 0)
(-0.0222807 -0.0448522 0)
(-0.0149966 -0.0422542 0)
(-0.00832418 -0.0358104 0)
(-0.00301301 -0.0249702 0)
(-0.00040222 -0.00961765 0)
(-0.00041332 0.0101569 0)
(-0.00271195 0.0250995 0)
(-0.007096 0.0349094 0)
(-0.0123823 0.0404392 0)
(-0.0180562 0.0427446 0)
(-0.0237949 0.0428063 0)
(-0.029381 0.0413866 0)
(-0.0346869 0.0390003 0)
(-0.0396413 0.0359564 0)
(-0.0442013 0.0324241 0)
(-0.0483376 0.0284891 0)
(-0.0520254 0.0241912 0)
(-0.0552392 0.0195462 0)
(-0.0579484 0.0145565 0)
(-0.0601136 0.00921794 0)
(-0.0616832 0.0035243 0)
(-0.0625901 -0.00252673 0)
(-0.062748 -0.00892698 0)
(-0.0620516 -0.015642 0)
(-0.0603807 -0.0225972 0)
(-0.0576083 -0.0296523 0)
(-0.0536207 -0.0365684 0)
(-0.0483494 -0.0429695 0)
(-0.0418177 -0.0483057 0)
(-0.034197 -0.0518337 0)
(-0.0258641 -0.0526391 0)
(-0.017425 -0.0497262 0)
(-0.0096518 -0.0421838 0)
(-0.00346767 -0.029397 0)
(-0.000451647 -0.0112953 0)
(-0.0004587 0.0116771 0)
(-0.00300188 0.0287764 0)
(-0.00783668 0.0399283 0)
(-0.0136411 0.0461539 0)
(-0.0198431 0.0486972 0)
(-0.0260901 0.0487021 0)
(-0.0321506 0.0470507 0)
(-0.0378946 0.0443341 0)
(-0.043255 0.0409048 0)
(-0.0481962 0.0369541 0)
(-0.0526973 0.0325771 0)
(-0.0567424 0.0278155 0)
(-0.0603144 0.0226817 0)
(-0.0633895 0.0171703 0)
(-0.0659331 0.011265 0)
(-0.0678941 0.00494334 0)
(-0.0692013 -0.00181704 0)
(-0.0697538 -0.00903285 0)
(-0.0694204 -0.0166907 0)
(-0.0680426 -0.0247337 0)
(-0.0654391 -0.0330241 0)
(-0.0614279 -0.0412968 0)
(-0.0558671 -0.0491047 0)
(-0.0487173 -0.0557658 0)
(-0.0401242 -0.0603376 0)
(-0.0305066 -0.0616548 0)
(-0.0206022 -0.0584644 0)
(-0.0113934 -0.0496632 0)
(-0.00405694 -0.0345746 0)
(-0.000511283 -0.0132306 0)
(-0.000512806 0.0133657 0)
(-0.0033445 0.0328483 0)
(-0.00870537 0.0454626 0)
(-0.0151053 0.0524249 0)
(-0.0219035 0.0551979 0)
(-0.0287139 0.0551133 0)
(-0.0352904 0.0531899 0)
(-0.041503 0.0501046 0)
(-0.0472915 0.0462587 0)
(-0.0526311 0.0418676 0)
(-0.057513 0.0370369 0)
(-0.061934 0.0318104 0)
(-0.0658893 0.0261961 0)
(-0.0693671 0.0201793 0)
(-0.072342 0.0137282 0)
(-0.0747686 0.00679819 0)
(-0.0765778 -0.000662059 0)
(-0.0776574 -0.00869551 0)
(-0.07785 -0.0173343 0)
(-0.0769563 -0.0265556 0)
(-0.0747272 -0.0362419 0)
(-0.0708885 -0.0461165 0)
(-0.0651872 -0.0556626 0)
(-0.0574736 -0.0640432 0)
(-0.0478197 -0.0700589 0)
(-0.0366589 -0.072199 0)
(-0.0248806 -0.0688419 0)
(-0.0137579 -0.0586085 0)
(-0.0048505 -0.0407531 0)
(-0.000585893 -0.0155013 0)
(-0.000578066 0.0152541 0)
(-0.00375302 0.0373845 0)
(-0.00973127 0.051594 0)
(-0.0168165 0.0593291 0)
(-0.0242861 0.0623101 0)
(-0.0317157 0.0620879 0)
(-0.038846 0.0598378 0)
(-0.0455499 0.0563345 0)
(-0.0517786 0.0520331 0)
(-0.0575222 0.0471761 0)
(-0.0627883 0.0418807 0)
(-0.067591 0.0361928 0)
(-0.0719432 0.0301165 0)
(-0.0758506 0.0236261 0)
(-0.0793049 0.016672 0)
(-0.0822751 0.00918358 0)
(-0.0846932 0.00107355 0)
(-0.0864518 -0.00774736 0)
(-0.0873816 -0.0173683 0)
(-0.0872336 -0.0278265 0)
(-0.0856832 -0.0390561 0)
(-0.0823381 -0.0507989 0)
(-0.0767859 -0.0624867 0)
(-0.0686939 -0.073115 0)
(-0.0579747 -0.0811619 0)
(-0.0450074 -0.0846389 0)
(-0.030828 -0.0813745 0)
(-0.0171003 -0.0695525 0)
(-0.0059741 -0.0483177 0)
(-0.000686585 -0.0182292 0)
(-0.000658269 0.0173824 0)
(-0.00424699 0.0424712 0)
(-0.0109561 0.0584204 0)
(-0.0188329 0.066954 0)
(-0.027056 0.0701011 0)
(-0.0351601 0.0696713 0)
(-0.0428748 0.0670212 0)
(-0.0500812 0.0630358 0)
(-0.0567473 0.0582303 0)
(-0.0628836 0.0528768 0)
(-0.0685191 0.0471052 0)
(-0.0736904 0.0409648 0)
(-0.0784338 0.0344555 0)
(-0.0827792 0.0275411 0)
(-0.086743 0.0201534 0)
(-0.0903181 0.012193 0)
(-0.0934594 0.00353052 0)
(-0.096072 -0.0059905 0)
(-0.0979827 -0.0165295 0)
(-0.0989129 -0.0282184 0)
(-0.0984616 -0.0410892 0)
(-0.0960964 -0.0549565 0)
(-0.091189 -0.0692491 0)
(-0.0831233 -0.0828109 0)
(-0.0715132 -0.093739 0)
(-0.0565412 -0.0993938 0)
(-0.0393214 -0.0967656 0)
(-0.0220062 -0.0832946 0)
(-0.00765112 -0.0578816 0)
(-0.000838129 -0.0216182 0)
(-0.000759516 0.0198039 0)
(-0.00485586 0.0482192 0)
(-0.0124404 0.0660618 0)
(-0.0212352 0.0754 0)
(-0.0303014 0.0786409 0)
(-0.0391308 0.0779034 0)
(-0.047448 0.0747547 0)
(-0.05515 0.0702047 0)
(-0.0622294 0.0648339 0)
(-0.068723 0.0589462 0)
(-0.0746871 0.0526854 0)
(-0.0801858 0.0461049 0)
(-0.0852848 0.0392022 0)
(-0.0900454 0.0319319 0)
(-0.0945179 0.0242082 0)
(-0.0987321 0.015902 0)
(-0.102682 0.00683693 0)
(-0.106308 -0.00321259 0)
(-0.109459 -0.014506 0)
(-0.111853 -0.027309 0)
(-0.113032 -0.0418131 0)
(-0.112316 -0.0579912 0)
(-0.108811 -0.0753664 0)
(-0.101497 -0.0927038 0)
(-0.0894871 -0.107701 0)
(-0.0725203 -0.116868 0)
(-0.0515948 -0.115928 0)
(-0.0293788 -0.101014 0)
(-0.0102606 -0.0704247 0)
(-0.00109227 -0.0260197 0)
(-0.000892005 0.0225921 0)
(-0.00562501 0.0547742 0)
(-0.0142723 0.0746671 0)
(-0.0241363 0.0847817 0)
(-0.034139 0.0879993 0)
(-0.0437329 0.0868124 0)
(-0.0526485 0.0830343 0)
(-0.0608109 0.0778135 0)
(-0.068247 0.0718004 0)
(-0.0750272 0.0653312 0)
(-0.0812405 0.0585639 0)
(-0.0869839 0.051557 0)
(-0.0923569 0.0443079 0)
(-0.0974587 0.0367655 0)
(-0.102383 0.0288306 0)
(-0.107208 0.0203489 0)
(-0.111988 0.0110995 0)
(-0.116723 0.000783929 0)
(-0.121324 -0.0109747 0)
(-0.125551 -0.0246155 0)
(-0.128932 -0.0405654 0)
(-0.13067 -0.0590779 0)
(-0.129582 -0.0799333 0)
(-0.124127 -0.101984 0)
(-0.11268 -0.122602 0)
(-0.0941733 -0.137282 0)
(-0.0690981 -0.139905 0)
(-0.0404562 -0.12435 0)
(-0.0144032 -0.0874686 0)
(-0.00155139 -0.0320376 0)
(-0.00107354 0.0258529 0)
(-0.00662591 0.0623329 0)
(-0.0165815 0.0844222 0)
(-0.0276916 0.0952269 0)
(-0.0387182 0.0982374 0)
(-0.0490882 0.0964039 0)
(-0.058558 0.0918238 0)
(-0.0670983 0.0857973 0)
(-0.0747826 0.0790452 0)
(-0.0817233 0.0719342 0)
(-0.0880474 0.0646349 0)
(-0.0938879 0.0572118 0)
(-0.0993822 0.0496646 0)
(-0.10467 0.0419415 0)
(-0.109894 0.0339379 0)
(-0.115193 0.0254844 0)
(-0.120694 0.0163268 0)
(-0.126488 0.00610059 0)
(-0.132588 -0.00569483 0)
(-0.138856 -0.019702 0)
(-0.144883 -0.0366582 0)
(-0.149835 -0.0572509 0)
(-0.152277 -0.0817507 0)
(-0.150105 -0.109385 0)
(-0.140745 -0.137442 0)
(-0.1219 -0.160364 0)
(-0.0929455 -0.169582 0)
(-0.0566177 -0.155305 0)
(-0.0209566 -0.111222 0)
(-0.0024134 -0.0406796 0)
(-0.00133668 0.0297449 0)
(-0.00797386 0.0711658 0)
(-0.0195586 0.095558 0)
(-0.0321091 0.106868 0)
(-0.0442164 0.10939 0)
(-0.0553135 0.106637 0)
(-0.0652168 0.101031 0)
(-0.0739682 0.0940283 0)
(-0.0817033 0.0864167 0)
(-0.0885856 0.0785862 0)
(-0.0947846 0.0707164 0)
(-0.100472 0.0628764 0)
(-0.105823 0.0550705 0)
(-0.111019 0.0472521 0)
(-0.116248 0.0393211 0)
(-0.12171 0.031108 0)
(-0.127613 0.0223452 0)
(-0.134153 0.0126235 0)
(-0.141482 0.0013336 0)
(-0.149617 -0.0123833 0)
(-0.158314 -0.0296284 0)
(-0.166835 -0.0516721 0)
(-0.173644 -0.079556 0)
(-0.176177 -0.113289 0)
(-0.170876 -0.150523 0)
(-0.153902 -0.184914 0)
(-0.122768 -0.205039 0)
(-0.0787822 -0.195751 0)
(-0.0310758 -0.144545 0)
(-0.00405845 -0.0535625 0)
(-0.00174384 0.034517 0)
(-0.00985961 0.0816486 0)
(-0.0234811 0.108349 0)
(-0.0376516 0.119815 0)
(-0.0508067 0.121423 0)
(-0.0624519 0.117377 0)
(-0.0725194 0.110455 0)
(-0.0811577 0.102266 0)
(-0.0885851 0.0936456 0)
(-0.0950268 0.084997 0)
(-0.100701 0.0765002 0)
(-0.105818 0.0682252 0)
(-0.11059 0.0601805 0)
(-0.115231 0.0523286 0)
(-0.119968 0.0445831 0)
(-0.125048 0.0367909 0)
(-0.130744 0.0286962 0)
(-0.137352 0.0198797 0)
(-0.145164 0.00966788 0)
(-0.154378 -0.0029859 0)
(-0.164999 -0.0196066 0)
(-0.176569 -0.0420898 0)
(-0.187726 -0.0725054 0)
(-0.19579 -0.112097 0)
(-0.19653 -0.159533 0)
(-0.184611 -0.208368 0)
(-0.155093 -0.244563 0)
(-0.106229 -0.246261 0)
(-0.0459918 -0.190457 0)
(-0.00717931 -0.0731612 0)
(-0.00241984 0.040577 0)
(-0.0126065 0.0942995 0)
(-0.0287443 0.123088 0)
(-0.044608 0.134085 0)
(-0.0585585 0.134145 0)
(-0.0703009 0.128299 0)
(-0.079971 0.119693 0)
(-0.0878747 0.110057 0)
(-0.0943413 0.100251 0)
(-0.0996738 0.0906652 0)
(-0.104147 0.0814688 0)
(-0.108014 0.0727235 0)
(-0.111518 0.064437 0)
(-0.114896 0.0565791 0)
(-0.118395 0.0490806 0)
(-0.122279 0.041815 0)
(-0.126848 0.0345599 0)
(-0.132444 0.0269231 0)
(-0.139454 0.0182219 0)
(-0.148279 0.00730221 0)
(-0.159153 -0.00768176 0)
(-0.172025 -0.0293267 0)
(-0.186121 -0.0607522 0)
(-0.199238 -0.104791 0)
(-0.207237 -0.161855 0)
(-0.203946 -0.226565 0)
(-0.181956 -0.283533 0)
(-0.134935 -0.30425 0)
(-0.066205 -0.250787 0)
(-0.0128295 -0.102956 0)
(-0.00362215 0.0486235 0)
(-0.0167741 0.109811 0)
(-0.0358798 0.139991 0)
(-0.0531761 0.149439 0)
(-0.0671741 0.147016 0)
(-0.0780089 0.138693 0)
(-0.086158 0.127945 0)
(-0.0921594 0.116561 0)
(-0.0964965 0.105372 0)
(-0.0995766 0.0947311 0)
(-0.101746 0.0847701 0)
(-0.103305 0.0755271 0)
(-0.104521 0.0669952 0)
(-0.105641 0.0591403 0)
(-0.106904 0.051902 0)
(-0.108555 0.0451781 0)
(-0.110861 0.0387862 0)
(-0.114137 0.0323863 0)
(-0.11877 0.0253406 0)
(-0.125223 0.0164955 0)
(-0.134004 0.00389476 0)
(-0.145491 -0.0155565 0)
(-0.159718 -0.0458963 0)
(-0.175724 -0.0915482 0)
(-0.190583 -0.155217 0)
(-0.198628 -0.234074 0)
(-0.190974 -0.313888 0)
(-0.156191 -0.362037 0)
(-0.0896118 -0.323578 0)
(-0.0219986 -0.146949 0)
(-0.00588871 0.0599141 0)
(-0.0233351 0.129029 0)
(-0.0454921 0.158928 0)
(-0.0630913 0.165016 0)
(-0.0753274 0.158762 0)
(-0.0831693 0.147093 0)
(-0.087652 0.133676 0)
(-0.0896581 0.120245 0)
(-0.0898879 0.107527 0)
(-0.0888873 0.0957836 0)
(-0.0870865 0.0850773 0)
(-0.0848301 0.0753923 0)
(-0.0823982 0.0666821 0)
(-0.0800232 0.0588865 0)
(-0.0779043 0.051933 0)
(-0.0762237 0.0457245 0)
(-0.0751654 0.0401056 0)
(-0.0749413 0.0347902 0)
(-0.0758306 0.0292248 0)
(-0.0782345 0.0223595 0)
(-0.0827417 0.0123407 0)
(-0.0901027 -0.00388151 0)
(-0.101235 -0.0309635 0)
(-0.116767 -0.0743127 0)
(-0.136093 -0.138956 0)
(-0.155847 -0.225893 0)
(-0.167889 -0.325464 0)
(-0.156963 -0.40642 0)
(-0.109149 -0.399838 0)
(-0.0342008 -0.207792 0)
(-0.0103258 0.0768659 0)
(-0.0339214 0.15275 0)
(-0.0578105 0.178783 0)
(-0.0724689 0.178585 0)
(-0.0789698 0.166675 0)
(-0.0797825 0.150677 0)
(-0.0768086 0.134142 0)
(-0.0714086 0.118546 0)
(-0.0645481 0.104386 0)
(-0.0569104 0.0917491 0)
(-0.0489805 0.0805656 0)
(-0.0411037 0.0707238 0)
(-0.0335256 0.0621039 0)
(-0.026417 0.054591 0)
(-0.0198948 0.048075 0)
(-0.0140398 0.0424383 0)
(-0.00891444 0.037527 0)
(-0.00458855 0.0330909 0)
(-0.00118418 0.0286685 0)
(0.00107124 0.0233911 0)
(0.00171358 0.0156855 0)
(-0.000312926 0.00287523 0)
(-0.0064365 -0.0193181 0)
(-0.0185524 -0.0565212 0)
(-0.0388217 -0.115168 0)
(-0.0676801 -0.200229 0)
(-0.100888 -0.309652 0)
(-0.122647 -0.421195 0)
(-0.112382 -0.462105 0)
(-0.0453423 -0.283936 0)
(-0.0190047 0.103971 0)
(-0.0506851 0.180509 0)
(-0.0703857 0.195937 0)
(-0.0739532 0.185153 0)
(-0.0667533 0.16553 0)
(-0.0535894 0.144568 0)
(-0.0374322 0.125049 0)
(-0.0200676 0.107821 0)
(-0.00258696 0.0929349 0)
(0.0143571 0.0801765 0)
(0.0303875 0.0692749 0)
(0.0453012 0.059976 0)
(0.0590034 0.0520598 0)
(0.0714755 0.0453404 0)
(0.0827489 0.0396573 0)
(0.0928868 0.0348601 0)
(0.101967 0.0307823 0)
(0.110063 0.0271936 0)
(0.117199 0.023714 0)
(0.123285 0.0196713 0)
(0.127959 0.013853 0)
(0.130249 0.00419008 0)
(0.128531 -0.0124909 0)
(0.120144 -0.0410228 0)
(0.101157 -0.0876672 0)
(0.0673199 -0.159811 0)
(0.0163176 -0.263471 0)
(-0.0404911 -0.392175 0)
(-0.0849961 -0.487743 0)
(-0.0468311 -0.36656 0)
(-0.0338786 0.146848 0)
(-0.0711387 0.20454 0)
(-0.0663187 0.198672 0)
(-0.0414723 0.172994 0)
(-0.00779123 0.145287 0)
(0.0281074 0.120785 0)
(0.0630754 0.100361 0)
(0.0957588 0.0836517 0)
(0.125602 0.0700328 0)
(0.152485 0.05891 0)
(0.176499 0.0497947 0)
(0.197835 0.0422999 0)
(0.21673 0.0361254 0)
(0.233435 0.0310367 0)
(0.248202 0.0268458 0)
(0.261274 0.0233902 0)
(0.272874 0.0205091 0)
(0.283183 0.0180064 0)
(0.292312 0.0155924 0)
(0.300233 0.012785 0)
(0.306643 0.00875543 0)
(0.310611 0.00213464 0)
(0.310565 -0.00905347 0)
(0.303626 -0.0280353 0)
(0.285061 -0.0594063 0)
(0.2486 -0.110107 0)
(0.186349 -0.190592 0)
(0.100491 -0.313317 0)
(-0.012838 -0.454727 0)
(-0.0244741 -0.430562 0)
(-0.0370591 0.237063 0)
(-0.0448736 0.20654 0)
(0.0328811 0.156317 0)
(0.105954 0.119633 0)
(0.173352 0.0916827 0)
(0.232571 0.0706941 0)
(0.283278 0.0552168 0)
(0.326317 0.0437296 0)
(0.362785 0.0350604 0)
(0.393716 0.0284153 0)
(0.420005 0.0232609 0)
(0.442411 0.0192258 0)
(0.461572 0.0160455 0)
(0.478027 0.0135281 0)
(0.49223 0.0115296 0)
(0.504565 0.00993365 0)
(0.51534 0.0086328 0)
(0.524787 0.00750592 0)
(0.533025 0.00638737 0)
(0.539995 0.00502032 0)
(0.545343 0.00299487 0)
(0.548271 -0.000353892 0)
(0.547283 -0.00594363 0)
(0.539596 -0.0153975 0)
(0.520349 -0.0309808 0)
(0.483428 -0.0567537 0)
(0.416871 -0.100568 0)
(0.31682 -0.187257 0)
(0.133681 -0.337287 0)
(0.0573317 -0.41447 0)
(0.231321 0.158477 0)
(0.29234 0.11774 0)
(0.443563 0.07667 0)
(0.543929 0.0512901 0)
(0.611936 0.0347212 0)
(0.661595 0.0236369 0)
(0.699004 0.0163132 0)
(0.727587 0.0114827 0)
(0.749769 0.00825224 0)
(0.767275 0.0060519 0)
(0.781297 0.00452877 0)
(0.792678 0.00346 0)
(0.802029 0.00270169 0)
(0.809807 0.00215936 0)
(0.816361 0.00176918 0)
(0.821955 0.00148515 0)
(0.826782 0.00126942 0)
(0.830966 0.00108338 0)
(0.834544 0.000878183 0)
(0.837426 0.000584514 0)
(0.839332 0.000106309 0)
(0.839682 -0.000689744 0)
(0.837309 -0.00204157 0)
(0.830477 -0.00438284 0)
(0.81572 -0.00821847 0)
(0.789784 -0.0146916 0)
(0.739004 -0.0256549 0)
(0.662529 -0.0495619 0)
(0.458287 -0.111697 0)
(0.314295 -0.17912 0)
)
;

boundaryField
{
    movingWall
    {
        type            fixedValue;
        value           uniform (1 0 0);
    }
    fixedWalls
    {
        type            noSlip;
    }
    frontAndBack
    {
        type            empty;
    }
}


// ************************************************************************* //
