/*--------------------------------*- C++ -*----------------------------------*\
  =========                 |
  \\      /  F ield         | OpenFOAM: The Open Source CFD Toolbox
   \\    /   O peration     | Website:  https://openfoam.org
    \\  /    A nd           | Version:  7
     \\/     M anipulation  |
\*---------------------------------------------------------------------------*/
FoamFile
{
    version     2.0;
    format      ascii;
    class       surfaceScalarField;
    location    "6.8";
    object      phi;
}
// * * * * * * * * * * * * * * * * * * * * * * * * * * * * * * * * * * * * * //

dimensions      [0 3 -1 0 0 0 0];

internalField   nonuniform List<scalar> 
1740
(
4.76427e-07
-4.76413e-07
-5.8805e-07
1.06448e-06
-3.29377e-06
2.70572e-06
-7.28143e-06
3.98766e-06
-1.21314e-05
4.84993e-06
-1.74838e-05
5.35247e-06
-2.30639e-05
5.58008e-06
-2.8666e-05
5.60206e-06
-3.41267e-05
5.46077e-06
-3.93004e-05
5.17366e-06
-4.40399e-05
4.7395e-06
-4.81856e-05
4.14568e-06
-5.15617e-05
3.37611e-06
-5.39809e-05
2.41918e-06
-5.52568e-05
1.27588e-06
-5.52221e-05
-3.46173e-08
-5.37546e-05
-1.46749e-06
-5.08039e-05
-2.95076e-06
-4.64187e-05
-4.38517e-06
-4.07653e-05
-5.65345e-06
-3.41341e-05
-6.63119e-06
-2.69301e-05
-7.20394e-06
-1.96443e-05
-7.28584e-06
-1.28077e-05
-6.83659e-06
-6.93498e-06
-5.87271e-06
-2.46273e-06
-4.47226e-06
3.2158e-07
-2.78431e-06
1.38265e-06
-1.06107e-06
9.51894e-07
4.30757e-07
9.5189e-07
-1.0654e-06
5.88984e-07
-5.53393e-06
5.53301e-06
-1.33646e-05
1.05364e-05
-2.38913e-05
1.45143e-05
-3.63436e-05
1.73022e-05
-4.99947e-05
1.90037e-05
-6.42218e-05
1.98072e-05
-7.85056e-05
1.98858e-05
-9.24008e-05
1.9356e-05
-0.0001055
1.82724e-05
-0.0001174
1.66399e-05
-0.000127687
1.44328e-05
-0.000135929
1.16176e-05
-0.000141687
8.17733e-06
-0.000144545
4.13422e-06
-0.000144163
-4.16617e-07
-0.00014029
-5.34085e-06
-0.000132869
-1.03713e-05
-0.00012206
-1.51944e-05
-0.000108277
-1.9436e-05
-9.22024e-05
-2.27062e-05
-7.47562e-05
-2.46501e-05
-5.70369e-05
-2.50051e-05
-4.02199e-05
-2.36536e-05
-2.54321e-05
-2.06605e-05
-1.36124e-05
-1.6292e-05
-5.36807e-06
-1.10286e-05
-8.48111e-07
-5.58104e-06
4.98834e-07
-9.16193e-07
1.45073e-06
-2.87599e-06
3.46498e-06
-1.10838e-05
1.37408e-05
-2.38476e-05
2.33002e-05
-4.02011e-05
3.08678e-05
-5.91192e-05
3.62203e-05
-7.96418e-05
3.95263e-05
-0.000100921
4.10866e-05
-0.000122221
4.11854e-05
-0.000142886
4.00211e-05
-0.000162306
3.76921e-05
-0.000179879
3.42134e-05
-0.000194995
2.95489e-05
-0.00020703
2.36528e-05
-0.000215367
1.65143e-05
-0.000219434
8.20116e-06
-0.000218759
-1.09212e-06
-0.000213028
-1.10721e-05
-0.000202177
-2.12224e-05
-0.000186443
-3.09275e-05
-0.000166415
-3.94639e-05
-0.000143042
-4.60797e-05
-0.000117601
-5.00912e-05
-9.16143e-05
-5.09918e-05
-6.67136e-05
-4.85543e-05
-4.44663e-05
-4.29077e-05
-2.61828e-05
-3.45755e-05
-1.27268e-05
-2.44847e-05
-4.34866e-06
-1.39592e-05
-5.52318e-07
-4.71254e-06
8.984e-07
-4.5498e-06
8.01477e-06
-1.63012e-05
2.54921e-05
-3.37058e-05
4.07048e-05
-5.53626e-05
5.25247e-05
-7.99879e-05
6.08456e-05
-0.000106436
6.5974e-05
-0.000133702
6.83526e-05
-0.000160903
6.83864e-05
-0.00018724
6.63583e-05
-0.000211958
6.24101e-05
-0.00023431
5.65655e-05
-0.000253538
4.87773e-05
-0.000268873
3.89879e-05
-0.000279556
2.71966e-05
-0.000284881
1.35266e-05
-0.000284265
-1.70823e-06
-0.00027731
-1.80272e-05
-0.000263913
-3.46196e-05
-0.000244331
-5.05091e-05
-0.000219247
-6.45481e-05
-0.00018979
-7.5537e-05
-0.000157506
-8.23744e-05
-0.000124267
-8.42314e-05
-9.2101e-05
-8.07202e-05
-6.29836e-05
-7.20252e-05
-3.85906e-05
-5.89685e-05
-2.00682e-05
-4.30071e-05
-7.84928e-06
-2.61781e-05
-1.54565e-06
-1.10162e-05
-6.47257e-07
-6.0058e-06
1.40206e-05
-2.09829e-05
4.04693e-05
-4.26441e-05
6.2366e-05
-6.91308e-05
7.90113e-05
-9.88862e-05
9.0601e-05
-0.000130595
9.76825e-05
-0.000163133
0.000100891
-0.00019552
0.000100774
-0.000226866
9.77039e-05
-0.000256321
9.18654e-05
-0.00028304
8.32848e-05
-0.000306158
7.18954e-05
-0.000324789
5.76181e-05
-0.000338044
4.04522e-05
-0.000345085
2.05672e-05
-0.000345196
-1.59674e-06
-0.000337835
-2.53886e-05
-0.000322794
-4.96604e-05
-0.000300266
-7.30372e-05
-0.000270938
-9.38763e-05
-0.000236042
-0.000110433
-0.000197345
-0.000121072
-0.000157051
-0.000124525
-0.000117619
-0.000120151
-8.1499e-05
-0.000108146
-5.08195e-05
-8.9648e-05
-2.70991e-05
-6.67275e-05
-1.10243e-05
-4.22529e-05
-2.3526e-06
-1.96879e-05
-2.99986e-06
-7.25817e-06
2.12787e-05
-2.51177e-05
5.83288e-05
-5.06367e-05
8.78851e-05
-8.15204e-05
0.000109895
-0.000115944
0.000125025
-0.000152437
0.000134175
-0.000189781
0.000138236
-0.000226937
0.00013793
-0.000262966
0.000133733
-0.000296971
0.00012587
-0.000328048
0.000114362
-0.000355257
9.91052e-05
-0.000377616
7.99765e-05
-0.000394109
5.69456e-05
-0.000403733
3.01914e-05
-0.000405608
2.78199e-07
-0.000398942
-3.20549e-05
-0.000383336
-6.52659e-05
-0.000358796
-9.75772e-05
-0.0003259
-0.000126773
-0.000285893
-0.00015044
-0.000240718
-0.000166247
-0.000192936
-0.000172307
-0.000145528
-0.00016756
-0.000101562
-0.000152112
-6.37961e-05
-0.000127414
-3.42788e-05
-9.62448e-05
-1.40492e-05
-6.24825e-05
-3.01023e-06
-3.07268e-05
-6.0101e-06
-8.34433e-06
2.96231e-05
-2.87676e-05
7.8752e-05
-5.77684e-05
0.000116886
-9.26603e-05
0.000144787
-0.000131374
0.000163739
-0.000172301
0.000175101
-0.000214158
0.000180093
-0.000255879
0.000179651
-0.000296518
0.000174372
-0.000335172
0.000164524
-0.000370921
0.00015011
-0.000402781
0.000130965
-0.000429687
0.000106883
-0.000450495
7.77536e-05
-0.000464017
4.37127e-05
-0.000469049
5.31086e-06
-0.000464593
-3.65117e-05
-0.000449832
-8.00269e-05
-0.000424443
-0.000122966
-0.000388743
-0.000162473
-0.000343865
-0.000195318
-0.000291861
-0.000218251
-0.000235675
-0.000228493
-0.000178932
-0.000224304
-0.000125538
-0.000205505
-7.91447e-05
-0.000173807
-4.25773e-05
-0.000132812
-1.73897e-05
-8.76701e-05
-3.65639e-06
-4.44602e-05
-9.66648e-06
-9.2975e-06
3.89206e-05
-3.20045e-05
0.000101459
-6.41466e-05
0.000149028
-0.000102699
0.00018334
-0.000145383
0.000206422
-0.000190477
0.000220196
-0.000236665
0.000226281
-0.000282889
0.000225874
-0.000328236
0.000219719
-0.000371844
0.000208132
-0.000412815
0.000191082
-0.000450161
0.000168311
-0.000482753
0.000139476
-0.000509312
0.000104312
-0.000528414
6.28149e-05
-0.000538541
1.54381e-05
-0.000538234
-3.68191e-05
-0.000526175
-9.20859e-05
-0.000501505
-0.000147636
-0.000464071
-0.000199907
-0.000414707
-0.000244682
-0.000355456
-0.000277502
-0.000289628
-0.000294321
-0.000221622
-0.000292309
-0.000156455
-0.000270673
-9.90349e-05
-0.000231227
-5.33368e-05
-0.00017851
-2.17014e-05
-0.000119305
-4.47964e-06
-6.16819e-05
-1.41461e-05
-1.01389e-05
4.90595e-05
-3.48816e-05
0.000126202
-6.98556e-05
0.000184002
-0.000111752
0.000225236
-0.000158118
0.000252788
-0.000207157
0.000269235
-0.000257546
0.00027667
-0.000308278
0.000276606
-0.000358519
0.00026996
-0.000407492
0.000257105
-0.000454376
0.000237966
-0.000498216
0.000212151
-0.000537854
0.000179114
-0.000571879
0.000138337
-0.000598609
8.95452e-05
-0.000616124
3.29528e-05
-0.000622408
-3.05343e-05
-0.000615439
-9.90549e-05
-0.000593602
-0.000169472
-0.000556014
-0.000237496
-0.000502951
-0.000297745
-0.000436235
-0.000344218
-0.000359449
-0.000371107
-0.000277847
-0.000373912
-0.000197843
-0.000350676
-0.000126074
-0.000302996
-6.81964e-05
-0.000236388
-2.77834e-05
-0.000159718
-5.70186e-06
-8.37635e-05
-1.9848e-05
-1.08785e-05
5.9938e-05
-3.74271e-05
0.00015275
-7.49409e-05
0.000221516
-0.000119876
0.000270171
-0.000169642
0.000302554
-0.000222398
0.000321992
-0.000276855
0.000331126
-0.000332091
0.000331842
-0.000387399
0.000325268
-0.000442144
0.00031185
-0.000495634
0.000291456
-0.000547003
0.00026352
-0.000595105
0.000227215
-0.000638421
0.000181653
-0.000675005
0.000126129
-0.000702472
6.04207e-05
-0.000718172
-1.48353e-05
-0.000719174
-9.80523e-05
-0.00070289
-0.000185756
-0.000667407
-0.000272979
-0.000612111
-0.000353041
-0.000538278
-0.000418051
-0.000449526
-0.000459858
-0.000351918
-0.00047152
-0.000253505
-0.000449089
-0.00016319
-0.000393311
-8.90427e-05
-0.000310536
-3.65601e-05
-0.000212201
-7.57449e-06
-0.000112749
-2.74225e-05
-1.15172e-05
7.14552e-05
-3.96467e-05
0.00018088
-7.94087e-05
0.000261278
-0.000127065
0.000317827
-0.00017992
0.00035541
-0.00023612
0.000378191
-0.000294435
0.000389442
-0.000354074
0.000391481
-0.000414502
0.000385696
-0.000475278
0.000372626
-0.000535899
0.000352077
-0.00059565
0.000323271
-0.000653453
0.000285018
-0.000707728
0.000235928
-0.000756286
0.000174687
-0.000796274
0.000100408
-0.000824286
1.31767e-05
-0.000836462
-8.58758e-05
-0.000828984
-0.000193235
-0.000798628
-0.000303334
-0.00074351
-0.000408159
-0.000663915
-0.000497645
-0.000563064
-0.000560709
-0.000447549
-0.000587035
-0.000327114
-0.000569524
-0.000213447
-0.000506978
-0.000117949
-0.000406034
-4.90718e-05
-0.000281078
-1.03801e-05
-0.000151441
-3.78025e-05
-1.20508e-05
8.3506e-05
-4.1531e-05
0.00021036
-8.32367e-05
0.000302983
-0.000133265
0.000367855
-0.000188839
0.000410984
-0.000248109
0.000437461
-0.000309935
0.000451268
-0.000373685
0.00045523
-0.000439034
0.000451045
-0.000505785
0.000439377
-0.000573682
0.000419974
-0.000642222
0.000391811
-0.000710461
0.000353258
-0.000776826
0.000302292
-0.000838942
0.000236804
-0.000893549
0.000155014
-0.000936437
5.60648e-05
-0.000962907
-5.94054e-05
-0.000967741
-0.000188401
-0.000946217
-0.000324858
-0.000894814
-0.000459562
-0.000812292
-0.000580167
-0.000700812
-0.00067219
-0.000566868
-0.000720978
-0.000421583
-0.00071481
-0.000279732
-0.000648828
-0.000157078
-0.000528688
-6.64646e-05
-0.000371692
-1.4438e-05
-0.000203467
-5.22406e-05
-1.24741e-05
9.59802e-05
-4.30683e-05
0.000240954
-8.63941e-05
0.000346309
-0.0001384
0.000419861
-0.000196235
0.000468819
-0.000258061
0.000499287
-0.000322842
0.000516048
-0.00039012
0.000522508
-0.000459811
0.000520736
-0.000531993
0.000511558
-0.000606696
0.000494677
-0.000683684
0.000468799
-0.000762214
0.000431787
-0.000840797
0.000380876
-0.000916982
0.000312988
-0.000987196
0.000225229
-0.00104669
0.00011556
-0.00108984
-1.62549e-05
-0.00111024
-0.000168004
-0.00110162
-0.000333478
-0.00105857
-0.000502612
-0.000977782
-0.000660955
-0.000859503
-0.000790468
-0.000709083
-0.000871399
-0.000538117
-0.000885776
-0.000364251
-0.000822694
-0.000208505
-0.000684434
-8.99709e-05
-0.000490226
-2.0115e-05
-0.000273323
-7.23556e-05
-1.27874e-05
0.000108768
-4.42619e-05
0.000272429
-8.88721e-05
0.000390919
-0.000142412
0.000473401
-0.000201946
0.000528353
-0.00026564
0.000562982
-0.000332555
0.000582963
-0.000402411
0.000592365
-0.000475364
0.000593689
-0.000551775
0.00058797
-0.000631981
0.000574883
-0.00071604
0.000552858
-0.000803467
0.000519214
-0.000892951
0.00047036
-0.0009821
0.000402137
-0.00106725
0.000310374
-0.00114337
0.000191688
-0.00120415
4.45179e-05
-0.00124243
-0.000129717
-0.00125056
-0.000325348
-0.00122124
-0.000531935
-0.00114869
-0.000733508
-0.00103032
-0.000908832
-0.000868927
-0.0010328
-0.000674935
-0.00107977
-0.000467731
-0.0010299
-0.000273896
-0.000878269
-0.000120852
-0.00064327
-2.78365e-05
-0.000366339
-0.000100192
-1.30039e-05
0.000121772
-4.51536e-05
0.000304579
-9.0724e-05
0.00043649
-0.000145321
0.000527998
-0.000205888
0.00058892
-0.000270571
0.000627664
-0.000338502
0.000650895
-0.000409559
0.000663422
-0.000484113
0.000668243
-0.000562787
0.000666644
-0.000646204
0.0006583
-0.000734721
0.000641374
-0.000828141
0.000612635
-0.000925423
0.000567642
-0.00102441
0.00050112
-0.0011216
0.000407564
-0.00121207
0.000282163
-0.00128946
0.00012191
-0.00134606
-7.31197e-05
-0.00137371
-0.000297699
-0.00136342
-0.000542219
-0.00130688
-0.000790051
-0.00119794
-0.00101777
-0.00103525
-0.00119549
-0.000825776
-0.00128924
-0.00058828
-0.00126739
-0.00035394
-0.00111261
-0.000160259
-0.000836952
-3.8088e-05
-0.00048851
-0.00013828
-1.31604e-05
0.000134932
-4.58528e-05
0.000337271
-9.21158e-05
0.000482753
-0.000147291
0.000583174
-0.000208144
0.000649772
-0.000272752
0.000692272
-0.000340283
0.000718426
-0.000410728
0.000733866
-0.000484627
0.000742142
-0.000562809
0.000744826
-0.000646133
0.000741624
-0.000735222
0.000730463
-0.000830179
0.000707592
-0.000930313
0.000667776
-0.00103387
0.000604681
-0.00113786
0.00051155
-0.0012379
0.000382203
-0.00132833
0.000212345
-0.00140107
-3.88208e-07
-0.0014491
-0.000249665
-0.00146191
-0.00052941
-0.00142916
-0.000822795
-0.00134096
-0.00110598
-0.00119049
-0.00134595
-0.000978658
-0.00150108
-0.000720043
-0.00152601
-0.000447487
-0.00138517
-0.000208946
-0.00107549
-5.1391e-05
-0.000646065
-0.000189671
-1.33297e-05
0.000148262
-4.65735e-05
0.000370515
-9.33859e-05
0.000529565
-0.000148716
0.000638504
-0.000209063
0.000710119
-0.000272382
0.000755592
-0.000337832
0.000783876
-0.000405463
0.000801498
-0.000475922
0.000812601
-0.00055017
0.000819074
-0.00062923
0.000820684
-0.000713933
0.000815167
-0.000804675
0.000798334
-0.000901173
0.000764274
-0.00100226
0.000705767
-0.00110572
0.000615007
-0.00120817
0.000484653
-0.00130487
0.000309052
-0.00139059
8.53247e-05
-0.00145638
-0.000183872
-0.00149374
-0.000492052
-0.00149086
-0.00082567
-0.0014345
-0.00116234
-0.00131192
-0.00146853
-0.00111574
-0.00169726
-0.000852142
-0.00178961
-0.000550505
-0.0016868
-0.000266841
-0.00135916
-6.82512e-05
-0.000844655
-0.000257922
-1.36382e-05
0.0001619
-4.76808e-05
0.000404557
-9.51174e-05
0.000577002
-0.000150303
0.00069369
-0.000209365
0.00076918
-0.000270082
0.000816309
-0.000331568
0.000845362
-0.000393895
0.000863825
-0.000457755
0.000876461
-0.000524169
0.000885488
-0.000594246
0.000890761
-0.000668972
0.000889893
-0.000749017
0.000878379
-0.000834565
0.000849822
-0.000925177
0.000796379
-0.00101969
0.000709516
-0.0011161
0.000581071
-0.00121152
0.000404465
-0.00130202
0.000175832
-0.00138119
-0.000104704
-0.00144146
-0.000431785
-0.0014712
-0.00079593
-0.00145517
-0.00117836
-0.00137539
-0.00154832
-0.00121524
-0.0018574
-0.00096878
-0.00203607
-0.000655272
-0.00200031
-0.000332502
-0.00168193
-8.90928e-05
-0.00108806
-0.000347015
-1.42928e-05
0.000176193
-4.97542e-05
0.000440019
-9.82231e-05
0.000625471
-0.000153169
0.000748636
-0.000210229
0.000826239
-0.000266983
0.000873063
-0.000322505
0.000900884
-0.000376881
0.000918202
-0.000430819
0.000930399
-0.000485353
0.000940021
-0.000541626
0.000947035
-0.000600742
0.000949009
-0.000663641
0.000941278
-0.000731019
0.0009172
-0.000803269
0.000868629
-0.000880438
0.000786685
-0.000962159
0.000662791
-0.00104751
0.000489817
-0.00113484
0.000263158
-0.00122007
-1.94718e-05
-0.00129821
-0.000353643
-0.00135889
-0.000735249
-0.00138683
-0.00115043
-0.00136069
-0.00157446
-0.00125551
-0.00196258
-0.0010512
-0.00224039
-0.000750331
-0.00230118
-0.00040262
-0.00202964
-0.000114214
-0.00137647
-0.000461229
-1.5625e-05
0.000191818
-5.36804e-05
0.000478074
-0.000104054
0.000675844
-0.000158929
0.000803512
-0.000213355
0.000880665
-0.000264762
0.00092447
-0.000312259
0.00094838
-0.000356005
0.000961948
-0.00039675
0.000971144
-0.000435541
0.000978812
-0.000473552
0.000985045
-0.000511998
0.000987455
-0.000552107
0.000981387
-0.000595124
0.000960217
-0.000642322
0.000915827
-0.000695018
0.00083938
-0.000754514
0.000722287
-0.000821911
0.000557214
-0.000897689
0.000338936
-0.000981685
6.45242e-05
-0.00106978
-0.000265546
-0.00115542
-0.000649611
-0.00122506
-0.00108078
-0.00125678
-0.00154273
-0.00122002
-0.00199935
-0.00108126
-0.00237914
-0.000821855
-0.00256058
-0.000471849
-0.00237964
-0.000143796
-0.00170452
-0.000605025
-1.81748e-05
0.000209992
-6.0802e-05
0.000520701
-0.000114538
0.000729579
-0.000169776
0.00085875
-0.000220964
0.000931854
-0.000265556
0.000969062
-0.000302894
0.000985718
-0.00033336
0.000992414
-0.000357846
0.00099563
-0.000377473
0.000998439
-0.000393485
0.00100106
-0.00040725
0.00100122
-0.000420312
0.00099445
-0.000434485
0.00097439
-0.000451921
0.000933263
-0.000475161
0.00086262
-0.000507076
0.000754203
-0.00055061
0.000600748
-0.000608442
0.000396768
-0.000682538
0.00013862
-0.00077232
-0.000175764
-0.00087403
-0.000547901
-0.000977752
-0.000977062
-0.00106405
-0.00145643
-0.00110097
-0.00196243
-0.00104519
-0.00243493
-0.000855917
-0.00274985
-0.00053308
-0.00270248
-0.000177911
-0.00205969
-0.000782936
-2.28523e-05
0.000232845
-7.31598e-05
0.000571009
-0.000132362
0.000788781
-0.000188514
0.000914903
-0.000235657
0.000978997
-0.000271668
0.00100507
-0.000296483
0.00101053
-0.000310971
0.0010069
-0.000316342
0.001001
-0.000313908
0.000996005
-0.000305066
0.000992216
-0.000291387
0.00098754
-0.000274762
0.000977825
-0.000257556
0.000957184
-0.000242724
0.000918431
-0.00023385
0.000853746
-0.000235222
0.000755575
-0.000251203
0.000616728
-0.000286218
0.000431784
-0.000343985
0.000196387
-0.00042708
-9.26685e-05
-0.000534554
-0.000440428
-0.000661027
-0.000850589
-0.00079216
-0.0013253
-0.000899311
-0.00185528
-0.000935263
-0.00239897
-0.000840409
-0.00284471
-0.000577941
-0.00296495
-0.000216349
-0.00242128
-0.000999284
-3.12597e-05
0.000264104
-9.38834e-05
0.000633633
-0.00016115
0.000856048
-0.000218413
0.000972165
-0.00025994
0.00102052
-0.000284785
0.00102992
-0.000294054
0.0010198
-0.000289486
0.00100233
-0.000272847
0.000984361
-0.000245796
0.000968953
-0.000209974
0.000956395
-0.000167203
0.000944768
-0.000119703
0.000930325
-7.03241e-05
0.000907805
-2.2722e-05
0.000870829
1.86477e-05
0.000812377
4.8961e-05
0.000725261
6.23587e-05
0.00060333
5.31917e-05
0.000440951
1.61427e-05
0.000233436
-5.24556e-05
-2.40702e-05
-0.000155319
-0.000337564
-0.000291725
-0.000714183
-0.000453914
-0.00116311
-0.000620733
-0.00168846
-0.000748225
-0.00227148
-0.000765098
-0.00282783
-0.00059674
-0.0031333
-0.000257891
-0.00276013
-0.00125718
-4.63104e-05
0.000310415
-0.00012774
0.000715062
-0.000205428
0.000933736
-0.000262449
0.00102919
-0.000294795
0.00105287
-0.000303962
0.00103908
-0.000293058
0.0010089
-0.000265177
0.000974453
-0.000222922
0.000942106
-0.000168452
0.000914484
-0.000103729
0.000891672
-3.08076e-05
0.000871847
4.78396e-05
0.000851678
0.00012909
0.000826554
0.000208986
0.000790933
0.000282663
0.0007387
0.000344305
0.000663619
0.00038776
0.000559875
0.000406574
0.000422137
0.000394559
0.000245451
0.000345775
2.47144e-05
0.000255629
-0.000247418
0.000121016
-0.00057957
-5.74192e-05
-0.000984674
-0.000269138
-0.00147674
-0.00048079
-0.00205983
-0.000619295
-0.00268933
-0.00057698
-0.00317562
-0.000298548
-0.00303857
-0.00155572
-7.33523e-05
0.000383767
-0.000181588
0.000823298
-0.00026949
0.00102164
-0.000320552
0.00108025
-0.000335516
0.00106783
-0.000320301
0.00102387
-0.000281096
0.000969694
-0.000222907
0.000916263
-0.000149445
0.000868644
-6.34656e-05
0.000828505
3.27595e-05
0.000795447
0.000137026
0.00076758
0.000246845
0.000741859
0.000359079
0.00071432
0.00046975
0.000680262
0.00057394
0.00063451
0.000665842
0.000571717
0.000739
0.000486716
0.000786574
0.000374564
0.000801605
0.000230419
0.000777233
4.90866e-05
0.000706541
-0.000176726
0.000583004
-0.000456034
0.000400881
-0.000802551
0.000159774
-0.00123564
-0.000122822
-0.00177724
-0.000387119
-0.00242503
-0.00050004
-0.0030627
-0.000328689
-0.00320992
-0.00188441
-0.000121968
0.000505735
-0.000263318
0.000964647
-0.000351933
0.00111025
-0.00038039
0.00110871
-0.000359703
0.00104715
-0.000302999
0.000967164
-0.000220765
0.00088746
-0.000120352
0.000815849
-6.62035e-06
0.000754913
0.000117177
0.000704708
0.000248734
0.00066389
0.000386042
0.000630273
0.000526914
0.000600987
0.000668637
0.000572597
0.000807699
0.0005412
0.000939642
0.000502567
0.00105905
0.000452307
0.0011597
0.000386072
0.00123467
0.000299587
0.00127655
0.000188545
0.00127729
4.83463e-05
0.00122841
-0.000127851
0.00112035
-0.000347968
0.000942203
-0.000624406
0.000683547
-0.000976981
0.000344472
-0.00143816
-3.40774e-05
-0.00204648
-0.000335709
-0.00276107
-0.000334297
-0.00321133
-0.00221871
-0.000208146
0.000713881
-0.000371837
0.00112834
-0.000423792
0.00116221
-0.000387927
0.00107284
-0.000294104
0.000953324
-0.000165409
0.000838469
-1.68014e-05
0.000738853
0.000142725
0.000656323
0.000308061
0.000589577
0.000476439
0.000536329
0.000646293
0.000494037
0.00081651
0.000460055
0.000985878
0.000431619
0.00115267
0.000405801
0.00131437
0.000379501
0.00146747
0.000349475
0.00160737
0.000312402
0.00172848
0.000264959
0.00182423
0.000203844
0.00188698
0.000125795
0.0019076
2.77191e-05
0.00187664
-9.68858e-05
0.00178185
-0.000253181
0.00160858
-0.000451133
0.00133916
-0.000707559
0.000956459
-0.00105546
0.000465063
-0.00155509
-2.9604e-05
-0.0022664
-0.000273751
-0.00296718
-0.00249246
-0.000343363
0.00105724
-0.000435391
0.00122037
-0.000346266
0.00107308
-0.000161301
0.000887875
6.44729e-05
0.000727551
0.000302719
0.000600223
0.000539361
0.000502211
0.000768267
0.000427417
0.000987469
0.000370375
0.00119701
0.000326791
0.00139772
0.000293322
0.00159054
0.000267234
0.00177603
0.000246137
0.00195401
0.000227815
0.00212339
0.000210119
0.00228194
0.000190925
0.00242621
0.000168133
0.0025515
0.000139674
0.0026519
0.000103441
0.00272039
5.73082e-05
0.0027471
1.0108e-06
0.00272279
-7.25795e-05
0.00263304
-0.000163431
0.00246122
-0.000279314
0.00218521
-0.000431553
0.0017763
-0.000646551
0.00120445
-0.000983232
0.000514108
-0.00157606
-2.49409e-05
-0.00242813
-0.0025174
-0.000303258
0.0013605
-5.13117e-05
0.00096842
0.000376853
0.00064492
0.000796998
0.00046773
0.00117853
0.00034602
0.00151748
0.000261271
0.00181653
0.000203155
0.00208098
0.000162969
0.00231674
0.000134613
0.00252928
0.000114253
0.00272319
9.94103e-05
0.00290208
8.83477e-05
0.00306848
7.97368e-05
0.00322381
7.24846e-05
0.0033683
6.56302e-05
0.00350094
5.8289e-05
0.00361944
4.96342e-05
0.00372021
3.88972e-05
0.00379823
2.54202e-05
0.0038468
8.7366e-06
0.00386089
-1.30752e-05
0.00382813
-3.98238e-05
0.00373685
-7.21459e-05
0.00357119
-0.000113651
0.00330803
-0.000168393
0.00291176
-0.000250288
0.00232361
-0.000395079
0.00148795
-0.000740404
0.000505527
-0.00144571
-0.00201187
0.0013605
0.00232892
0.00297384
0.00344157
0.00378759
0.00404886
0.00425202
0.00441499
0.0045496
0.00466385
0.00476326
0.00485161
0.00493135
0.00500383
0.00506946
0.00512775
0.00517739
0.00521628
0.0052417
0.00525044
0.00523737
0.00519754
0.0051254
0.00501174
0.00484335
0.00459306
0.00419798
0.00345758
0.00201187
)
;

boundaryField
{
    movingWall
    {
        type            calculated;
        value           uniform 0;
    }
    fixedWalls
    {
        type            calculated;
        value           uniform 0;
    }
    frontAndBack
    {
        type            empty;
        value           nonuniform 0();
    }
}


// ************************************************************************* //
