/*--------------------------------*- C++ -*----------------------------------*\
  =========                 |
  \\      /  F ield         | OpenFOAM: The Open Source CFD Toolbox
   \\    /   O peration     | Website:  https://openfoam.org
    \\  /    A nd           | Version:  7
     \\/     M anipulation  |
\*---------------------------------------------------------------------------*/
FoamFile
{
    version     2.0;
    format      ascii;
    class       volVectorField;
    location    "6.8";
    object      U;
}
// * * * * * * * * * * * * * * * * * * * * * * * * * * * * * * * * * * * * * //

dimensions      [0 1 -1 0 0 0 0];

internalField   nonuniform List<vector> 
900
(
(7.73451e-05 -7.6307e-05 0)
(5.97168e-05 4.16178e-06 0)
(-0.000269837 0.000102234 0)
(-0.000843667 0.000175587 0)
(-0.0015931 0.000221437 0)
(-0.00245427 0.00024581 0)
(-0.00337419 0.000255707 0)
(-0.0043132 0.000256253 0)
(-0.00524125 0.000250259 0)
(-0.00613325 0.000238674 0)
(-0.00696526 0.000221169 0)
(-0.00771196 0.000196652 0)
(-0.00834536 0.000163755 0)
(-0.00883489 0.000121308 0)
(-0.00914885 6.88357e-05 0)
(-0.00925711 6.93682e-06 0)
(-0.00913463 -6.29605e-05 0)
(-0.00876605 -0.000136815 0)
(-0.0081506 -0.000209428 0)
(-0.0073058 -0.000274368 0)
(-0.00626979 -0.000324613 0)
(-0.00510123 -0.000353562 0)
(-0.00387598 -0.000356145 0)
(-0.00268084 -0.000329795 0)
(-0.00160483 -0.000275029 0)
(-0.00072861 -0.000195612 0)
(-0.000111805 -9.95871e-05 0)
(0.000205507 -2.61653e-06 0)
(0.000235701 7.96949e-05 0)
(9.32021e-05 9.27751e-05 0)
(-1.81507e-06 -6.20499e-05 0)
(-0.000392879 0.000388759 0)
(-0.00145258 0.000873256 0)
(-0.00301488 0.00125666 0)
(-0.00495842 0.00151982 0)
(-0.00716019 0.00167666 0)
(-0.00950619 0.0017495 0)
(-0.0119014 0.00175758 0)
(-0.0142668 0.00171315 0)
(-0.0165325 0.00162157 0)
(-0.0186321 0.00148281 0)
(-0.0204979 0.00129359 0)
(-0.0220591 0.00104965 0)
(-0.0232424 0.000748128 0)
(-0.0239753 0.000389957 0)
(-0.0241929 -1.82105e-05 0)
(-0.0238439 -0.0004624 0)
(-0.0229007 -0.000919998 0)
(-0.0213702 -0.00136107 0)
(-0.0192995 -0.00175011 0)
(-0.0167802 -0.00204975 0)
(-0.0139475 -0.00222577 0)
(-0.0109728 -0.00225268 0)
(-0.00804964 -0.00211873 0)
(-0.00537491 -0.00182944 0)
(-0.00312606 -0.00140916 0)
(-0.0014368 -0.000903355 0)
(-0.000376616 -0.0003843 0)
(7.98191e-05 5.49826e-05 0)
(8.37828e-05 0.00023301 0)
(-0.000108166 0.00027358 0)
(-0.00093053 0.00146159 0)
(-0.00273786 0.00262125 0)
(-0.00521407 0.00354808 0)
(-0.00819267 0.00420335 0)
(-0.011516 0.00460721 0)
(-0.015032 0.00479931 0)
(-0.0186087 0.00481715 0)
(-0.0221315 0.00468665 0)
(-0.0254966 0.00442041 0)
(-0.028604 0.00402003 0)
(-0.0313531 0.00348033 0)
(-0.0336407 0.00279458 0)
(-0.0353622 0.00196008 0)
(-0.0364168 0.000983592 0)
(-0.0367149 -0.000113865 0)
(-0.0361884 -0.00129309 0)
(-0.0348029 -0.00249612 0)
(-0.032571 -0.00364739 0)
(-0.0295602 -0.00465899 0)
(-0.025899 -0.0054396 0)
(-0.0217753 -0.00590634 0)
(-0.0174266 -0.00599804 0)
(-0.0131214 -0.00568752 0)
(-0.00913359 -0.00499061 0)
(-0.0057107 -0.00397073 0)
(-0.00304136 -0.00274094 0)
(-0.00122232 -0.00146645 0)
(-0.000234269 -0.000366776 0)
(3.1065e-05 0.000234462 0)
(-0.000202553 0.000901481 0)
(-0.00143299 0.00313909 0)
(-0.00395322 0.00515815 0)
(-0.00727594 0.00674779 0)
(-0.0111812 0.00787296 0)
(-0.0154812 0.00856921 0)
(-0.0199967 0.00889662 0)
(-0.0245704 0.00891187 0)
(-0.0290639 0.00865482 0)
(-0.0333494 0.00814552 0)
(-0.0373027 0.00738736 0)
(-0.0407989 0.00637357 0)
(-0.0437102 0.0050957 0)
(-0.045908 0.00355284 0)
(-0.0472679 0.00176069 0)
(-0.04768 -0.00024052 0)
(-0.047059 -0.00238113 0)
(-0.0453596 -0.00455792 0)
(-0.0425923 -0.00663867 0)
(-0.0388337 -0.00847035 0)
(-0.0342348 -0.00989393 0)
(-0.029021 -0.0107646 0)
(-0.023482 -0.0109749 0)
(-0.01795 -0.010476 0)
(-0.0127677 -0.00929506 0)
(-0.00824932 -0.00754288 0)
(-0.00463923 -0.00541494 0)
(-0.0020691 -0.00318736 0)
(-0.000542234 -0.00121149 0)
(-1.62164e-05 5.68264e-05 0)
(-0.000280327 0.00178809 0)
(-0.00187619 0.00537879 0)
(-0.00505162 0.00842867 0)
(-0.00914981 0.0107771 0)
(-0.0138939 0.0124244 0)
(-0.0190658 0.013437 0)
(-0.0244638 0.0139024 0)
(-0.0299133 0.0138985 0)
(-0.0352605 0.0134798 0)
(-0.0403622 0.0126734 0)
(-0.0450786 0.0114837 0)
(-0.0492676 0.00990183 0)
(-0.0527828 0.007917 0)
(-0.055475 0.00552985 0)
(-0.0571979 0.00276538 0)
(-0.057819 -0.000315591 0)
(-0.0572296 -0.00360994 0)
(-0.055363 -0.0069637 0)
(-0.0522143 -0.01018 0)
(-0.0478543 -0.0130293 0)
(-0.042442 -0.0152707 0)
(-0.0362291 -0.0166817 0)
(-0.029552 -0.0170932 0)
(-0.0228078 -0.0164243 0)
(-0.0164169 -0.0147092 0)
(-0.0107737 -0.0121109 0)
(-0.0061937 -0.00891959 0)
(-0.00285838 -0.00553833 0)
(-0.000802972 -0.00246078 0)
(-4.57958e-05 -0.000272413 0)
(-0.000344151 0.00289954 0)
(-0.00226144 0.00812783 0)
(-0.0060281 0.0123757 0)
(-0.0108317 0.0155743 0)
(-0.0163395 0.0177893 0)
(-0.0223043 0.0191366 0)
(-0.0285049 0.0197407 0)
(-0.0347548 0.0197057 0)
(-0.0408917 0.0191018 0)
(-0.0467651 0.017963 0)
(-0.0522266 0.0162936 0)
(-0.0571234 0.0140805 0)
(-0.0612949 0.011308 0)
(-0.0645733 0.00797491 0)
(-0.0667886 0.004112 0)
(-0.0677799 -0.000202471 0)
(-0.0674039 -0.00482792 0)
(-0.0655563 -0.00956298 0)
(-0.0621989 -0.014139 0)
(-0.057376 -0.0182375 0)
(-0.0512368 -0.0215177 0)
(-0.0440476 -0.0236568 0)
(-0.0361889 -0.0244005 0)
(-0.0281324 -0.0236154 0)
(-0.0203967 -0.0213317 0)
(-0.0134849 -0.0177662 0)
(-0.00781295 -0.0133181 0)
(-0.00363557 -0.00854096 0)
(-0.00102868 -0.00409542 0)
(-5.88438e-05 -0.000719892 0)
(-0.000397777 0.00420489 0)
(-0.0025976 0.0113296 0)
(-0.00689426 0.0169334 0)
(-0.0123378 0.0210707 0)
(-0.0185448 0.0238986 0)
(-0.0252408 0.025601 0)
(-0.0321891 0.0263508 0)
(-0.0391962 0.0262845 0)
(-0.0460981 0.0254906 0)
(-0.0527438 0.0240101 0)
(-0.0589833 0.0218455 0)
(-0.0646594 0.0189758 0)
(-0.0696017 0.0153752 0)
(-0.0736256 0.0110346 0)
(-0.0765341 0.00598297 0)
(-0.0781249 0.000308815 0)
(-0.0782099 -0.00581981 0)
(-0.0766308 -0.0121532 0)
(-0.0732857 -0.0183473 0)
(-0.0681664 -0.0239824 0)
(-0.0613882 -0.0285952 0)
(-0.0532146 -0.031731 0)
(-0.0440658 -0.0330137 0)
(-0.0345005 -0.0322229 0)
(-0.0251651 -0.0293622 0)
(-0.0167135 -0.0246981 0)
(-0.00970802 -0.0187571 0)
(-0.00451288 -0.0122788 0)
(-0.0012611 -0.00613588 0)
(-6.24984e-05 -0.00126989 0)
(-0.000444002 0.00567933 0)
(-0.00289342 0.0149339 0)
(-0.00766479 0.0220414 0)
(-0.0136891 0.0272044 0)
(-0.0205383 0.0306939 0)
(-0.0279155 0.0327793 0)
(-0.0355727 0.0336941 0)
(-0.0433151 0.0336143 0)
(-0.0509831 0.0326504 0)
(-0.0584326 0.0308508 0)
(-0.0655198 0.028214 0)
(-0.0720896 0.0247062 0)
(-0.077967 0.0202841 0)
(-0.0829513 0.0149201 0)
(-0.0868157 0.0086292 0)
(-0.0893117 0.00149648 0)
(-0.0901864 -0.00629955 0)
(-0.0891999 -0.0144654 0)
(-0.0861605 -0.0225823 0)
(-0.0809727 -0.0301176 0)
(-0.0736832 -0.0364582 0)
(-0.0645253 -0.0409751 0)
(-0.0539464 -0.0431168 0)
(-0.0426007 -0.0425219 0)
(-0.0312964 -0.0391254 0)
(-0.0208941 -0.033229 0)
(-0.012168 -0.0255066 0)
(-0.00564864 -0.0169356 0)
(-0.0015587 -0.00867043 0)
(-6.58028e-05 -0.00193448 0)
(-0.000484373 0.00730277 0)
(-0.00315488 0.018897 0)
(-0.00835116 0.027646 0)
(-0.0149018 0.0339206 0)
(-0.0223417 0.0381257 0)
(-0.0303562 0.0406324 0)
(-0.0386914 0.041747 0)
(-0.047157 0.0416932 0)
(-0.055605 0.0406081 0)
(-0.063906 0.0385487 0)
(-0.0719308 0.0355068 0)
(-0.0795344 0.0314301 0)
(-0.0865434 0.0262475 0)
(-0.0927449 0.0198984 0)
(-0.0978806 0.012365 0)
(-0.101648 0.00370745 0)
(-0.103713 -0.00590197 0)
(-0.10373 -0.0161473 0)
(-0.101381 -0.0265412 0)
(-0.0964435 -0.036429 0)
(-0.0888494 -0.0450184 0)
(-0.0787613 -0.0514527 0)
(-0.0666255 -0.0549327 0)
(-0.0531883 -0.0548746 0)
(-0.0394499 -0.0510747 0)
(-0.0265438 -0.0438336 0)
(-0.0155452 -0.0339887 0)
(-0.00723731 -0.0228236 0)
(-0.00199155 -0.0118753 0)
(-7.85172e-05 -0.00276032 0)
(-0.000519481 0.00905773 0)
(-0.00338492 0.0231797 0)
(-0.00895961 0.0336978 0)
(-0.0159849 0.0411685 0)
(-0.0239651 0.046148 0)
(-0.0325731 0.0491247 0)
(-0.0415546 0.0504901 0)
(-0.05073 0.0505248 0)
(-0.0599701 0.0493979 0)
(-0.0691687 0.0471769 0)
(-0.0782204 0.043845 0)
(-0.0869999 0.0393244 0)
(-0.0953435 0.0335042 0)
(-0.103032 0.0262725 0)
(-0.109779 0.0175546 0)
(-0.11522 0.00735655 0)
(-0.11893 -0.00418595 0)
(-0.120434 -0.0167571 0)
(-0.119254 -0.0298222 0)
(-0.114993 -0.0426026 0)
(-0.107418 -0.0540988 0)
(-0.096562 -0.0631679 0)
(-0.0828206 -0.068672 0)
(-0.0670043 -0.0696917 0)
(-0.0503185 -0.0657732 0)
(-0.0342352 -0.0571419 0)
(-0.0202437 -0.044796 0)
(-0.00950505 -0.0304067 0)
(-0.00264014 -0.0160312 0)
(-0.00011103 -0.00383358 0)
(-0.000549271 0.0109275 0)
(-0.00358402 0.0277447 0)
(-0.00949144 0.0401487 0)
(-0.0169389 0.048897 0)
(-0.0254059 0.0547126 0)
(-0.0345574 0.0582162 0)
(-0.0441434 0.0598974 0)
(-0.0540011 0.0601037 0)
(-0.0640271 0.0590431 0)
(-0.0741468 0.0567966 0)
(-0.0842882 0.0533373 0)
(-0.0943559 0.0485552 0)
(-0.104207 0.0422858 0)
(-0.113624 0.0343451 0)
(-0.122297 0.0245726 0)
(-0.129805 0.0128844 0)
(-0.13562 -0.000660129 0)
(-0.139125 -0.0157795 0)
(-0.139661 -0.0319242 0)
(-0.136612 -0.0482017 0)
(-0.129524 -0.0633884 0)
(-0.118231 -0.0759991 0)
(-0.103001 -0.0844558 0)
(-0.0846427 -0.0873598 0)
(-0.0645408 -0.0838427 0)
(-0.0445508 -0.0739179 0)
(-0.0267019 -0.0586968 0)
(-0.0127065 -0.0403173 0)
(-0.00359571 -0.0215389 0)
(-0.000174664 -0.00528494 0)
(-0.000573317 0.0128951 0)
(-0.00375115 0.0325541 0)
(-0.00994455 0.0469496 0)
(-0.0177585 0.0570514 0)
(-0.0266514 0.063764 0)
(-0.0362834 0.0678549 0)
(-0.0464128 0.0699254 0)
(-0.0568977 0.0704009 0)
(-0.0676667 0.0695366 0)
(-0.0786842 0.0674314 0)
(-0.0899204 0.0640481 0)
(-0.10132 0.0592381 0)
(-0.11277 0.0527699 0)
(-0.124069 0.0443648 0)
(-0.134894 0.0337453 0)
(-0.144774 0.0206989 0)
(-0.153084 0.00516249 0)
(-0.159068 -0.0126738 0)
(-0.161876 -0.0322757 0)
(-0.160651 -0.052667 0)
(-0.154669 -0.072404 0)
(-0.143492 -0.0896222 0)
(-0.127157 -0.102209 0)
(-0.106356 -0.108124 0)
(-0.0825638 -0.105861 0)
(-0.0580062 -0.0949946 0)
(-0.0353642 -0.0766125 0)
(-0.0171204 -0.0533634 0)
(-0.00496177 -0.0289318 0)
(-0.000282443 -0.00729522 0)
(-0.00059113 0.0149424 0)
(-0.00388508 0.0375691 0)
(-0.0103162 0.0540481 0)
(-0.018436 0.0655702 0)
(-0.0276834 0.0732339 0)
(-0.0377145 0.0779685 0)
(-0.0482973 0.0805009 0)
(-0.0593136 0.0813471 0)
(-0.0707276 0.0808185 0)
(-0.0825475 0.079038 0)
(-0.0947918 0.0759592 0)
(-0.107453 0.07139 0)
(-0.12046 0.0650194 0)
(-0.133637 0.0564531 0)
(-0.146662 0.0452659 0)
(-0.159037 0.0310765 0)
(-0.170064 0.0136518 0)
(-0.178865 -0.00696567 0)
(-0.184415 -0.0303014 0)
(-0.185626 -0.0553473 0)
(-0.181488 -0.0804741 0)
(-0.171226 -0.103438 0)
(-0.154528 -0.121533 0)
(-0.131808 -0.131921 0)
(-0.104448 -0.132194 0)
(-0.0749297 -0.121146 0)
(-0.0466299 -0.0995535 0)
(-0.0230403 -0.0705163 0)
(-0.00685676 -0.0388871 0)
(-0.000450597 -0.0101026 0)
(-0.000602523 0.0170509 0)
(-0.00398624 0.0427498 0)
(-0.010607 0.0613889 0)
(-0.0189679 0.0743834 0)
(-0.0284864 0.0830379 0)
(-0.0388125 0.0884579 0)
(-0.0497228 0.0915113 0)
(-0.0611228 0.0928174 0)
(-0.0730121 0.0927548 0)
(-0.0854438 0.0914767 0)
(-0.0984865 0.0889305 0)
(-0.112185 0.0848778 0)
(-0.126515 0.0789187 0)
(-0.141339 0.0705262 0)
(-0.156358 0.0591016 0)
(-0.171071 0.0440615 0)
(-0.18475 0.0249614 0)
(-0.196439 0.00165348 0)
(-0.204992 -0.0255224 0)
(-0.209148 -0.0555733 0)
(-0.207626 -0.0867656 0)
(-0.199286 -0.116535 0)
(-0.183368 -0.141588 0)
(-0.159805 -0.158193 0)
(-0.129617 -0.16277 0)
(-0.0952817 -0.152882 0)
(-0.0607633 -0.128488 0)
(-0.0307524 -0.0928663 0)
(-0.00941625 -0.0522284 0)
(-0.000700919 -0.0140119 0)
(-0.000608094 0.0192026 0)
(-0.00405906 0.0480585 0)
(-0.0108262 0.0689158 0)
(-0.0193624 0.0834134 0)
(-0.029058 0.0930733 0)
(-0.0395513 0.0991928 0)
(-0.0506236 0.102796 0)
(-0.0622001 0.10462 0)
(-0.0743122 0.105119 0)
(-0.087054 0.104487 0)
(-0.100541 0.102667 0)
(-0.114866 0.0993751 0)
(-0.130058 0.0941176 0)
(-0.146024 0.0862255 0)
(-0.162509 0.0749123 0)
(-0.179047 0.0593725 0)
(-0.194934 0.0389246 0)
(-0.209217 0.0131933 0)
(-0.220702 -0.017677 0)
(-0.22805 -0.0527692 0)
(-0.22981 -0.0903693 0)
(-0.224492 -0.127716 0)
(-0.210829 -0.161038 0)
(-0.188089 -0.18572 0)
(-0.156603 -0.196817 0)
(-0.118418 -0.190158 0)
(-0.0777467 -0.164124 0)
(-0.040486 -0.121523 0)
(-0.0127909 -0.0699135 0)
(-0.00106368 -0.0194051 0)
(-0.000609821 0.0213837 0)
(-0.00411502 0.0534652 0)
(-0.0109983 0.0765773 0)
(-0.0196502 0.0925792 0)
(-0.0294225 0.103221 0)
(-0.0399337 0.110011 0)
(-0.0509628 0.114144 0)
(-0.0624483 0.116488 0)
(-0.0744463 0.117586 0)
(-0.0870825 0.117675 0)
(-0.10051 0.116702 0)
(-0.114864 0.11434 0)
(-0.13022 0.110003 0)
(-0.146541 0.102881 0)
(-0.163633 0.0920019 0)
(-0.181106 0.0763392 0)
(-0.198347 0.0549731 0)
(-0.214497 0.0272978 0)
(-0.228409 -0.00676138 0)
(-0.238817 -0.04658 0)
(-0.244237 -0.0904485 0)
(-0.242921 -0.135629 0)
(-0.233121 -0.178107 0)
(-0.213334 -0.212563 0)
(-0.182882 -0.232658 0)
(-0.142849 -0.23205 0)
(-0.0970752 -0.206585 0)
(-0.0523216 -0.15743 0)
(-0.0171347 -0.0929901 0)
(-0.00158073 -0.0267511 0)
(-0.000611874 0.0235886 0)
(-0.00417646 0.0589565 0)
(-0.0111712 0.0843365 0)
(-0.0198955 0.101803 0)
(-0.029646 0.113352 0)
(-0.0400099 0.12072 0)
(-0.0507563 0.125294 0)
(-0.0618296 0.128085 0)
(-0.0733006 0.129731 0)
(-0.0853154 0.13052 0)
(-0.0980513 0.130407 0)
(-0.111675 0.129026 0)
(-0.126302 0.125711 0)
(-0.141953 0.119527 0)
(-0.158516 0.109332 0)
(-0.175711 0.0939044 0)
(-0.193068 0.0721063 0)
(-0.209912 0.0431057 0)
(-0.225393 0.0065861 0)
(-0.238329 -0.0370885 0)
(-0.247285 -0.0864497 0)
(-0.250566 -0.139004 0)
(-0.246055 -0.190807 0)
(-0.231486 -0.236192 0)
(-0.204974 -0.267655 0)
(-0.166117 -0.276488 0)
(-0.117543 -0.255029 0)
(-0.0660529 -0.201073 0)
(-0.0225813 -0.122498 0)
(-0.00230931 -0.0366078 0)
(-0.00062179 0.025828 0)
(-0.0042818 0.06455 0)
(-0.0114264 0.0921838 0)
(-0.0202105 0.111022 0)
(-0.029852 0.123333 0)
(-0.0398957 0.131109 0)
(-0.0500949 0.135948 0)
(-0.0603937 0.139016 0)
(-0.0708697 0.141052 0)
(-0.081678 0.1424 0)
(-0.0930072 0.143025 0)
(-0.105043 0.142537 0)
(-0.117934 0.140203 0)
(-0.131761 0.134988 0)
(-0.146509 0.125622 0)
(-0.162045 0.110729 0)
(-0.178102 0.0890006 0)
(-0.194269 0.0594076 0)
(-0.209977 0.0214104 0)
(-0.224366 -0.0248148 0)
(-0.236308 -0.0782917 0)
(-0.244235 -0.136962 0)
(-0.245908 -0.197322 0)
(-0.238497 -0.253861 0)
(-0.218925 -0.298441 0)
(-0.184958 -0.320203 0)
(-0.137142 -0.307302 0)
(-0.081036 -0.25209 0)
(-0.0292089 -0.159294 0)
(-0.00332805 -0.0496146 0)
(-0.000652472 0.0281393 0)
(-0.00449297 0.0703126 0)
(-0.0118916 0.100155 0)
(-0.0207697 0.1202 0)
(-0.0302367 0.133037 0)
(-0.0397876 0.140952 0)
(-0.0491597 0.145779 0)
(-0.0582978 0.148848 0)
(-0.0672832 0.151003 0)
(-0.076273 0.152642 0)
(-0.0854586 0.153748 0)
(-0.095036 0.153915 0)
(-0.105184 0.152372 0)
(-0.116045 0.14802 0)
(-0.127713 0.13951 0)
(-0.140223 0.125375 0)
(-0.153544 0.104203 0)
(-0.16757 0.0748387 0)
(-0.182081 0.0365779 0)
(-0.19662 -0.0106967 0)
(-0.21049 -0.0664956 0)
(-0.222443 -0.129322 0)
(-0.230401 -0.196477 0)
(-0.231298 -0.263196 0)
(-0.221137 -0.321483 0)
(-0.195833 -0.359053 0)
(-0.153206 -0.359841 0)
(-0.0960927 -0.30887 0)
(-0.0370032 -0.203798 0)
(-0.00474798 -0.066473 0)
(-0.000726022 0.0306029 0)
(-0.00490753 0.0763867 0)
(-0.0127593 0.108351 0)
(-0.0218277 0.129342 0)
(-0.031082 0.142351 0)
(-0.0399698 0.150022 0)
(-0.0482253 0.154448 0)
(-0.0558064 0.157134 0)
(-0.0628052 0.159025 0)
(-0.0693828 0.160574 0)
(-0.075732 0.161784 0)
(-0.0820577 0.162249 0)
(-0.0885687 0.161184 0)
(-0.0954744 0.157471 0)
(-0.102985 0.149742 0)
(-0.111314 0.136503 0)
(-0.120673 0.116307 0)
(-0.131259 0.0879359 0)
(-0.14322 0.0505631 0)
(-0.156591 0.00382468 0)
(-0.171081 -0.0521972 0)
(-0.185859 -0.116727 0)
(-0.199334 -0.188091 0)
(-0.208604 -0.262782 0)
(-0.209246 -0.333837 0)
(-0.195689 -0.388717 0)
(-0.162848 -0.407986 0)
(-0.109545 -0.368309 0)
(-0.0458263 -0.255666 0)
(-0.00673183 -0.0879225 0)
(-0.000881772 0.033369 0)
(-0.00567995 0.0830261 0)
(-0.0143123 0.116964 0)
(-0.023739 0.1385 0)
(-0.032762 0.151179 0)
(-0.0408069 0.158085 0)
(-0.0476395 0.161608 0)
(-0.0532606 0.163429 0)
(-0.0577938 0.164589 0)
(-0.0614169 0.165583 0)
(-0.0643321 0.166439 0)
(-0.0667595 0.166764 0)
(-0.0689434 0.165791 0)
(-0.0711645 0.162428 0)
(-0.0737509 0.155337 0)
(-0.0770895 0.143064 0)
(-0.0816277 0.124194 0)
(-0.0878476 0.0974943 0)
(-0.0962274 0.0620627 0)
(-0.10718 0.0173538 0)
(-0.120873 -0.0368363 0)
(-0.137009 -0.10051 0)
(-0.154549 -0.173057 0)
(-0.171159 -0.252534 0)
(-0.182624 -0.333819 0)
(-0.18261 -0.405562 0)
(-0.163504 -0.446676 0)
(-0.119407 -0.425914 0)
(-0.0553787 -0.313465 0)
(-0.00951549 -0.114721 0)
(-0.00119364 0.0367035 0)
(-0.00706066 0.0906435 0)
(-0.0169634 0.126291 0)
(-0.0269769 0.147765 0)
(-0.0357348 0.159415 0)
(-0.0427079 0.164884 0)
(-0.0477619 0.166895 0)
(-0.050993 0.167296 0)
(-0.0525924 0.167203 0)
(-0.0527781 0.167143 0)
(-0.0517774 0.167161 0)
(-0.0498368 0.166892 0)
(-0.0472433 0.165612 0)
(-0.0443499 0.162294 0)
(-0.0415947 0.15568 0)
(-0.0395156 0.144409 0)
(-0.0387704 0.127148 0)
(-0.0400817 0.102688 0)
(-0.0441881 0.0701084 0)
(-0.0517875 0.028733 0)
(-0.0634607 -0.0219135 0)
(-0.0793905 -0.0824219 0)
(-0.0991342 -0.15312 0)
(-0.121201 -0.233678 0)
(-0.142196 -0.321332 0)
(-0.155969 -0.407319 0)
(-0.153303 -0.471292 0)
(-0.123634 -0.476267 0)
(-0.0651245 -0.374451 0)
(-0.013406 -0.147625 0)
(-0.00180765 0.0410718 0)
(-0.0094677 0.0998741 0)
(-0.0213093 0.136737 0)
(-0.0321392 0.157228 0)
(-0.04049 0.166892 0)
(-0.04602 0.170087 0)
(-0.0488101 0.169884 0)
(-0.0491309 0.168272 0)
(-0.0472911 0.166404 0)
(-0.0435802 0.16481 0)
(-0.0382711 0.163544 0)
(-0.0316475 0.162273 0)
(-0.0240419 0.160335 0)
(-0.015873 0.156799 0)
(-0.00766677 0.150529 0)
(-7.16633e-05 0.140281 0)
(0.00608361 0.124824 0)
(0.0098967 0.103038 0)
(0.0104546 0.0739923 0)
(0.00686553 0.0369191 0)
(-0.00179185 -0.00890491 0)
(-0.0160807 -0.064337 0)
(-0.0360936 -0.130486 0)
(-0.0613035 -0.20839 0)
(-0.0895934 -0.297722 0)
(-0.115973 -0.393339 0)
(-0.130971 -0.478283 0)
(-0.1202 -0.513658 0)
(-0.0741127 -0.434475 0)
(-0.0186943 -0.187308 0)
(-0.00302044 0.0472987 0)
(-0.0136123 0.111645 0)
(-0.028184 0.148761 0)
(-0.0398831 0.166858 0)
(-0.0473652 0.17325 0)
(-0.0507394 0.173161 0)
(-0.0504786 0.16999 0)
(-0.0471333 0.165791 0)
(-0.04119 0.161687 0)
(-0.0330441 0.158169 0)
(-0.0230319 0.155277 0)
(-0.0114793 0.152702 0)
(0.00124436 0.149858 0)
(0.0146785 0.145921 0)
(0.0282385 0.139897 0)
(0.0411987 0.130687 0)
(0.0526634 0.117172 0)
(0.0616277 0.0983469 0)
(0.0670425 0.0732928 0)
(0.0678542 0.0411858 0)
(0.0630165 0.00113004 0)
(0.051649 -0.0478567 0)
(0.0330816 -0.107333 0)
(0.00699871 -0.179245 0)
(-0.0259494 -0.265305 0)
(-0.0627487 -0.3644 0)
(-0.0952916 -0.465374 0)
(-0.106851 -0.532512 0)
(-0.0806283 -0.487907 0)
(-0.0253828 -0.234041 0)
(-0.00543363 0.0568809 0)
(-0.0206918 0.127214 0)
(-0.0386194 0.162666 0)
(-0.0505997 0.176211 0)
(-0.055961 0.177641 0)
(-0.0557118 0.173117 0)
(-0.0509646 0.166238 0)
(-0.0426756 0.158981 0)
(-0.0315717 0.152336 0)
(-0.0181819 0.146682 0)
(-0.00291192 0.142008 0)
(0.0138805 0.138012 0)
(0.0318142 0.134169 0)
(0.0504265 0.129766 0)
(0.0691326 0.123953 0)
(0.0871988 0.115789 0)
(0.10373 0.104303 0)
(0.117702 0.0885795 0)
(0.128004 0.0677507 0)
(0.133488 0.040985 0)
(0.132991 0.00736389 0)
(0.125378 -0.0342425 0)
(0.109534 -0.0854696 0)
(0.08441 -0.148638 0)
(0.0492726 -0.226765 0)
(0.00471608 -0.32235 0)
(-0.044224 -0.431539 0)
(-0.080415 -0.527398 0)
(-0.0816846 -0.527363 0)
(-0.0326668 -0.287151 0)
(-0.0102236 0.0726376 0)
(-0.0325873 0.148035 0)
(-0.0533207 0.178036 0)
(-0.0631634 0.183778 0)
(-0.0633379 0.178131 0)
(-0.0564368 0.167995 0)
(-0.0445153 0.156845 0)
(-0.0290506 0.146339 0)
(-0.0110398 0.137164 0)
(0.00886879 0.129494 0)
(0.0302342 0.123198 0)
(0.052712 0.117947 0)
(0.0759682 0.113255 0)
(0.0996059 0.108509 0)
(0.123116 0.102996 0)
(0.145841 0.0959318 0)
(0.166962 0.0865046 0)
(0.185508 0.0739139 0)
(0.200386 0.05738 0)
(0.210409 0.0361237 0)
(0.21428 0.00928306 0)
(0.210656 -0.0242671 0)
(0.198061 -0.0660286 0)
(0.174831 -0.118262 0)
(0.13914 -0.184431 0)
(0.089403 -0.26954 0)
(0.0262722 -0.377109 0)
(-0.0355421 -0.493197 0)
(-0.0725154 -0.543677 0)
(-0.0383312 -0.344763 0)
(-0.0194425 0.0995834 0)
(-0.0514692 0.174476 0)
(-0.0699469 0.192119 0)
(-0.0704941 0.185511 0)
(-0.0586565 0.170534 0)
(-0.039378 0.15404 0)
(-0.0158017 0.138701 0)
(0.0101602 0.125429 0)
(0.0373957 0.114381 0)
(0.0652967 0.105391 0)
(0.0935335 0.0981432 0)
(0.121906 0.0922363 0)
(0.150238 0.0872018 0)
(0.178298 0.0825109 0)
(0.205743 0.077581 0)
(0.232079 0.0717888 0)
(0.256637 0.0644894 0)
(0.278572 0.0550355 0)
(0.296872 0.0427819 0)
(0.310373 0.0270705 0)
(0.317659 0.00718877 0)
(0.317242 -0.0178045 0)
(0.307341 -0.0491211 0)
(0.2858 -0.0886912 0)
(0.249959 -0.139678 0)
(0.196662 -0.207992 0)
(0.12294 -0.302935 0)
(0.0370912 -0.42677 0)
(-0.0456277 -0.527224 0)
(-0.0376794 -0.402019 0)
(-0.0347444 0.143636 0)
(-0.0740295 0.199279 0)
(-0.0702986 0.193732 0)
(-0.0448624 0.170461 0)
(-0.00912335 0.145768 0)
(0.0303629 0.124301 0)
(0.0703291 0.106768 0)
(0.109298 0.0927886 0)
(0.146695 0.0817666 0)
(0.182415 0.0731279 0)
(0.216567 0.066358 0)
(0.249318 0.0609906 0)
(0.280809 0.0565836 0)
(0.311083 0.0527017 0)
(0.340045 0.0489044 0)
(0.367425 0.0447434 0)
(0.392757 0.0397662 0)
(0.415367 0.0335225 0)
(0.434374 0.0255606 0)
(0.448722 0.0154088 0)
(0.456966 0.00251169 0)
(0.457632 -0.0135836 0)
(0.448711 -0.0337638 0)
(0.42777 -0.0594472 0)
(0.39158 -0.0930012 0)
(0.336298 -0.139608 0)
(0.255629 -0.21055 0)
(0.151575 -0.325093 0)
(0.0145456 -0.465923 0)
(-0.0173616 -0.441557 0)
(-0.0376038 0.235868 0)
(-0.0479501 0.2034 0)
(0.0271073 0.152831 0)
(0.0988766 0.117048 0)
(0.165856 0.09053 0)
(0.226061 0.0710989 0)
(0.279193 0.0571153 0)
(0.325995 0.0470094 0)
(0.367489 0.039606 0)
(0.404666 0.0341182 0)
(0.438377 0.0300075 0)
(0.46931 0.0268739 0)
(0.497978 0.0243949 0)
(0.524717 0.0222917 0)
(0.549666 0.0203087 0)
(0.572764 0.0182027 0)
(0.593741 0.0157402 0)
(0.612109 0.012697 0)
(0.627162 0.00886091 0)
(0.63794 0.00402785 0)
(0.64338 -0.00201911 0)
(0.642192 -0.00952953 0)
(0.632316 -0.0189653 0)
(0.611614 -0.0309773 0)
(0.576659 -0.0467734 0)
(0.523804 -0.069675 0)
(0.443268 -0.107862 0)
(0.333691 -0.188368 0)
(0.143284 -0.335983 0)
(0.0605675 -0.412819 0)
(0.231277 0.158599 0)
(0.29131 0.11703 0)
(0.440601 0.0758285 0)
(0.539215 0.0505001 0)
(0.606038 0.0341914 0)
(0.655395 0.0234703 0)
(0.693447 0.0165224 0)
(0.723542 0.012039 0)
(0.748012 0.00911256 0)
(0.768497 0.00717159 0)
(0.786117 0.00586315 0)
(0.801629 0.00496028 0)
(0.815538 0.00430788 0)
(0.828156 0.00379266 0)
(0.839626 0.00332574 0)
(0.84994 0.00283265 0)
(0.858948 0.00224862 0)
(0.866367 0.00151545 0)
(0.871795 0.000588109 0)
(0.874717 -0.000574765 0)
(0.874472 -0.00192554 0)
(0.870248 -0.00363718 0)
(0.861032 -0.00581702 0)
(0.845814 -0.00857261 0)
(0.822182 -0.0121388 0)
(0.788425 -0.0175448 0)
(0.732907 -0.0269672 0)
(0.655876 -0.0489573 0)
(0.454099 -0.110011 0)
(0.31317 -0.177463 0)
)
;

boundaryField
{
    movingWall
    {
        type            fixedValue;
        value           uniform (1 0 0);
    }
    fixedWalls
    {
        type            noSlip;
    }
    frontAndBack
    {
        type            empty;
    }
}


// ************************************************************************* //
