/*--------------------------------*- C++ -*----------------------------------*\
  =========                 |
  \\      /  F ield         | OpenFOAM: The Open Source CFD Toolbox
   \\    /   O peration     | Website:  https://openfoam.org
    \\  /    A nd           | Version:  7
     \\/     M anipulation  |
\*---------------------------------------------------------------------------*/
FoamFile
{
    version     2.0;
    format      ascii;
    class       volScalarField;
    location    "0.31";
    object      p;
}
// * * * * * * * * * * * * * * * * * * * * * * * * * * * * * * * * * * * * * //

dimensions      [0 2 -2 0 0 0 0];

internalField   nonuniform List<scalar> 
1936
(
6.18089e-05
-3011.31
-6483.93
-6406.25
-5927.07
-6324.33
-6581.38
-6055.49
-5000.47
-4283.61
-4198.5
-4658.76
-6333.78
-7627.63
-6024.3
-3978.52
-3562.34
-4114.05
-6411.26
-7738.68
-5763.39
-3922.33
-3620.82
-3844.71
-5273.47
-7285.35
-6807.61
-4481.87
-3578.69
-3695.05
-5054.26
-7543.52
-7137.23
-4560.02
-3559.59
-3573.61
-4827.19
-7379.58
-7188.66
-4567.64
-3482.79
-3479.75
-4630.76
-7325.36
-107.672
-3012.79
-6431.21
-6376.18
-5921.58
-6304.27
-6547.59
-6031
-5004.76
-4320.2
-4242.83
-4676.61
-6306.89
-7573.17
-5995.57
-4013.35
-3628.71
-4133.4
-6352.61
-7669.24
-5737.49
-3947.17
-3674.61
-3889.82
-5280.6
-7246.81
-6760.82
-4493.16
-3640.63
-3740.08
-5034.27
-7475.26
-7084.78
-4564.51
-3615.08
-3628.54
-4823.13
-7320.76
-7132.97
-4566.73
-3538.19
-3538.72
-4635.18
-7275.63
-442.114
-3023.65
-6240.06
-6294.89
-5911.97
-6242.86
-6449.07
-5964.22
-5023.55
-4414.64
-4351.2
-4741.96
-6242.12
-7395.72
-5924.92
-4120.57
-3788.71
-4200.65
-6194.79
-7449.3
-5688.95
-4029.84
-3799.34
-4020.02
-5321.28
-7117.19
-6619.15
-4544.08
-3791.43
-3857.23
-5010.01
-7265.4
-6927.83
-4606.16
-3751.08
-3768.81
-4840.69
-7137.76
-6964.84
-4595.44
-3674.41
-3686.19
-4678.88
-7118.08
-901.02
-3066.76
-5968.75
-6167.97
-5893.08
-6155.09
-6306.47
-5870.2
-5056.28
-4548.64
-4500.85
-4839.77
-6144.71
-7123.61
-5824.5
-4275.76
-4007.01
-4313.55
-5985.7
-7120.23
-5624.55
-4165.65
-3976.11
-4196.75
-5362.63
-6902.83
-6409.92
-4622.64
-3995.55
-4029.56
-4999.14
-6958.24
-6691.41
-4676.55
-3944.21
-3966.3
-4874.9
-6861.9
-6712.87
-4651.77
-3870.19
-3891.7
-4745.68
-6872.36
-1428.14
-3152.49
-5667.87
-6003.34
-5849.38
-6044.6
-6139.24
-5765.32
-5100.01
-4701
-4665.51
-4949.73
-6027.67
-6803.34
-5710.35
-4449.52
-4241.28
-4453.67
-5768.96
-6740.43
-5553.96
-4336.5
-4179.4
-4385.57
-5386.92
-6635.97
-6169.42
-4710.76
-4214.32
-4228.87
-5006.76
-6611.32
-6414.92
-4761.9
-4161.84
-4184.9
-4917.21
-6542.2
-6421.23
-4726.43
-4093.07
-4117.76
-4819.56
-6580.53
-1984.99
-3284.65
-5373.55
-5811.76
-5772.53
-5915.61
-5963.9
-5661.6
-5150.62
-4853.34
-4826.78
-5056.77
-5900.69
-6471.31
-5594.76
-4621.72
-4465.56
-4604.08
-5575.96
-6358.81
-5481.08
-4520.46
-4390.2
-4566.32
-5386.09
-6343.61
-5925.67
-4798.8
-4424.97
-4432.41
-5031.7
-6268.31
-6129.59
-4851.36
-4379.99
-4399.16
-4963.05
-6216.99
-6123.85
-4810.49
-4318.12
-4339.19
-4892.36
-6275.31
-2541.2
-3462.38
-5112.16
-5605.21
-5663.48
-5773.78
-5793.43
-5566.5
-5201.39
-4991.19
-4970.87
-5150.4
-5772.07
-6156.02
-5489.45
-4778.09
-4664.87
-4749.73
-5424.74
-6011.77
-5408.18
-4696.83
-4591.07
-4727.93
-5362.36
-6052.02
-5701.26
-4881.4
-4615.58
-4622.53
-5068.2
-5957.89
-5860.46
-4935.38
-4581.34
-4593.87
-5009.57
-5914.69
-5846.29
-4894.22
-4527.2
-4541.52
-4959.94
-5982.19
-3068.92
-3678.1
-4903.49
-5399.31
-5529.74
-5626.02
-5636.57
-5483.41
-5244.7
-5104.53
-5089.22
-5224.8
-5647.05
-5878.47
-5402.32
-4911.19
-4831.4
-4880.06
-5319.59
-5721.61
-5337.66
-4850
-4767.73
-4865.77
-5323.29
-5784.61
-5513.41
-4956.57
-4778.98
-4787.57
-5106.66
-5697.03
-5626.59
-5006.8
-4754.68
-4760.8
-5052.94
-5655.76
-5606.78
-4968.74
-4708.67
-4716.97
-5018.84
-5721.21
-3538.93
-3917.14
-4762.45
-5212.54
-5385.16
-5480.57
-5498.28
-5411.66
-5273.69
-5188.8
-5178.24
-5273.54
-5531.87
-5651.21
-5336.28
-5018.64
-4962.02
-4988.87
-5253.42
-5498.77
-5275.06
-4970.55
-4911.28
-4976.93
-5278.58
-5559.32
-5369.8
-5021.84
-4911.53
-4921.74
-5137.79
-5492.89
-5440.52
-5062.04
-4893.8
-4895.72
-5089.48
-5451.58
-5416.62
-5028.6
-4856.22
-4860.83
-5066.36
-5505.93
-3927.04
-4156.25
-4695.35
-5063.4
-5246.72
-5346.32
-5380.53
-5349.17
-5285.21
-5242.17
-5237.13
-5296.18
-5432.61
-5478.84
-5289.41
-5099.19
-5058.09
-5072.36
-5214.99
-5344.02
-5226.36
-5057.08
-5017.77
-5059.26
-5236.27
-5386.88
-5270.38
-5073.99
-5011.73
-5023.09
-5156.48
-5345.29
-5307.4
-5100.04
-4997.91
-4998.28
-5114.59
-5305.41
-5280.52
-5070.88
-4968.63
-4971.98
-5098.9
-5343.76
-4226.03
-4369.05
-4691.93
-4964
-5131.28
-5232.45
-5284.14
-5293.99
-5279.88
-5266.89
-5267.14
-5296.86
-5353.64
-5359.54
-5256.72
-5152.7
-5123.03
-5129.41
-5194.37
-5249.57
-5194.16
-5112.54
-5089.37
-5112.87
-5201.79
-5269.61
-5208.33
-5111.03
-5080.21
-5092.27
-5163.94
-5248.85
-5223.57
-5123.43
-5068.81
-5068.82
-5128.64
-5212.74
-5195.6
-5097.73
-5046.53
-5049.61
-5117.68
-5235
-4445.77
-4539.62
-4727.29
-4913.53
-5049.94
-5146.11
-5209.55
-5245.65
-5262.16
-5268.24
-5272.49
-5282.28
-5295.45
-5284.58
-5233.55
-5182.08
-5162.13
-5162.36
-5184.25
-5200.4
-5177.07
-5143.48
-5131.61
-5141.97
-5177.63
-5201.01
-5173.97
-5133.72
-5122
-5132.33
-5164.13
-5193.54
-5178.29
-5136.11
-5111.3
-5111.24
-5135.13
-5162.74
-5151.6
-5113.69
-5093.96
-5096.81
-5126.69
-5172.26
-4602.03
-4667.53
-4779.29
-4899.2
-5003.82
-5089.22
-5155.88
-5204.53
-5236.47
-5254.13
-5260.15
-5259.72
-5254.8
-5240.91
-5216.68
-5193.48
-5181.4
-5177.68
-5179.77
-5179.56
-5169.98
-5157.86
-5152.33
-5154.18
-5163.34
-5167.7
-5157.84
-5145.52
-5143.86
-5150.59
-5161.07
-5166.58
-5157.99
-5142.7
-5133.5
-5132.76
-5137.98
-5141.48
-5134.42
-5122.96
-5118.77
-5120.97
-5130.32
-5142.67
-4717.11
-4760.25
-4829.69
-4908.34
-4985.5
-5057.07
-5119.59
-5170.39
-5207.21
-5229.07
-5237.01
-5234.74
-5226.61
-5215.79
-5204.24
-5194.34
-5187.45
-5182.34
-5177.54
-5172.68
-5167.44
-5162.93
-5159.65
-5157.38
-5156.25
-5154.88
-5152.03
-5150.69
-5152.75
-5156.11
-5157.64
-5155.74
-5151
-5146.12
-5143.33
-5141.84
-5139.82
-5135.98
-5131.3
-5128.9
-5129.87
-5131.02
-5131.8
-5132.45
-4805.84
-4831.63
-4874.87
-4927.03
-4984.2
-5041.49
-5095.43
-5141.93
-5177.51
-5200.1
-5210.13
-5210.6
-5205.85
-5199.83
-5194.58
-5190.4
-5186.38
-5181.59
-5175.92
-5170.52
-5166.46
-5163.58
-5160.7
-5157.24
-5153.83
-5151.48
-5151.05
-5152.57
-5155
-5156.22
-5155.07
-5152.31
-5149.59
-5147.98
-5147.1
-5145.24
-5141.53
-5136.93
-5133.59
-5133.01
-5134.19
-5134.3
-5132.67
-5130.7
-4876.37
-4890.46
-4916.59
-4950.98
-4991.45
-5035.66
-5079.16
-5118.39
-5149.88
-5171.62
-5183.77
-5188.37
-5188.54
-5187.08
-5185.49
-5183.84
-5181.46
-5177.9
-5173.52
-5169.12
-5165.55
-5162.65
-5159.75
-5156.54
-5153.6
-5151.85
-5151.81
-5153.05
-5154.36
-5154.51
-5153.26
-5151.29
-5149.7
-5148.77
-5147.88
-5146.02
-5142.9
-5139.32
-5136.75
-5135.9
-5135.94
-5135.34
-5133.78
-5132.29
-4932.06
-4939.58
-4954.98
-4977.07
-5004.8
-5036.39
-5069.41
-5100.44
-5126.75
-5146.7
-5160.09
-5168.08
-5172.36
-5174.53
-5175.57
-5175.67
-5174.69
-5172.61
-5169.79
-5166.73
-5163.82
-5161.15
-5158.54
-5156.01
-5153.9
-5152.68
-5152.46
-5152.85
-5153.18
-5152.91
-5152.01
-5150.82
-5149.79
-5148.91
-5147.84
-5146.18
-5143.89
-5141.39
-5139.33
-5138.03
-5137.19
-5136.24
-5135.13
-5134.24
-4975.15
-4979.41
-4988.67
-5002.72
-5021.14
-5042.88
-5066.32
-5089.34
-5110.09
-5127.3
-5140.53
-5150.14
-5156.87
-5161.49
-5164.51
-5166.18
-5166.64
-5166.07
-5164.76
-5163.02
-5161.1
-5159.12
-5157.17
-5155.38
-5153.94
-5153.01
-5152.58
-5152.41
-5152.2
-5151.75
-5151.07
-5150.28
-5149.49
-5148.63
-5147.56
-5146.16
-5144.47
-5142.67
-5141
-5139.62
-5138.48
-5137.48
-5136.63
-5136.07
-5008.08
-5010.76
-5016.63
-5025.7
-5037.79
-5052.31
-5068.32
-5084.71
-5100.29
-5114.18
-5125.95
-5135.51
-5143.05
-5148.84
-5153.12
-5156.06
-5157.82
-5158.62
-5158.67
-5158.19
-5157.37
-5156.34
-5155.22
-5154.16
-5153.25
-5152.57
-5152.09
-5151.7
-5151.29
-5150.79
-5150.21
-5149.57
-5148.88
-5148.09
-5147.13
-5146
-5144.72
-5143.38
-5142.07
-5140.87
-5139.82
-5138.94
-5138.28
-5137.89
-5033.16
-5034.99
-5038.89
-5044.9
-5052.9
-5062.56
-5073.38
-5084.75
-5096.03
-5106.68
-5116.32
-5124.76
-5131.95
-5137.9
-5142.67
-5146.36
-5149.06
-5150.91
-5152.07
-5152.68
-5152.88
-5152.79
-5152.5
-5152.12
-5151.72
-5151.34
-5150.99
-5150.63
-5150.23
-5149.79
-5149.29
-5148.74
-5148.13
-5147.45
-5146.66
-5145.78
-5144.82
-5143.83
-5142.86
-5141.94
-5141.12
-5140.45
-5139.96
-5139.68
-5052.13
-5053.42
-5056.08
-5060.14
-5065.51
-5071.99
-5079.33
-5087.18
-5095.24
-5103.16
-5110.69
-5117.65
-5123.9
-5129.38
-5134.09
-5138.01
-5141.2
-5143.72
-5145.65
-5147.09
-5148.1
-5148.78
-5149.21
-5149.43
-5149.52
-5149.5
-5149.41
-5149.23
-5148.99
-5148.68
-5148.31
-5147.89
-5147.4
-5146.86
-5146.25
-5145.6
-5144.91
-5144.21
-5143.53
-5142.89
-5142.32
-5141.85
-5141.52
-5141.33
-5066.16
-5067.07
-5068.91
-5071.7
-5075.38
-5079.82
-5084.88
-5090.39
-5096.17
-5102.02
-5107.79
-5113.34
-5118.54
-5123.33
-5127.65
-5131.47
-5134.79
-5137.63
-5140.01
-5141.97
-5143.56
-5144.82
-5145.79
-5146.52
-5147.06
-5147.42
-5147.63
-5147.72
-5147.7
-5147.58
-5147.39
-5147.12
-5146.79
-5146.41
-5145.99
-5145.53
-5145.06
-5144.59
-5144.13
-5143.71
-5143.34
-5143.04
-5142.83
-5142.71
-5075.34
-5076.01
-5077.35
-5079.38
-5082.05
-5085.29
-5089
-5093.1
-5097.46
-5101.98
-5106.55
-5111.06
-5115.44
-5119.6
-5123.5
-5127.09
-5130.35
-5133.27
-5135.84
-5138.08
-5140
-5141.62
-5142.97
-5144.06
-5144.94
-5145.61
-5146.1
-5146.44
-5146.64
-5146.72
-5146.7
-5146.59
-5146.41
-5146.18
-5145.9
-5145.6
-5145.27
-5144.95
-5144.64
-5144.35
-5144.11
-5143.91
-5143.77
-5143.7
-5080.41
-5080.94
-5082.01
-5083.63
-5085.77
-5088.37
-5091.38
-5094.73
-5098.33
-5102.11
-5106
-5109.91
-5113.78
-5117.55
-5121.16
-5124.57
-5127.74
-5130.66
-5133.31
-5135.68
-5137.78
-5139.6
-5141.17
-5142.49
-5143.58
-5144.47
-5145.15
-5145.67
-5146.03
-5146.25
-5146.36
-5146.37
-5146.3
-5146.16
-5145.98
-5145.76
-5145.52
-5145.28
-5145.04
-5144.83
-5144.64
-5144.49
-5144.39
-5144.33
-5082.88
-5083.34
-5084.27
-5085.68
-5087.55
-5089.84
-5092.5
-5095.47
-5098.69
-5102.1
-5105.64
-5109.24
-5112.85
-5116.4
-5119.86
-5123.17
-5126.3
-5129.22
-5131.91
-5134.36
-5136.56
-5138.51
-5140.21
-5141.67
-5142.9
-5143.91
-5144.72
-5145.35
-5145.81
-5146.13
-5146.32
-5146.4
-5146.39
-5146.3
-5146.16
-5145.99
-5145.79
-5145.58
-5145.38
-5145.19
-5145.03
-5144.9
-5144.81
-5144.77
-5083.85
-5084.29
-5085.14
-5086.46
-5088.2
-5090.34
-5092.83
-5095.63
-5098.67
-5101.91
-5105.29
-5108.76
-5112.25
-5115.71
-5119.11
-5122.39
-5125.52
-5128.46
-5131.2
-5133.71
-5135.99
-5138.02
-5139.81
-5141.36
-5142.68
-5143.77
-5144.66
-5145.35
-5145.87
-5146.24
-5146.47
-5146.58
-5146.6
-5146.54
-5146.42
-5146.26
-5146.07
-5145.87
-5145.68
-5145.5
-5145.34
-5145.22
-5145.13
-5145.09
-5083.98
-5084.4
-5085.22
-5086.5
-5088.19
-5090.28
-5092.71
-5095.44
-5098.42
-5101.61
-5104.94
-5108.37
-5111.83
-5115.29
-5118.69
-5121.98
-5125.14
-5128.12
-5130.91
-5133.48
-5135.82
-5137.91
-5139.77
-5141.37
-5142.75
-5143.89
-5144.82
-5145.55
-5146.1
-5146.49
-5146.73
-5146.85
-5146.87
-5146.81
-5146.69
-5146.52
-5146.33
-5146.12
-5145.92
-5145.74
-5145.58
-5145.46
-5145.37
-5145.33
-5083.65
-5084.07
-5084.89
-5086.16
-5087.85
-5089.93
-5092.36
-5095.09
-5098.08
-5101.28
-5104.63
-5108.07
-5111.57
-5115.06
-5118.49
-5121.83
-5125.03
-5128.07
-5130.91
-5133.53
-5135.91
-5138.05
-5139.94
-5141.59
-5142.99
-5144.15
-5145.1
-5145.84
-5146.39
-5146.78
-5147.01
-5147.13
-5147.13
-5147.05
-5146.91
-5146.73
-5146.52
-5146.3
-5146.08
-5145.88
-5145.72
-5145.58
-5145.49
-5145.45
-5083.17
-5083.59
-5084.41
-5085.69
-5087.41
-5089.51
-5091.97
-5094.74
-5097.77
-5101.02
-5104.41
-5107.91
-5111.46
-5115
-5118.49
-5121.88
-5125.14
-5128.22
-5131.1
-5133.75
-5136.17
-5138.34
-5140.25
-5141.9
-5143.31
-5144.47
-5145.41
-5146.14
-5146.67
-5147.03
-5147.24
-5147.32
-5147.3
-5147.19
-5147.02
-5146.81
-5146.57
-5146.33
-5146.09
-5145.88
-5145.7
-5145.55
-5145.46
-5145.41
-5082.71
-5083.13
-5083.97
-5085.27
-5087.02
-5089.16
-5091.67
-5094.5
-5097.59
-5100.89
-5104.35
-5107.92
-5111.53
-5115.13
-5118.67
-5122.12
-5125.41
-5128.53
-5131.44
-5134.12
-5136.55
-5138.72
-5140.62
-5142.27
-5143.65
-5144.79
-5145.7
-5146.39
-5146.88
-5147.19
-5147.36
-5147.39
-5147.32
-5147.17
-5146.96
-5146.71
-5146.44
-5146.16
-5145.9
-5145.67
-5145.48
-5145.32
-5145.23
-5145.18
-5082.39
-5082.82
-5083.66
-5084.99
-5086.77
-5088.97
-5091.54
-5094.42
-5097.58
-5100.95
-5104.48
-5108.1
-5111.77
-5115.42
-5119.01
-5122.49
-5125.82
-5128.96
-5131.88
-5134.56
-5136.99
-5139.15
-5141.03
-5142.64
-5143.99
-5145.08
-5145.93
-5146.56
-5146.99
-5147.24
-5147.34
-5147.31
-5147.18
-5146.97
-5146.7
-5146.4
-5146.08
-5145.78
-5145.49
-5145.24
-5145.03
-5144.87
-5144.77
-5144.72
-5082.28
-5082.71
-5083.57
-5084.92
-5086.75
-5088.99
-5091.61
-5094.55
-5097.76
-5101.19
-5104.76
-5108.44
-5112.15
-5115.84
-5119.46
-5122.97
-5126.31
-5129.46
-5132.39
-5135.06
-5137.46
-5139.59
-5141.44
-5143
-5144.3
-5145.33
-5146.11
-5146.67
-5147.02
-5147.2
-5147.21
-5147.1
-5146.89
-5146.6
-5146.26
-5145.89
-5145.52
-5145.16
-5144.84
-5144.56
-5144.34
-5144.18
-5144.07
-5144.03
-5082.43
-5082.86
-5083.72
-5085.1
-5086.96
-5089.24
-5091.89
-5094.87
-5098.11
-5101.57
-5105.18
-5108.88
-5112.62
-5116.34
-5119.98
-5123.5
-5126.85
-5130
-5132.91
-5135.56
-5137.94
-5140.03
-5141.84
-5143.35
-5144.58
-5145.54
-5146.25
-5146.73
-5147
-5147.08
-5147
-5146.8
-5146.49
-5146.11
-5145.67
-5145.22
-5144.77
-5144.35
-5143.97
-5143.65
-5143.41
-5143.24
-5143.14
-5143.1
-5082.87
-5083.3
-5084.17
-5085.55
-5087.41
-5089.69
-5092.35
-5095.33
-5098.58
-5102.04
-5105.66
-5109.38
-5113.13
-5116.86
-5120.51
-5124.04
-5127.39
-5130.53
-5133.43
-5136.06
-5138.41
-5140.46
-5142.21
-5143.67
-5144.84
-5145.74
-5146.37
-5146.76
-5146.94
-5146.93
-5146.76
-5146.45
-5146.04
-5145.55
-5145.01
-5144.45
-5143.9
-5143.38
-5142.91
-5142.53
-5142.23
-5142.04
-5141.95
-5141.93
-5083.65
-5084.06
-5084.91
-5086.25
-5088.07
-5090.31
-5092.93
-5095.88
-5099.1
-5102.55
-5106.17
-5109.89
-5113.64
-5117.37
-5121.03
-5124.55
-5127.9
-5131.03
-5133.91
-5136.52
-5138.84
-5140.86
-5142.57
-5143.98
-5145.09
-5145.91
-5146.47
-5146.79
-5146.89
-5146.79
-5146.52
-5146.11
-5145.59
-5144.99
-5144.33
-5143.65
-5142.97
-5142.32
-5141.73
-5141.22
-5140.84
-5140.58
-5140.48
-5140.49
-5084.83
-5085.18
-5085.96
-5087.17
-5088.88
-5091.02
-5093.56
-5096.45
-5099.63
-5103.05
-5106.65
-5110.36
-5114.11
-5117.84
-5121.49
-5125.02
-5128.36
-5131.48
-5134.35
-5136.94
-5139.24
-5141.22
-5142.89
-5144.25
-5145.31
-5146.08
-5146.58
-5146.82
-5146.84
-5146.66
-5146.3
-5145.79
-5145.17
-5144.46
-5143.68
-5142.87
-5142.05
-5141.25
-5140.49
-5139.82
-5139.27
-5138.86
-5138.71
-5138.7
-5086.52
-5086.67
-5087.28
-5088.24
-5089.77
-5091.76
-5094.19
-5096.99
-5100.11
-5103.49
-5107.07
-5110.76
-5114.51
-5118.24
-5121.9
-5125.42
-5128.76
-5131.88
-5134.74
-5137.32
-5139.59
-5141.55
-5143.19
-5144.51
-5145.52
-5146.24
-5146.68
-5146.86
-5146.81
-5146.55
-5146.12
-5145.53
-5144.81
-5143.99
-5143.1
-5142.16
-5141.2
-5140.23
-5139.29
-5138.39
-5137.62
-5136.93
-5136.65
-5136.47
-5088.85
-5088.48
-5088.8
-5089.36
-5090.65
-5092.45
-5094.75
-5097.46
-5100.52
-5103.86
-5107.41
-5111.1
-5114.84
-5118.58
-5122.23
-5125.76
-5129.1
-5132.22
-5135.07
-5137.63
-5139.89
-5141.83
-5143.44
-5144.73
-5145.71
-5146.38
-5146.77
-5146.91
-5146.8
-5146.48
-5145.98
-5145.31
-5144.52
-5143.61
-5142.62
-5141.57
-5140.47
-5139.34
-5138.2
-5137.04
-5135.99
-5134.88
-5134.34
-5133.67
-5091.97
-5090.51
-5090.39
-5090.43
-5091.45
-5093.05
-5095.21
-5097.83
-5100.83
-5104.14
-5107.68
-5111.36
-5115.1
-5118.84
-5122.5
-5126.03
-5129.37
-5132.49
-5135.34
-5137.89
-5140.14
-5142.06
-5143.65
-5144.92
-5145.87
-5146.51
-5146.86
-5146.96
-5146.81
-5146.44
-5145.88
-5145.16
-5144.3
-5143.32
-5142.24
-5141.09
-5139.87
-5138.59
-5137.27
-5135.86
-5134.49
-5132.84
-5131.89
-5130.15
-5095.95
-5092.61
-5091.89
-5091.35
-5092.1
-5093.51
-5095.56
-5098.11
-5101.06
-5104.34
-5107.87
-5111.54
-5115.29
-5119.03
-5122.69
-5126.23
-5129.58
-5132.69
-5135.54
-5138.09
-5140.33
-5142.24
-5143.82
-5145.07
-5145.99
-5146.61
-5146.94
-5147
-5146.82
-5146.41
-5145.82
-5145.05
-5144.14
-5143.11
-5141.97
-5140.74
-5139.43
-5138.03
-5136.55
-5134.9
-5133.22
-5130.98
-5129.49
-5125.84
-5100.73
-5094.53
-5093.15
-5092.06
-5092.58
-5093.83
-5095.8
-5098.29
-5101.21
-5104.47
-5107.99
-5111.66
-5115.41
-5119.15
-5122.83
-5126.36
-5129.72
-5132.83
-5135.68
-5138.24
-5140.47
-5142.37
-5143.94
-5145.18
-5146.09
-5146.69
-5147
-5147.04
-5146.83
-5146.41
-5145.78
-5144.98
-5144.04
-5142.97
-5141.78
-5140.5
-5139.12
-5137.64
-5136.04
-5134.21
-5132.27
-5129.47
-5127.34
-5120.83
-5105.94
-5096.07
-5094.04
-5092.53
-5092.88
-5094.03
-5095.94
-5098.39
-5101.3
-5104.55
-5108.06
-5111.73
-5115.48
-5119.23
-5122.9
-5126.45
-5129.8
-5132.92
-5135.77
-5138.32
-5140.55
-5142.45
-5144.01
-5145.24
-5146.15
-5146.74
-5147.04
-5147.07
-5146.85
-5146.4
-5145.76
-5144.95
-5143.98
-5142.89
-5141.68
-5140.36
-5138.94
-5137.4
-5135.73
-5133.78
-5131.66
-5128.43
-5125.68
-5115.46
-5110.87
-5097.04
-5094.53
-5092.77
-5093.03
-5094.13
-5096.01
-5098.44
-5101.34
-5104.58
-5108.09
-5111.76
-5115.51
-5119.26
-5122.94
-5126.48
-5129.84
-5132.96
-5135.81
-5138.36
-5140.59
-5142.49
-5144.05
-5145.27
-5146.17
-5146.76
-5147.06
-5147.08
-5146.85
-5146.4
-5145.75
-5144.93
-5143.96
-5142.85
-5141.63
-5140.3
-5138.86
-5137.29
-5135.58
-5133.57
-5131.35
-5127.88
-5124.64
-5110.45
-5114.82
-5097.47
-5094.69
-5092.86
-5093.07
-5094.16
-5096.03
-5098.46
-5101.35
-5104.59
-5108.1
-5111.77
-5115.52
-5119.27
-5122.95
-5126.49
-5129.85
-5132.97
-5135.82
-5138.37
-5140.6
-5142.5
-5144.06
-5145.28
-5146.18
-5146.77
-5147.06
-5147.08
-5146.85
-5146.4
-5145.75
-5144.92
-5143.95
-5142.84
-5141.61
-5140.28
-5138.83
-5137.25
-5135.53
-5133.5
-5131.25
-5127.7
-5124.2
-5106.48
)
;

boundaryField
{
    movingWall
    {
        type            zeroGradient;
    }
    fixedWalls
    {
        type            zeroGradient;
    }
    frontAndBack
    {
        type            empty;
    }
    defaultFaces
    {
        type            empty;
    }
}


// ************************************************************************* //
