/*--------------------------------*- C++ -*----------------------------------*\
  =========                 |
  \\      /  F ield         | OpenFOAM: The Open Source CFD Toolbox
   \\    /   O peration     | Website:  https://openfoam.org
    \\  /    A nd           | Version:  7
     \\/     M anipulation  |
\*---------------------------------------------------------------------------*/
FoamFile
{
    version     2.0;
    format      ascii;
    class       volScalarField;
    location    "1.43";
    object      p;
}
// * * * * * * * * * * * * * * * * * * * * * * * * * * * * * * * * * * * * * //

dimensions      [0 2 -2 0 0 0 0];

internalField   nonuniform List<scalar> 
1936
(
-1.95097e-05
-3348.59
-6344.48
-5429.04
-4198.44
-3610.5
-3388.79
-3874.12
-5870.61
-7278.3
-5559.87
-3520.26
-3001.88
-3011.45
-3702.75
-5581.97
-6817.6
-5419.81
-3477.67
-2850.98
-2864.24
-3539.77
-5810.8
-7255.25
-5456.24
-3350.02
-2779.9
-2796.93
-3456.25
-5343.39
-6841.41
-5601.72
-3487.52
-2800.01
-2835.24
-3689.63
-6184.29
-7162.5
-4868.23
-2963.12
-2656.85
-2774.16
-4152.4
-6639.76
-85.4413
-3300.25
-6283.01
-5425.28
-4219.5
-3649.9
-3431.04
-3877.77
-5821.08
-7203.98
-5513.41
-3528.99
-3051.09
-3065.66
-3726.48
-5560.42
-6768.8
-5395.25
-3503.54
-2908.33
-2913.13
-3540.17
-5751.02
-7177.94
-5413.93
-3358.46
-2828.78
-2853.29
-3483.78
-5327.64
-6791.49
-5569.17
-3510.15
-2859.84
-2884.77
-3683.93
-6118.03
-7087.9
-4836.06
-2986.95
-2714.69
-2826.19
-4154.95
-6593.59
-361.592
-3166.38
-6051.18
-5418.03
-4294.78
-3747.83
-3532.81
-3909.76
-5694.54
-6970.52
-5399.4
-3573.5
-3165.81
-3202.01
-3811.49
-5503.58
-6607.45
-5331.37
-3592.94
-3049.11
-3029.56
-3566.13
-5594.11
-6935.13
-5312.94
-3405.57
-2944.01
-2992.91
-3579.43
-5290.97
-6625.92
-5479.39
-3592.42
-3005.55
-3004.41
-3697.24
-5934.04
-6853.15
-4773.45
-3067.4
-2845.36
-2967.81
-4189.12
-6445.1
-747.644
-3025.92
-5698.5
-5364.18
-4386.91
-3877.05
-3678.45
-3981.09
-5524.49
-6626
-5250.11
-3661.73
-3329.25
-3383.71
-3926.83
-5408.68
-6354.7
-5232.12
-3716.6
-3236.16
-3195.98
-3630.52
-5383.52
-6574.12
-5175.58
-3497.37
-3110.96
-3179.46
-3709.49
-5223.16
-6365.4
-5344.4
-3708.18
-3199.55
-3176.64
-3744.33
-5678.73
-6502.63
-4696.45
-3201.62
-3028.45
-3161.88
-4234.73
-6209.11
-1186.26
-2925.56
-5284.63
-5251.74
-4465.79
-4011.41
-3843.46
-4081.69
-5339.99
-6229.79
-5092.54
-3783.67
-3519.21
-3578.01
-4045.16
-5285.59
-6050.04
-5109.82
-3846.2
-3436.05
-3388.58
-3726.57
-5157.87
-6155.73
-5023.71
-3623.24
-3308.49
-3381.02
-3844.69
-5128.07
-6050.37
-5183.99
-3830.35
-3406.42
-3375.59
-3820.55
-5398.72
-6096.11
-4617.32
-3372
-3238.75
-3371.21
-4275.23
-5922.3
-1639.27
-2892.97
-4866.12
-5079.73
-4513.04
-4133.37
-4007.1
-4194.18
-5159.52
-5828.81
-4944.28
-3925.68
-3717.94
-3767.03
-4150.82
-5142.3
-5724.86
-4973.42
-3965.8
-3630.74
-3588.68
-3843.18
-4944.16
-5729.91
-4871.81
-3769.33
-3517.75
-3579.9
-3968.85
-5009.29
-5713.37
-5012.84
-3944.34
-3606.31
-3580.64
-3916.9
-5128.09
-5681.74
-4543.3
-3559.89
-3457.08
-3574.49
-4301.67
-5613.73
-2079.6
-2935.48
-4493.22
-4864.88
-4519.9
-4233.8
-4150.61
-4298.13
-4993.01
-5457.47
-4815.74
-4070.79
-3909.65
-3939.86
-4239.05
-4989.16
-5405.04
-4833.88
-4070.88
-3810.02
-3780.09
-3965.75
-4759.84
-5334.73
-4730.38
-3917.85
-3722.11
-3765.15
-4076.02
-4875.19
-5381.76
-4845.01
-4045.71
-3788.92
-3774.48
-4020.2
-4889.67
-5296.34
-4478.19
-3746.23
-3666.39
-3758.98
-4316.62
-5307.58
-2488.96
-3044.75
-4201.24
-4636.99
-4488.46
-4305.23
-4260.69
-4377.55
-4843.11
-5138.18
-4709.63
-4203.72
-4080.66
-4091.36
-4309.83
-4837.15
-5112.54
-4703.71
-4160.96
-3968.23
-3950.43
-4081.07
-4611.4
-4997.27
-4605.49
-4053.63
-3906.8
-3930.59
-4165.36
-4736.83
-5078.58
-4694.13
-4133.56
-3948.5
-3944.66
-4117.92
-4694
-4966.36
-4422.36
-3915.43
-3853.28
-3918.46
-4325.2
-5024.93
-2854.74
-3202.06
-4006.72
-4428.35
-4427.48
-4341.84
-4330.81
-4424.47
-4712.24
-4882.71
-4624.45
-4311.91
-4220.72
-4217.83
-4362.12
-4698.88
-4864.49
-4592.41
-4235.35
-4102.38
-4091.11
-4178.65
-4499.8
-4732.93
-4503.26
-4165.18
-4060.9
-4071.9
-4234.54
-4608.33
-4821.9
-4568.89
-4206.53
-4082.29
-4083.04
-4199.9
-4544.89
-4706.85
-4376.87
-4056.09
-4009.29
-4051.93
-4328.96
-4782.04
-3167.6
-3382.06
-3907.42
-4263.6
-4350.39
-4343.85
-4362.91
-4438.56
-4602.57
-4692.42
-4557.76
-4387.26
-4324.53
-4314.24
-4395.69
-4584.86
-4671.18
-4506.4
-4293.06
-4208.3
-4198.84
-4251.31
-4422.58
-4546.11
-4427.66
-4245.85
-4179.48
-4183.32
-4283.3
-4502.01
-4622.72
-4473.85
-4262.68
-4186.69
-4187.49
-4259.29
-4440.73
-4522.52
-4343.4
-4163
-4130.2
-4157.41
-4328.04
-4590.08
-3422.49
-3560.04
-3884.76
-4154.68
-4274.54
-4320.82
-4364.3
-4426.45
-4514.79
-4560.72
-4506.05
-4428.93
-4391.38
-4377.93
-4412.57
-4500
-4534.85
-4446.22
-4333.08
-4283.57
-4274.08
-4298.85
-4374.98
-4429.9
-4379.08
-4297.31
-4261.69
-4261.65
-4313.85
-4424.14
-4483.29
-4408.22
-4300.95
-4259.64
-4259.63
-4296.5
-4375.76
-4407.45
-4322.78
-4235.65
-4216.65
-4232.78
-4323.54
-4453.76
-3621.61
-3715.56
-3910.86
-4099.44
-4216.05
-4287.94
-4345.57
-4397.85
-4447.46
-4475.32
-4465.84
-4442.57
-4424.69
-4411.12
-4416.23
-4443.14
-4449.5
-4407.77
-4356
-4329.8
-4320.72
-4326.3
-4350.33
-4368.94
-4353.22
-4325.97
-4311.31
-4309
-4329.43
-4374.02
-4397.55
-4367.21
-4322.62
-4303.99
-4303.26
-4316.43
-4341.05
-4347.23
-4313.49
-4279.62
-4271.5
-4279.22
-4317.74
-4369.59
-3771.59
-3840.17
-3959.58
-4083.91
-4181.95
-4257.11
-4316.81
-4362.87
-4397.72
-4421.74
-4433.88
-4436.89
-4432.1
-4420.27
-4410.85
-4408.6
-4402.67
-4385.07
-4365.39
-4353.15
-4345.14
-4340.27
-4341.05
-4344.16
-4342.71
-4339.27
-4335.84
-4332.35
-4335
-4346.27
-4352.76
-4344.46
-4331.82
-4326.29
-4325.07
-4325.36
-4326.44
-4323.11
-4312.07
-4303.02
-4301.15
-4302.86
-4312.97
-4326.41
-3887.03
-3934.19
-4009.6
-4092.3
-4168.57
-4234.71
-4289.09
-4330.66
-4361.97
-4387.11
-4407.43
-4420.47
-4422.95
-4414.42
-4400.7
-4388.83
-4379.82
-4372.36
-4366.52
-4361.48
-4354.8
-4346.56
-4340.12
-4338.29
-4340.33
-4343.76
-4344.3
-4340.43
-4335.56
-4333.63
-4333.78
-4333.67
-4333.82
-4334.38
-4333.01
-4328.69
-4322.91
-4317.83
-4314.49
-4313.88
-4314.05
-4312.23
-4310.47
-4309.64
-3977.66
-4007.16
-4055.1
-4110.92
-4167.87
-4221.24
-4267.59
-4305.39
-4335.99
-4362.03
-4383.96
-4399.18
-4404.53
-4399.6
-4388.44
-4376.96
-4369.02
-4365.33
-4363.99
-4361.81
-4356.57
-4348.93
-4342.17
-4339.47
-4340.99
-4344.15
-4344.86
-4340.98
-4334.59
-4329.35
-4327.73
-4329.56
-4332.98
-4335.35
-4334.33
-4329.64
-4323.77
-4319.33
-4317.85
-4318.28
-4318.05
-4314.93
-4310.08
-4305.97
-4049.61
-4066.63
-4096.35
-4133.61
-4174.46
-4215.5
-4253.42
-4286.85
-4315.84
-4340.97
-4361.79
-4376.51
-4383.26
-4382.08
-4375.74
-4368.37
-4363.16
-4360.96
-4360.28
-4358.74
-4354.82
-4349.21
-4344.17
-4341.62
-4341.8
-4342.9
-4342.44
-4339.05
-4333.88
-4329.51
-4327.82
-4329.14
-4331.83
-4333.64
-4332.79
-4329.47
-4325.31
-4322.11
-4320.59
-4320
-4318.77
-4315.59
-4311.41
-4308.19
-4106.42
-4115.91
-4133.87
-4158.05
-4186.24
-4216.15
-4245.97
-4273.95
-4299.47
-4322.03
-4340.76
-4354.46
-4362.3
-4364.56
-4362.98
-4360.02
-4357.64
-4356.48
-4355.83
-4354.48
-4351.77
-4348.15
-4344.79
-4342.68
-4341.88
-4341.41
-4340.08
-4337.29
-4333.71
-4330.7
-4329.35
-4329.74
-4330.96
-4331.66
-4330.92
-4328.86
-4326.27
-4323.93
-4322.21
-4320.77
-4318.94
-4316.36
-4313.61
-4311.63
-4150.82
-4156.22
-4167.03
-4182.42
-4201.3
-4222.35
-4244.34
-4266.24
-4287.05
-4305.95
-4322.09
-4334.66
-4343.24
-4348.09
-4350.13
-4350.65
-4350.69
-4350.7
-4350.49
-4349.66
-4348.04
-4345.91
-4343.82
-4342.19
-4341.01
-4339.89
-4338.34
-4336.22
-4333.85
-4331.87
-4330.74
-4330.46
-4330.54
-4330.41
-4329.65
-4328.25
-4326.52
-4324.78
-4323.14
-4321.52
-4319.75
-4317.84
-4316.11
-4314.97
-4185.19
-4188.42
-4195.06
-4204.84
-4217.27
-4231.65
-4247.25
-4263.36
-4279.21
-4294.11
-4307.39
-4318.48
-4327.09
-4333.31
-4337.55
-4340.35
-4342.22
-4343.45
-4344.09
-4344.1
-4343.52
-4342.54
-4341.42
-4340.34
-4339.32
-4338.23
-4336.94
-4335.44
-4333.89
-4332.54
-4331.55
-4330.91
-4330.42
-4329.84
-4329
-4327.9
-4326.63
-4325.29
-4323.91
-4322.52
-4321.13
-4319.8
-4318.73
-4318.07
-4211.51
-4213.55
-4217.75
-4224.05
-4232.22
-4241.89
-4252.65
-4264.04
-4275.63
-4286.86
-4297.31
-4306.6
-4314.5
-4320.97
-4326.09
-4330.06
-4333.1
-4335.35
-4336.9
-4337.83
-4338.23
-4338.22
-4337.94
-4337.5
-4336.94
-4336.25
-4335.42
-4334.48
-4333.5
-4332.57
-4331.76
-4331.04
-4330.37
-4329.64
-4328.83
-4327.92
-4326.93
-4325.9
-4324.85
-4323.81
-4322.82
-4321.95
-4321.29
-4320.9
-4231.41
-4232.75
-4235.49
-4239.62
-4245.03
-4251.53
-4258.87
-4266.81
-4275.04
-4283.31
-4291.29
-4298.75
-4305.5
-4311.46
-4316.58
-4320.9
-4324.48
-4327.37
-4329.63
-4331.33
-4332.54
-4333.34
-4333.81
-4334.03
-4334.04
-4333.88
-4333.56
-4333.13
-4332.61
-4332.04
-4331.47
-4330.88
-4330.28
-4329.64
-4328.95
-4328.23
-4327.47
-4326.71
-4325.96
-4325.25
-4324.59
-4324.04
-4323.64
-4323.41
-4246.12
-4247.03
-4248.87
-4251.65
-4255.3
-4259.73
-4264.79
-4270.33
-4276.21
-4282.23
-4288.24
-4294.07
-4299.6
-4304.73
-4309.4
-4313.56
-4317.22
-4320.37
-4323.04
-4325.25
-4327.04
-4328.46
-4329.55
-4330.36
-4330.93
-4331.28
-4331.46
-4331.48
-4331.37
-4331.16
-4330.88
-4330.53
-4330.13
-4329.68
-4329.19
-4328.68
-4328.16
-4327.63
-4327.13
-4326.66
-4326.25
-4325.91
-4325.67
-4325.53
-4255.85
-4256.5
-4257.82
-4259.8
-4262.43
-4265.63
-4269.31
-4273.4
-4277.79
-4282.36
-4287.04
-4291.7
-4296.26
-4300.64
-4304.76
-4308.6
-4312.1
-4315.27
-4318.08
-4320.54
-4322.66
-4324.47
-4325.97
-4327.21
-4328.19
-4328.96
-4329.52
-4329.91
-4330.15
-4330.25
-4330.24
-4330.14
-4329.97
-4329.73
-4329.45
-4329.13
-4328.8
-4328.46
-4328.13
-4327.83
-4327.57
-4327.36
-4327.21
-4327.13
-4261.36
-4261.88
-4262.91
-4264.49
-4266.57
-4269.12
-4272.08
-4275.38
-4278.96
-4282.74
-4286.65
-4290.62
-4294.57
-4298.44
-4302.18
-4305.74
-4309.08
-4312.18
-4315.01
-4317.57
-4319.85
-4321.86
-4323.6
-4325.09
-4326.34
-4327.36
-4328.18
-4328.82
-4329.29
-4329.61
-4329.81
-4329.9
-4329.89
-4329.81
-4329.68
-4329.5
-4329.3
-4329.08
-4328.86
-4328.66
-4328.48
-4328.34
-4328.24
-4328.19
-4264.21
-4264.66
-4265.55
-4266.91
-4268.72
-4270.94
-4273.52
-4276.42
-4279.58
-4282.94
-4286.44
-4290.04
-4293.65
-4297.24
-4300.76
-4304.15
-4307.38
-4310.43
-4313.26
-4315.86
-4318.23
-4320.35
-4322.22
-4323.86
-4325.27
-4326.45
-4327.43
-4328.22
-4328.84
-4329.3
-4329.62
-4329.83
-4329.93
-4329.96
-4329.91
-4329.82
-4329.69
-4329.54
-4329.39
-4329.24
-4329.11
-4329
-4328.93
-4328.89
-4265.54
-4265.95
-4266.77
-4268.02
-4269.69
-4271.74
-4274.14
-4276.83
-4279.78
-4282.93
-4286.23
-4289.63
-4293.08
-4296.53
-4299.93
-4303.24
-4306.43
-4309.46
-4312.3
-4314.94
-4317.36
-4319.55
-4321.51
-4323.24
-4324.74
-4326.03
-4327.1
-4327.99
-4328.69
-4329.24
-4329.64
-4329.92
-4330.08
-4330.16
-4330.17
-4330.12
-4330.03
-4329.92
-4329.8
-4329.68
-4329.57
-4329.48
-4329.41
-4329.38
-4265.98
-4266.38
-4267.16
-4268.36
-4269.97
-4271.94
-4274.25
-4276.86
-4279.71
-4282.77
-4285.98
-4289.31
-4292.69
-4296.09
-4299.45
-4302.74
-4305.92
-4308.95
-4311.82
-4314.49
-4316.96
-4319.2
-4321.22
-4323.01
-4324.58
-4325.92
-4327.06
-4328
-4328.76
-4329.34
-4329.78
-4330.09
-4330.29
-4330.39
-4330.42
-4330.39
-4330.32
-4330.22
-4330.11
-4330
-4329.9
-4329.81
-4329.75
-4329.72
-4265.94
-4266.34
-4267.11
-4268.29
-4269.88
-4271.83
-4274.11
-4276.69
-4279.52
-4282.55
-4285.75
-4289.06
-4292.43
-4295.83
-4299.19
-4302.5
-4305.69
-4308.75
-4311.65
-4314.36
-4316.86
-4319.14
-4321.2
-4323.03
-4324.63
-4326.01
-4327.17
-4328.14
-4328.91
-4329.52
-4329.97
-4330.29
-4330.49
-4330.6
-4330.63
-4330.6
-4330.52
-4330.42
-4330.31
-4330.2
-4330.09
-4330.01
-4329.95
-4329.92
-4265.74
-4266.12
-4266.89
-4268.08
-4269.67
-4271.62
-4273.91
-4276.49
-4279.33
-4282.39
-4285.6
-4288.93
-4292.33
-4295.74
-4299.14
-4302.46
-4305.69
-4308.78
-4311.7
-4314.43
-4316.96
-4319.26
-4321.34
-4323.18
-4324.79
-4326.18
-4327.34
-4328.31
-4329.08
-4329.68
-4330.12
-4330.43
-4330.61
-4330.7
-4330.72
-4330.67
-4330.59
-4330.47
-4330.35
-4330.23
-4330.12
-4330.03
-4329.97
-4329.94
-4265.53
-4265.91
-4266.68
-4267.88
-4269.48
-4271.46
-4273.77
-4276.39
-4279.26
-4282.34
-4285.59
-4288.96
-4292.39
-4295.84
-4299.26
-4302.61
-4305.86
-4308.97
-4311.91
-4314.66
-4317.19
-4319.5
-4321.57
-4323.4
-4325
-4326.37
-4327.51
-4328.45
-4329.19
-4329.76
-4330.17
-4330.44
-4330.6
-4330.66
-4330.64
-4330.57
-4330.46
-4330.33
-4330.18
-4330.05
-4329.93
-4329.83
-4329.77
-4329.74
-4265.43
-4265.82
-4266.59
-4267.8
-4269.43
-4271.43
-4273.78
-4276.43
-4279.34
-4282.47
-4285.75
-4289.15
-4292.61
-4296.09
-4299.54
-4302.91
-4306.18
-4309.29
-4312.24
-4314.98
-4317.5
-4319.79
-4321.85
-4323.65
-4325.22
-4326.55
-4327.65
-4328.54
-4329.23
-4329.75
-4330.1
-4330.32
-4330.43
-4330.44
-4330.37
-4330.26
-4330.11
-4329.95
-4329.79
-4329.64
-4329.51
-4329.41
-4329.34
-4329.31
-4265.52
-4265.9
-4266.68
-4267.91
-4269.56
-4271.6
-4273.98
-4276.66
-4279.61
-4282.76
-4286.07
-4289.49
-4292.97
-4296.47
-4299.93
-4303.31
-4306.58
-4309.7
-4312.63
-4315.36
-4317.86
-4320.13
-4322.14
-4323.91
-4325.43
-4326.71
-4327.75
-4328.58
-4329.21
-4329.65
-4329.93
-4330.08
-4330.11
-4330.05
-4329.93
-4329.75
-4329.56
-4329.35
-4329.16
-4328.99
-4328.85
-4328.74
-4328.67
-4328.64
-4265.84
-4266.23
-4267.01
-4268.26
-4269.93
-4271.98
-4274.38
-4277.07
-4280.02
-4283.18
-4286.5
-4289.93
-4293.42
-4296.92
-4300.39
-4303.77
-4307.03
-4310.14
-4313.06
-4315.76
-4318.24
-4320.47
-4322.45
-4324.16
-4325.63
-4326.85
-4327.82
-4328.58
-4329.13
-4329.49
-4329.7
-4329.76
-4329.7
-4329.56
-4329.34
-4329.09
-4328.82
-4328.55
-4328.31
-4328.1
-4327.93
-4327.82
-4327.75
-4327.73
-4266.44
-4266.82
-4267.61
-4268.85
-4270.51
-4272.55
-4274.93
-4277.61
-4280.55
-4283.69
-4287.01
-4290.43
-4293.91
-4297.41
-4300.86
-4304.24
-4307.49
-4310.58
-4313.48
-4316.16
-4318.61
-4320.8
-4322.74
-4324.41
-4325.82
-4326.97
-4327.88
-4328.57
-4329.04
-4329.32
-4329.43
-4329.4
-4329.24
-4329
-4328.68
-4328.33
-4327.96
-4327.6
-4327.27
-4326.99
-4326.78
-4326.64
-4326.58
-4326.58
-4267.34
-4267.72
-4268.49
-4269.68
-4271.29
-4273.27
-4275.6
-4278.23
-4281.12
-4284.23
-4287.52
-4290.92
-4294.39
-4297.88
-4301.32
-4304.69
-4307.93
-4311
-4313.88
-4316.54
-4318.96
-4321.12
-4323.02
-4324.64
-4326
-4327.09
-4327.94
-4328.55
-4328.95
-4329.14
-4329.17
-4329.04
-4328.79
-4328.43
-4328.01
-4327.53
-4327.04
-4326.55
-4326.1
-4325.7
-4325.4
-4325.2
-4325.13
-4325.15
-4268.64
-4268.96
-4269.65
-4270.71
-4272.21
-4274.08
-4276.31
-4278.86
-4281.69
-4284.75
-4288
-4291.38
-4294.83
-4298.3
-4301.74
-4305.09
-4308.32
-4311.38
-4314.25
-4316.89
-4319.28
-4321.41
-4323.27
-4324.86
-4326.17
-4327.21
-4328
-4328.55
-4328.87
-4328.99
-4328.93
-4328.72
-4328.36
-4327.91
-4327.37
-4326.77
-4326.13
-4325.5
-4324.88
-4324.32
-4323.86
-4323.5
-4323.38
-4323.37
-4270.42
-4270.54
-4271.08
-4271.88
-4273.19
-4274.9
-4277
-4279.45
-4282.2
-4285.21
-4288.42
-4291.78
-4295.21
-4298.67
-4302.1
-4305.44
-4308.66
-4311.72
-4314.57
-4317.19
-4319.57
-4321.68
-4323.51
-4325.06
-4326.33
-4327.33
-4328.07
-4328.56
-4328.82
-4328.88
-4328.74
-4328.44
-4328
-4327.45
-4326.8
-4326.07
-4325.3
-4324.5
-4323.7
-4322.91
-4322.22
-4321.59
-4321.33
-4321.16
-4272.83
-4272.44
-4272.68
-4273.09
-4274.15
-4275.66
-4277.62
-4279.96
-4282.64
-4285.6
-4288.77
-4292.1
-4295.52
-4298.97
-4302.39
-4305.73
-4308.95
-4311.99
-4314.84
-4317.45
-4319.81
-4321.9
-4323.71
-4325.24
-4326.48
-4327.44
-4328.14
-4328.58
-4328.79
-4328.79
-4328.6
-4328.23
-4327.71
-4327.07
-4326.32
-4325.48
-4324.58
-4323.61
-4322.62
-4321.58
-4320.6
-4319.55
-4319.03
-4318.36
-4276.02
-4274.55
-4274.34
-4274.23
-4275.01
-4276.31
-4278.13
-4280.37
-4282.98
-4285.89
-4289.03
-4292.35
-4295.76
-4299.2
-4302.62
-4305.96
-4309.17
-4312.22
-4315.06
-4317.67
-4320.02
-4322.09
-4323.88
-4325.39
-4326.6
-4327.54
-4328.2
-4328.61
-4328.79
-4328.74
-4328.49
-4328.07
-4327.49
-4326.78
-4325.95
-4325.02
-4323.99
-4322.88
-4321.7
-4320.41
-4319.12
-4317.52
-4316.59
-4314.84
-4280.05
-4276.69
-4275.91
-4275.21
-4275.71
-4276.81
-4278.52
-4280.67
-4283.23
-4286.1
-4289.22
-4292.52
-4295.93
-4299.37
-4302.78
-4306.13
-4309.34
-4312.39
-4315.23
-4317.83
-4320.17
-4322.24
-4324.02
-4325.51
-4326.71
-4327.62
-4328.26
-4328.65
-4328.79
-4328.71
-4328.43
-4327.96
-4327.34
-4326.57
-4325.68
-4324.67
-4323.55
-4322.32
-4320.99
-4319.46
-4317.87
-4315.68
-4314.19
-4310.54
-4284.85
-4278.65
-4277.21
-4275.96
-4276.23
-4277.17
-4278.78
-4280.88
-4283.39
-4286.24
-4289.34
-4292.64
-4296.04
-4299.48
-4302.9
-4306.24
-4309.46
-4312.5
-4315.34
-4317.94
-4320.28
-4322.35
-4324.12
-4325.6
-4326.78
-4327.69
-4328.31
-4328.68
-4328.8
-4328.7
-4328.39
-4327.9
-4327.24
-4326.44
-4325.5
-4324.44
-4323.25
-4321.94
-4320.49
-4318.78
-4316.93
-4314.17
-4312.05
-4305.52
-4290.09
-4280.21
-4278.12
-4276.45
-4276.55
-4277.39
-4278.93
-4280.99
-4283.48
-4286.31
-4289.41
-4292.7
-4296.1
-4299.54
-4302.96
-4306.31
-4309.52
-4312.57
-4315.41
-4318.01
-4320.35
-4322.41
-4324.18
-4325.65
-4326.83
-4327.73
-4328.34
-4328.7
-4328.81
-4328.69
-4328.37
-4327.86
-4327.18
-4326.36
-4325.39
-4324.3
-4323.08
-4321.71
-4320.18
-4318.35
-4316.32
-4313.14
-4310.39
-4300.15
-4295.02
-4281.2
-4278.62
-4276.71
-4276.71
-4277.49
-4279.01
-4281.05
-4283.52
-4286.35
-4289.44
-4292.73
-4296.13
-4299.57
-4302.99
-4306.34
-4309.56
-4312.6
-4315.44
-4318.04
-4320.38
-4322.44
-4324.21
-4325.68
-4326.85
-4327.74
-4328.36
-4328.71
-4328.81
-4328.69
-4328.36
-4327.84
-4327.16
-4326.32
-4325.35
-4324.24
-4322.99
-4321.6
-4320.03
-4318.14
-4316.01
-4312.59
-4309.36
-4295.15
-4298.98
-4281.63
-4278.79
-4276.8
-4276.76
-4277.53
-4279.03
-4281.07
-4283.54
-4286.36
-4289.45
-4292.74
-4296.14
-4299.58
-4303
-4306.35
-4309.56
-4312.61
-4315.45
-4318.05
-4320.39
-4322.45
-4324.21
-4325.68
-4326.86
-4327.75
-4328.36
-4328.71
-4328.81
-4328.69
-4328.35
-4327.84
-4327.15
-4326.31
-4325.33
-4324.22
-4322.97
-4321.56
-4319.99
-4318.08
-4315.91
-4312.41
-4308.91
-4291.18
)
;

boundaryField
{
    movingWall
    {
        type            zeroGradient;
    }
    fixedWalls
    {
        type            zeroGradient;
    }
    frontAndBack
    {
        type            empty;
    }
    defaultFaces
    {
        type            empty;
    }
}


// ************************************************************************* //
