/*--------------------------------*- C++ -*----------------------------------*\
  =========                 |
  \\      /  F ield         | OpenFOAM: The Open Source CFD Toolbox
   \\    /   O peration     | Website:  https://openfoam.org
    \\  /    A nd           | Version:  7
     \\/     M anipulation  |
\*---------------------------------------------------------------------------*/
FoamFile
{
    version     2.0;
    format      ascii;
    class       volScalarField;
    location    "2.1";
    object      p;
}
// * * * * * * * * * * * * * * * * * * * * * * * * * * * * * * * * * * * * * //

dimensions      [0 2 -2 0 0 0 0];

internalField   nonuniform List<scalar> 
900
(
-1.28732e-08
-0.000124955
-0.000234363
-0.000304681
-0.000310831
-0.00024361
-0.000102989
0.000107719
0.000384418
0.000722934
0.00111899
0.00156791
0.00206429
0.00260169
0.00317245
0.00376752
0.00437644
0.00498733
0.00558702
0.00616129
0.00669517
0.00717338
0.00758092
0.00790391
0.00813082
0.00825442
0.0082754
0.00820849
0.00808888
0.00794725
0.000123691
-2.47217e-06
-7.8668e-05
-0.000114692
-9.90499e-05
-2.29445e-05
0.000115901
0.000316888
0.000578181
0.000897131
0.00127038
0.00169378
0.00216228
0.00266971
0.00320868
0.00377047
0.00434496
0.00492083
0.00548551
0.00602555
0.00652698
0.00697587
0.00735903
0.00766501
0.00788534
0.00801603
0.00806006
0.00803137
0.00794922
0.00780745
0.000236044
7.08347e-05
-7.41554e-06
-3.66936e-05
-1.55978e-05
6.25374e-05
0.000199537
0.000395173
0.000648343
0.000957133
0.00131879
0.00172967
0.0021851
0.00267923
0.00320496
0.0037538
0.00431595
0.00488014
0.005434
0.00596422
0.00645699
0.00689856
0.00727606
0.00757847
0.00779781
0.00793032
0.00797859
0.00795482
0.00786816
0.00768475
0.000310998
0.000100956
1.02782e-05
-2.17659e-05
-1.35974e-06
7.58575e-05
0.000210565
0.000402237
0.000650032
0.000952514
0.00130745
0.00171168
0.00216096
0.00264985
0.00317152
0.00371773
0.00427875
0.00484337
0.00539909
0.00593237
0.00642904
0.00687493
0.00725671
0.0075629
0.00778501
0.0079185
0.00796492
0.00793496
0.00783145
0.00759931
0.000319381
7.13553e-05
-3.30281e-05
-7.11056e-05
-5.40853e-05
2.07506e-05
0.000153042
0.000341879
0.000586545
0.000885968
0.00123838
0.00164111
0.00209036
0.00258109
0.00310679
0.0036594
0.00422922
0.00480491
0.00537361
0.00592121
0.00643274
0.00689309
0.00728785
0.00760447
0.00783338
0.007969
0.00801192
0.00797227
0.00784986
0.00757547
0.000246305
-3.28759e-05
-0.000150593
-0.000196048
-0.000183633
-0.000111651
1.87578e-05
0.000206368
0.00045055
0.00075056
0.00110507
0.00151189
0.00196771
0.0024679
0.00300626
0.00357489
0.00416408
0.00476217
0.00535572
0.00592968
0.00646787
0.00695363
0.0073709
0.00770543
0.00794614
0.00808623
0.00812562
0.00807487
0.00793313
0.00762197
8.52647e-05
-0.000220656
-0.000351047
-0.00040418
-0.000396578
-0.000327147
-0.000197577
-9.31148e-06
0.000237147
0.00054139
0.000902557
0.00131898
0.00178787
0.00230507
0.00286473
0.00345911
0.00407844
0.00471063
0.00534144
0.00595455
0.00653205
0.00705521
0.00750559
0.00786662
0.00812517
0.00827305
0.00830981
0.00824732
0.00808557
0.00773945
-0.000167395
-0.000498495
-0.000641241
-0.000701952
-0.000698859
-0.000631257
-0.000501247
-0.0003104
-5.90369e-05
0.000252834
0.000624881
0.00105604
0.00154414
0.00208556
0.00267493
0.00330472
0.0039651
0.00464353
0.00532475
0.00599086
0.00662175
0.00719587
0.00769164
0.00808933
0.00837313
0.00853308
0.00856861
0.00849365
0.00831009
0.00792679
-0.000515249
-0.000872472
-0.0010279
-0.00109615
-0.00109717
-0.0010306
-0.000898899
-0.000703734
-0.000445171
-0.000122741
0.000263857
0.000714282
0.00122712
0.00179948
0.00242657
0.00310129
0.0038138
0.00455116
0.00529699
0.00603151
0.00673185
0.00737288
0.00792884
0.00837575
0.0086941
0.00887162
0.00890759
0.00881885
0.00861004
0.00818352
-0.000962997
-0.00134918
-0.00151826
-0.00159427
-0.00159917
-0.00153298
-0.0013986
-0.00119779
-0.00093029
-0.000595069
-0.000191056
0.000282297
0.000824531
0.0014337
0.00210589
0.00283462
0.00361034
0.00441986
0.00524569
0.00606594
0.00685443
0.00758152
0.008216
0.00872807
0.00909309
0.00929538
0.00933387
0.00922915
0.00898971
0.00851033
-0.00151698
-0.00193634
-0.00212061
-0.00220492
-0.0022137
-0.00214756
-0.00200995
-0.00180273
-0.00152534
-0.00117603
-0.000752832
-0.000254094
0.000320932
0.000971564
0.0016951
0.00248612
0.00333573
0.00423093
0.00515325
0.00607865
0.00697716
0.00781359
0.00854964
0.00914761
0.00957549
0.00981245
0.00985636
0.00973246
0.00945459
0.00890864
-0.0021854
-0.00264327
-0.00284473
-0.00293817
-0.00295113
-0.00288505
-0.00274415
-0.00253052
-0.0022432
-0.00187969
-0.00143691
-0.000911903
-0.0003024
0.000392563
0.00117199
0.00203207
0.00296519
0.00395922
0.00499524
0.00604725
0.00708121
0.00805535
0.00892227
0.00963354
0.0101465
0.0104323
0.0104861
0.0103388
0.0100116
0.00937984
-0.00297842
-0.00348118
-0.00370227
-0.0038059
-0.00382353
-0.00375786
-0.00361416
-0.00339486
-0.00309867
-0.0027222
-0.00226113
-0.00171094
-0.00106752
-0.000327817
0.000509477
0.00144288
0.00246681
0.00357154
0.00473818
0.00593967
0.00713809
0.00828419
0.00931929
0.0101805
0.0108099
0.0111654
0.0112369
0.0110611
0.0106692
0.0099241
-0.00390834
-0.00446362
-0.00470711
-0.00482207
-0.00484495
-0.00478022
-0.00463464
-0.0044112
-0.0041083
-0.00372163
-0.00324549
-0.00267359
-0.00199967
-0.00121809
-0.000324616
0.00068245
0.00180041
0.0030247
0.00433681
0.0057105
0.00710505
0.00846359
0.00971405
0.0107746
0.0115649
0.0120227
0.012126
0.0119166
0.0114388
0.010539
-0.00498993
-0.00560693
-0.00587589
-0.00600317
-0.00603165
-0.0059683
-0.00582196
-0.00559651
-0.00529013
-0.00489758
-0.00441172
-0.00382433
-0.00312674
-0.00231039
-0.00136739
-0.000291505
0.000920688
0.0022642
0.00373079
0.00529605
0.00691861
0.00853528
0.0100594
0.0113853
0.0124014
0.0130125
0.0131742
0.0129289
0.012336
0.011218
-0.00624096
-0.00693102
-0.00722871
-0.00736874
-0.0074024
-0.00734031
-0.00719414
-0.00696907
-0.00666324
-0.00627056
-0.00578245
-0.00518874
-0.00447831
-0.00363941
-0.00266014
-0.00152908
-0.000236737
0.00122045
0.00284118
0.00460858
0.00648577
0.00840744
0.0102739
0.011952
0.0132876
0.0141347
0.0144057
0.014132
0.0133858
0.01195
-0.00768313
-0.00846064
-0.00879017
-0.0089421
-0.00897896
-0.0089166
-0.00877062
-0.00854802
-0.00824713
-0.0078611
-0.00738005
-0.00679207
-0.00608371
-0.00524018
-0.00424545
-0.0030825
-0.00173441
-0.000187347
0.00156899
0.00353077
0.00567342
0.00793837
0.0102202
0.0123592
0.0141483
0.0153649
0.0158428
0.0155745
0.0146308
0.0127219
-0.00934367
-0.0102273
-0.010591
-0.0107514
-0.0107865
-0.0107198
-0.010572
-0.0103527
-0.0100607
-0.00968837
-0.00922486
-0.00865688
-0.0079692
-0.00714463
-0.00616363
-0.00500398
-0.00364096
-0.00204874
-0.000203314
0.00191312
0.00429868
0.00691684
0.00967387
0.0123967
0.0148222
0.0166201
0.0174885
0.0173215
0.0161455
0.0135282
-0.011258
-0.0122722
-0.0126705
-0.0128312
-0.0128544
-0.0127746
-0.0126196
-0.0124019
-0.0121208
-0.0117683
-0.0113327
-0.0107998
-0.0101537
-0.00937614
-0.00844564
-0.00733668
-0.00601828
-0.00445346
-0.00260155
-0.000419032
0.00212795
0.00504727
0.00828939
0.0117036
0.0149912
0.0176903
0.0192801
0.0194434
0.0180556
0.014395
-0.0134743
-0.0146519
-0.0150801
-0.0152242
-0.0152166
-0.0151075
-0.0149341
-0.0147119
-0.0144405
-0.0141111
-0.0137114
-0.0132272
-0.0126431
-0.0119416
-0.0111025
-0.0101002
-0.00890217
-0.00746508
-0.00573295
-0.00363654
-0.00109829
0.00196221
0.00558751
0.00971966
0.0140931
0.0181295
0.0209954
0.0219727
0.0205561
0.0154312
-0.016062
-0.0174457
-0.0178888
-0.0179834
-0.0179116
-0.0177457
-0.0175337
-0.017294
-0.0170251
-0.0167167
-0.0163557
-0.0159286
-0.0154216
-0.0148211
-0.0141114
-0.0132726
-0.0122775
-0.0110862
-0.00963789
-0.00784044
-0.00558648
-0.00269303
0.0010295
0.00572179
0.0112942
0.0171602
0.0221299
0.0248229
0.0239202
0.0169412
-0.0191281
-0.0207703
-0.0211901
-0.0211739
-0.0209804
-0.0207123
-0.0204288
-0.0201484
-0.0198659
-0.0195678
-0.0192394
-0.0188675
-0.018442
-0.0179549
-0.0173995
-0.016768
-0.0160479
-0.015216
-0.0142272
-0.0129945
-0.0113443
-0.00905369
-0.00572646
-0.000901624
0.00571952
0.0137936
0.0218971
0.0277487
0.0285151
0.0196674
-0.022849
-0.0248019
-0.0251113
-0.0248716
-0.0244602
-0.0240178
-0.0236108
-0.0232519
-0.0229271
-0.0226162
-0.0223009
-0.0219682
-0.0216113
-0.0212299
-0.0208294
-0.0204194
-0.0200106
-0.0196098
-0.0192047
-0.0187339
-0.0180262
-0.0167745
-0.0144168
-0.010081
-0.00286972
0.00747146
0.0196724
0.0305643
0.0349287
0.0252485
-0.0275395
-0.0298133
-0.0298214
-0.0291529
-0.0283649
-0.0276364
-0.0270274
-0.0265321
-0.0261196
-0.0257575
-0.0254205
-0.0250938
-0.0247734
-0.0244666
-0.0241918
-0.0239781
-0.0238632
-0.0238911
-0.0240919
-0.0244535
-0.0248436
-0.0248614
-0.0238396
-0.0204947
-0.0132388
-0.000888076
0.0159873
0.033818
0.0444197
0.0368605
-0.0338027
-0.0362285
-0.0355248
-0.0340613
-0.0326413
-0.0314578
-0.030532
-0.0298177
-0.0292535
-0.0287868
-0.0283811
-0.0280161
-0.0276881
-0.0274101
-0.0272112
-0.0271374
-0.0272455
-0.0276199
-0.0283219
-0.0293745
-0.0306761
-0.0318366
-0.031944
-0.0294932
-0.0223178
-0.00813159
0.0135768
0.0398296
0.0598064
0.0596243
-0.0428835
-0.0446882
-0.042395
-0.0395088
-0.0370631
-0.0351809
-0.0337818
-0.0327435
-0.0319543
-0.0313295
-0.0308134
-0.0303752
-0.0300071
-0.0297227
-0.0295579
-0.0295711
-0.0298041
-0.0303999
-0.0314019
-0.0328329
-0.0345675
-0.0361704
-0.0365786
-0.0340522
-0.026197
-0.00954542
0.0173446
0.0534349
0.0861554
0.100154
-0.0577243
-0.0561215
-0.050395
-0.0450675
-0.0410303
-0.0381337
-0.0360838
-0.0346302
-0.0335786
-0.0327885
-0.0321723
-0.0316797
-0.0312915
-0.0310162
-0.0308868
-0.0309572
-0.031293
-0.0319803
-0.0330633
-0.0345105
-0.0361092
-0.0372982
-0.0368293
-0.0326924
-0.0219785
-0.00113733
0.0324413
0.0806144
0.129489
0.16692
-0.085838
-0.0713825
-0.0591443
-0.0498292
-0.0434488
-0.0392347
-0.0364447
-0.0346091
-0.0333858
-0.0325472
-0.0319524
-0.0315209
-0.0312172
-0.0310405
-0.0310167
-0.031191
-0.0316165
-0.0323371
-0.0333416
-0.0345006
-0.0354594
-0.0354716
-0.03301
-0.025776
-0.0103978
0.0172876
0.0611052
0.123676
0.19456
0.276569
-0.138268
-0.0864379
-0.0661233
-0.0510664
-0.0418074
-0.0364683
-0.0334033
-0.0316518
-0.030666
-0.0301244
-0.0298387
-0.0297057
-0.0296801
-0.0297572
-0.0299596
-0.0303246
-0.0308882
-0.0316574
-0.0325602
-0.0333597
-0.0335218
-0.0320516
-0.0274216
-0.0168331
0.00359735
0.0392035
0.0957593
0.179887
0.288211
0.459819
-0.309968
-0.0956459
-0.0480526
-0.0318273
-0.0241432
-0.0211864
-0.0207591
-0.0213557
-0.0222694
-0.0232337
-0.0241474
-0.0249767
-0.0257285
-0.0264366
-0.02715
-0.0279213
-0.0287887
-0.0297488
-0.0307074
-0.0314043
-0.0313045
-0.0294273
-0.024025
-0.0122195
0.0100133
0.0489912
0.113722
0.224092
0.399027
0.744291
)
;

boundaryField
{
    movingWall
    {
        type            zeroGradient;
    }
    fixedWalls
    {
        type            zeroGradient;
    }
    frontAndBack
    {
        type            empty;
    }
}


// ************************************************************************* //
