/*--------------------------------*- C++ -*----------------------------------*\
  =========                 |
  \\      /  F ield         | OpenFOAM: The Open Source CFD Toolbox
   \\    /   O peration     | Website:  https://openfoam.org
    \\  /    A nd           | Version:  7
     \\/     M anipulation  |
\*---------------------------------------------------------------------------*/
FoamFile
{
    version     2.0;
    format      ascii;
    class       surfaceScalarField;
    location    "2.1";
    object      phi;
}
// * * * * * * * * * * * * * * * * * * * * * * * * * * * * * * * * * * * * * //

dimensions      [0 3 -1 0 0 0 0];

internalField   nonuniform List<scalar> 
1740
(
1.48326e-07
-1.48312e-07
-1.16591e-06
1.31423e-06
-3.8405e-06
2.67459e-06
-7.3846e-06
3.5441e-06
-1.13619e-05
3.97726e-06
-1.54596e-05
4.09772e-06
-1.94785e-05
4.01894e-06
-2.32979e-05
3.81936e-06
-2.68411e-05
3.54325e-06
-3.00525e-05
3.21139e-06
-3.2884e-05
2.83152e-06
-3.52894e-05
2.4054e-06
-3.72225e-05
1.93303e-06
-3.86371e-05
1.41465e-06
-3.9489e-05
8.51845e-07
-3.9737e-05
2.48008e-07
-3.93458e-05
-3.91193e-07
-3.82883e-05
-1.05753e-06
-3.65486e-05
-1.73969e-06
-3.41258e-05
-2.42281e-06
-3.10383e-05
-3.08742e-06
-2.73309e-05
-3.70748e-06
-2.30839e-05
-4.24692e-06
-1.84296e-05
-4.65438e-06
-1.35729e-05
-4.85662e-06
-8.8191e-06
-4.75383e-06
-4.59258e-06
-4.22652e-06
-1.42601e-06
-3.16657e-06
1.29258e-07
-1.55527e-06
1.29257e-07
-1.31404e-06
1.16573e-06
-5.72719e-06
5.72738e-06
-1.2695e-05
9.64246e-06
-2.13839e-05
1.2233e-05
-3.09951e-05
1.35884e-05
-4.08955e-05
1.39981e-05
-5.06338e-05
1.37573e-05
-5.99038e-05
1.30893e-05
-6.84942e-05
1.21337e-05
-7.62484e-05
1.09655e-05
-8.3037e-05
9.62012e-06
-8.87441e-05
8.11256e-06
-9.32612e-05
6.45012e-06
-9.64858e-05
4.63924e-06
-9.83233e-05
2.68936e-06
-9.86899e-05
6.14567e-07
-9.75182e-05
-1.56285e-06
-9.47606e-05
-3.81517e-06
-9.03975e-05
-6.10276e-06
-8.44451e-05
-8.37525e-06
-7.69658e-05
-1.05667e-05
-6.80836e-05
-1.25897e-05
-5.80054e-05
-1.43251e-05
-4.70504e-05
-1.56094e-05
-3.56861e-05
-1.62209e-05
-2.45612e-05
-1.58787e-05
-1.45128e-05
-1.4275e-05
-6.51108e-06
-1.11683e-05
-1.48738e-06
-6.57897e-06
-1.35812e-06
-2.75744e-06
3.92317e-06
-9.91862e-06
1.28886e-05
-2.03652e-05
2.00891e-05
-3.29666e-05
2.48344e-05
-4.67067e-05
2.73285e-05
-6.07758e-05
2.80671e-05
-7.45792e-05
2.75607e-05
-8.76966e-05
2.62068e-05
-9.98277e-05
2.42648e-05
-0.000110745
2.18831e-05
-0.000120263
1.9138e-05
-0.000128218
1.60674e-05
-0.000134461
1.26929e-05
-0.000138855
9.03321e-06
-0.000141276
5.11104e-06
-0.00014162
9.58448e-07
-0.000139801
-3.38178e-06
-0.000135766
-7.85036e-06
-0.000129499
-1.23704e-05
-0.000121032
-1.68423e-05
-0.000110462
-2.11364e-05
-9.79695e-05
-2.5082e-05
-8.38452e-05
-2.84494e-05
-6.85249e-05
-3.09297e-05
-5.26298e-05
-3.2116e-05
-3.69994e-05
-3.15092e-05
-2.26954e-05
-2.8579e-05
-1.09455e-05
-2.29181e-05
-3.00355e-06
-1.45209e-05
-4.36167e-06
-3.81825e-06
7.74142e-06
-1.31453e-05
2.22156e-05
-2.63151e-05
3.32589e-05
-4.18936e-05
4.04129e-05
-5.86888e-05
4.41237e-05
-7.57773e-05
4.51556e-05
-9.24825e-05
4.42659e-05
-0.00010832
4.20447e-05
-0.000122939
3.88836e-05
-0.000136069
3.5013e-05
-0.000147489
3.05574e-05
-0.000157004
2.55829e-05
-0.000164441
2.01301e-05
-0.000169641
1.42334e-05
-0.000172463
7.93241e-06
-0.000172784
1.28003e-06
-0.000170511
-5.65554e-06
-0.000165581
-1.27796e-05
-0.000157981
-1.99712e-05
-0.00014775
-2.70732e-05
-0.000135005
-3.38812e-05
-0.00011996
-4.01266e-05
-0.000102958
-4.54519e-05
-8.45058e-05
-4.93818e-05
-6.53206e-05
-5.13012e-05
-4.63634e-05
-5.04664e-05
-2.88513e-05
-4.60911e-05
-1.42229e-05
-3.75465e-05
-4.05265e-06
-2.46912e-05
-8.41431e-06
-4.54748e-06
1.22889e-05
-1.55012e-05
3.31693e-05
-3.07629e-05
4.85206e-05
-4.86235e-05
5.82736e-05
-6.77332e-05
6.32333e-05
-8.7079e-05
6.45015e-05
-0.000105931
6.31177e-05
-0.000123768
5.98823e-05
-0.000140212
5.53274e-05
-0.000154969
4.97701e-05
-0.000167798
4.33859e-05
-0.000178486
3.62713e-05
-0.000186843
2.84869e-05
-0.000192694
2.00841e-05
-0.000195881
1.11199e-05
-0.00019627
1.66855e-06
-0.00019375
-8.17551e-06
-0.000188248
-1.82809e-05
-0.00017974
-2.84793e-05
-0.000168263
-3.85508e-05
-0.000153936
-4.82078e-05
-0.00013699
-5.70722e-05
-0.0001178
-6.46426e-05
-9.69234e-05
-7.0258e-05
-7.51533e-05
-7.30713e-05
-5.35545e-05
-7.20652e-05
-3.34881e-05
-6.61576e-05
-1.6596e-05
-5.44385e-05
-4.74745e-06
-3.65398e-05
-1.31618e-05
-5.0602e-06
1.73491e-05
-1.72606e-05
4.53697e-05
-3.41809e-05
6.54409e-05
-5.38764e-05
7.7969e-05
-7.48522e-05
8.42092e-05
-9.60147e-05
8.5664e-05
-0.00011659
8.36935e-05
-0.000136036
7.93274e-05
-0.000153956
7.32474e-05
-0.000170046
6.58605e-05
-0.000184054
5.73938e-05
-0.000195756
4.79737e-05
-0.000204949
3.768e-05
-0.000211444
2.65791e-05
-0.000215068
1.47433e-05
-0.000215665
2.26553e-06
-0.000213104
-1.0736e-05
-0.000207291
-2.40944e-05
-0.000198176
-3.75936e-05
-0.00018578
-5.09474e-05
-0.00017021
-6.37773e-05
-0.0001517
-7.55826e-05
-0.000130644
-8.56989e-05
-0.000107648
-9.3254e-05
-8.35817e-05
-9.71373e-05
-5.96268e-05
-9.60201e-05
-3.73038e-05
-8.84805e-05
-1.84663e-05
-7.32761e-05
-5.24982e-06
-4.97562e-05
-1.84116e-05
-5.46683e-06
2.28159e-05
-1.87125e-05
5.86154e-05
-3.70651e-05
8.37934e-05
-5.83747e-05
9.92786e-05
-8.10104e-05
0.000106845
-0.0001038
0.000108453
-0.000125928
0.000105822
-0.000146833
0.000100232
-0.000166111
9.25256e-05
-0.000183452
8.32016e-05
-0.000198598
7.25393e-05
-0.000211318
6.06932e-05
-0.000221397
4.77591e-05
-0.000228632
3.38141e-05
-0.000232829
1.89406e-05
-0.000233809
3.24509e-06
-0.000231408
-1.31365e-05
-0.000225497
-3.0006e-05
-0.000215988
-4.71018e-05
-0.000202867
-6.40691e-05
-0.000186213
-8.04308e-05
-0.000166249
-9.55468e-05
-0.000143384
-0.000108564
-0.000118274
-0.000118364
-9.18832e-05
-0.000123528
-6.55368e-05
-0.000122367
-4.09473e-05
-0.00011307
-2.02022e-05
-9.40212e-05
-5.69492e-06
-6.42635e-05
-2.41065e-05
-5.85038e-06
2.86663e-05
-2.00911e-05
7.28561e-05
-3.98257e-05
0.000103528
-6.27122e-05
0.000122165
-8.69858e-05
0.000131119
-0.000111394
0.000132861
-0.00013508
0.000129509
-0.000157465
0.000122617
-0.000178138
0.000113199
-0.000196787
0.000101851
-0.000213153
8.89046e-05
-0.000226998
7.45389e-05
-0.0002381
5.88609e-05
-0.000246238
4.19524e-05
-0.000251196
2.3898e-05
-0.000252759
4.80855e-06
-0.000250725
-1.51708e-05
-0.000244911
-3.582e-05
-0.000235176
-5.68365e-05
-0.000221448
-7.77975e-05
-0.00020376
-9.81181e-05
-0.000182308
-0.000116999
-0.000157509
-0.000133364
-0.000130075
-0.000145797
-0.00010109
-0.000152513
-7.20605e-05
-0.000151396
-4.49385e-05
-0.000140192
-2.20871e-05
-0.000116873
-6.17631e-06
-8.01743e-05
-3.02828e-05
-6.26489e-06
3.49312e-05
-2.15608e-05
8.8152e-05
-4.27591e-05
0.000124726
-6.73205e-05
0.000146726
-9.33407e-05
0.000157139
-0.000119482
0.000159003
-0.000144847
0.000154873
-0.000168835
0.000146606
-0.000191035
0.000135399
-0.000211136
0.000121951
-0.000228877
0.000106646
-0.000244022
8.96842e-05
-0.000256339
7.11777e-05
-0.000265591
5.12044e-05
-0.000271534
2.98409e-05
-0.000273915
7.18925e-06
-0.000272476
-1.66093e-05
-0.00026697
-4.13268e-05
-0.000257176
-6.66302e-05
-0.000242941
-9.20321e-05
-0.000224227
-0.000116833
-0.000201177
-0.000140049
-0.000174203
-0.000160337
-0.000144083
-0.000175918
-0.000112043
-0.000184553
-7.98235e-05
-0.000183616
-4.96838e-05
-0.000170332
-2.43285e-05
-0.000142228
-6.75386e-06
-9.7749e-05
-3.70367e-05
-6.74345e-06
4.16746e-05
-2.32298e-05
0.000104638
-4.60657e-05
0.000147562
-7.24932e-05
0.000173154
-0.000100456
0.000185101
-0.000128524
0.000187071
-0.000155754
0.000182103
-0.000181532
0.000172383
-0.000205442
0.000159309
-0.000227182
0.000143691
-0.000246496
0.000125961
-0.000263152
0.00010634
-0.000276912
8.49373e-05
-0.000287524
6.18171e-05
-0.000294717
3.70337e-05
-0.000298191
1.06637e-05
-0.000297626
-1.71745e-05
-0.000292686
-4.62671e-05
-0.000283049
-7.62673e-05
-0.000268447
-0.000106634
-0.000248729
-0.00013655
-0.000223955
-0.000164823
-0.000194509
-0.000189783
-0.000161225
-0.000209202
-0.000125506
-0.000220272
-8.93915e-05
-0.00021973
-5.55386e-05
-0.000204185
-2.70954e-05
-0.000170671
-7.4693e-06
-0.000117375
-4.4506e-05
-7.307e-06
4.89816e-05
-2.51704e-05
0.000122502
-4.98818e-05
0.000172274
-7.84308e-05
0.000201703
-0.000108588
0.000215258
-0.000138822
0.000217306
-0.000168143
0.000211424
-0.000195922
0.000200162
-0.00022175
0.000185137
-0.000245335
0.000167276
-0.000266437
0.000147063
-0.000284832
0.000124735
-0.000300286
0.000100391
-0.000312538
7.40688e-05
-0.000321288
4.5784e-05
-0.00032619
1.55659e-05
-0.000326849
-1.6516e-05
-0.000322822
-5.02939e-05
-0.000313654
-8.54351e-05
-0.00029892
-0.000121369
-0.000278305
-0.000157165
-0.00025173
-0.000191398
-0.000219503
-0.000222011
-0.000182498
-0.000246206
-0.000142321
-0.000260449
-0.00010139
-0.000260662
-6.28901e-05
-0.000242684
-3.05639e-05
-0.000202997
-8.36122e-06
-0.000139578
-5.28672e-05
-7.97147e-06
5.69531e-05
-2.74385e-05
0.000141969
-5.43124e-05
0.000199148
-8.52842e-05
0.000232675
-0.000117924
0.000247899
-0.000150591
0.000249972
-0.000182243
0.000243075
-0.000212244
0.000230163
-0.000240197
0.000213091
-0.000265833
0.000192912
-0.000288937
0.000170168
-0.000309306
0.000145104
-0.000326719
0.000117804
-0.000340917
8.8266e-05
-0.000351579
5.64464e-05
-0.000358314
2.23006e-05
-0.000360646
-1.41841e-05
-0.000358007
-5.29325e-05
-0.000349774
-9.36679e-05
-0.000335311
-0.000135832
-0.000314068
-0.000178408
-0.00028574
-0.000219727
-0.00025048
-0.000257271
-0.000209155
-0.00028753
-0.00016358
-0.000306024
-0.000116649
-0.000307593
-7.22584e-05
-0.000287075
-3.49695e-05
-0.000240286
-9.47969e-06
-0.000165068
-6.23469e-05
-8.75299e-06
6.57061e-05
-3.00886e-05
0.000163304
-5.94566e-05
0.000228516
-9.31913e-05
0.000266409
-0.000128631
0.000283338
-0.000164007
0.000285348
-0.000198232
0.0002773
-0.000230666
0.000262597
-0.000260938
0.000243363
-0.000288813
0.000220787
-0.000314118
0.000195472
-0.000336685
0.000167671
-0.000356326
0.000137445
-0.000372796
0.000104736
-0.000385773
6.94229e-05
-0.000394826
3.13539e-05
-0.000399406
-9.60413e-06
-0.000398801
-5.35374e-05
-0.000392187
-0.000100282
-0.000378652
-0.000149367
-0.000357316
-0.000199744
-0.000327525
-0.000249518
-0.000289143
-0.000295652
-0.000242919
-0.000333755
-0.00019085
-0.000358093
-0.000136405
-0.000362038
-8.44382e-05
-0.000339042
-4.06805e-05
-0.000284044
-1.09051e-05
-0.000194843
-7.3252e-05
-9.67199e-06
7.53781e-05
-3.31865e-05
0.000186819
-6.54294e-05
0.000260759
-0.000102306
0.000303286
-0.000140882
0.000321914
-0.000179251
0.000323717
-0.000216277
0.000314326
-0.000251332
0.000297652
-0.000284084
0.000276115
-0.000314353
0.000251056
-0.000342022
0.000223141
-0.000366986
0.000192635
-0.000389107
0.000159566
-0.000408185
0.000123814
-0.000423916
8.51542e-05
-0.000435856
4.32938e-05
-0.000443402
-2.05836e-06
-0.000445687
-5.12525e-05
-0.000441666
-0.000104303
-0.000430083
-0.000160949
-0.000409607
-0.000220219
-0.00037906
-0.000280065
-0.000337801
-0.000336911
-0.000286253
-0.000385303
-0.000226474
-0.000417872
-0.000162581
-0.000425931
-0.000100717
-0.000400906
-4.83151e-05
-0.000336446
-1.27796e-05
-0.000230379
-8.60315e-05
-1.07572e-05
8.61353e-05
-3.68208e-05
0.000212883
-7.23812e-05
0.000296319
-0.000112823
0.000343727
-0.000154892
0.000363984
-0.00019653
0.000365355
-0.000236562
0.000354358
-0.000274386
0.000335477
-0.00030973
0.000311458
-0.000342489
0.000283815
-0.000372631
0.000253283
-0.000400136
0.000220139
-0.00042495
0.000184381
-0.000446951
0.000145814
-0.000465895
0.000104098
-0.000481366
5.87651e-05
-0.000492714
9.28959e-06
-0.000498995
-4.49714e-05
-0.000498905
-0.000104394
-0.000490791
-0.000169062
-0.000472737
-0.000238273
-0.00044281
-0.000309992
-0.000399538
-0.000380183
-0.000342646
-0.000442196
-0.000273957
-0.000486561
-0.000198203
-0.000501685
-0.000123209
-0.0004759
-5.89329e-05
-0.000400722
-1.53625e-05
-0.000273949
-0.000101394
-1.2051e-05
9.81863e-05
-4.1118e-05
0.000241949
-8.05195e-05
0.00033572
-0.000125002
0.00038821
-0.00017094
0.000409921
-0.000216109
0.000410525
-0.000259309
0.000397558
-0.000299989
0.000376156
-0.00033796
0.00034943
-0.000373224
0.000319078
-0.000405857
0.000285917
-0.000435959
0.000250241
-0.000463598
0.00021202
-0.000488772
0.000170988
-0.00051135
0.000126677
-0.00053101
7.84252e-05
-0.000547127
2.54066e-05
-0.000558735
-3.33641e-05
-0.000564311
-9.8818e-05
-0.000561788
-0.000171585
-0.000548539
-0.000251522
-0.0005216
-0.000336931
-0.000478209
-0.000423574
-0.000416784
-0.00050362
-0.000338318
-0.000565027
-0.000247862
-0.000592141
-0.000155302
-0.00056846
-7.43227e-05
-0.000481701
-1.91217e-05
-0.00032915
-0.000120516
-1.36169e-05
0.000111803
-4.62614e-05
0.000274594
-9.01374e-05
0.000379596
-0.000139202
0.000437275
-0.000189395
0.000460114
-0.000238325
0.000459454
-0.00028479
0.000444023
-0.000328321
0.000419687
-0.00036885
0.000389959
-0.00040651
0.000356739
-0.000441524
0.000320931
-0.00047414
0.000282857
-0.00050459
0.00024247
-0.000533046
0.000199444
-0.00055956
0.000153191
-0.000583985
0.000102849
-0.000605849
4.72712e-05
-0.000624248
-1.49649e-05
-0.000637568
-8.54981e-05
-0.000643381
-0.000165773
-0.000638284
-0.000256618
-0.000618002
-0.000357213
-0.000577909
-0.000463668
-0.000514229
-0.0005673
-0.00042607
-0.000653186
-0.000318006
-0.000700205
-0.000202106
-0.000684359
-9.73596e-05
-0.000586448
-2.48655e-05
-0.000401644
-0.000145381
-1.55521e-05
0.000127355
-5.25219e-05
0.000311564
-0.000101652
0.000428726
-0.000155914
0.000491537
-0.000210746
0.000514946
-0.000263603
0.000512312
-0.000313325
0.000493745
-0.00035957
0.000465932
-0.000402431
0.00043282
-0.000442207
0.000396515
-0.000479296
0.00035802
-0.000514131
0.000317692
-0.000547145
0.000275485
-0.000578739
0.000231038
-0.000609222
0.000183674
-0.000638731
0.000132358
-0.000667086
7.56264e-05
-0.000693632
1.15811e-05
-0.000716853
-6.22772e-05
-0.000734144
-0.000148482
-0.000741387
-0.000249375
-0.000732816
-0.000365784
-0.000701347
-0.000495137
-0.00063989
-0.000628757
-0.000544077
-0.000748999
-0.000416407
-0.000827875
-0.000270511
-0.000830255
-0.00013231
-0.000724649
-3.39076e-05
-0.000500046
-0.000179289
-1.80097e-05
0.000145365
-6.03031e-05
0.000353857
-0.000115657
0.00048408
-0.000175801
0.000551682
-0.000235619
0.000574763
-0.000292452
0.000569145
-0.00034525
0.000546544
-0.000393867
0.000514548
-0.000438601
0.000477554
-0.000479956
0.000437871
-0.000518529
0.000396593
-0.000554962
0.000354125
-0.000589924
0.000310447
-0.000624085
0.000265198
-0.00065808
0.000217669
-0.000692435
0.000166713
-0.000727433
0.000110624
-0.000762831
4.69799e-05
-0.000797601
-2.75075e-05
-0.000829226
-0.000116858
-0.00085316
-0.000225441
-0.000862213
-0.000356731
-0.000846465
-0.000510885
-0.000794415
-0.000680807
-0.000696255
-0.000847159
-0.000549806
-0.000974324
-0.000368158
-0.0010119
-0.000184814
-0.000907994
-4.82553e-05
-0.000636605
-0.000227544
-2.12357e-05
0.000166601
-7.02142e-05
0.000402836
-0.000132993
0.000546859
-0.000199745
0.000618433
-0.000264768
0.000639786
-0.000325391
0.000629769
-0.000380792
0.000601944
-0.000431102
0.000564858
-0.000476886
0.000523338
-0.000518883
0.000479868
-0.000557911
0.000435621
-0.000594833
0.000391047
-0.000630559
0.000346173
-0.000666047
0.000300686
-0.000702291
0.000253913
-0.000740277
0.000204699
-0.000780861
0.000151208
-0.000824519
9.06382e-05
-0.000870896
1.8869e-05
-0.000918111
-6.96419e-05
-0.000961725
-0.000181826
-0.000993624
-0.000324833
-0.00100126
-0.000503253
-0.000968196
-0.000713867
-0.000877435
-0.00093792
-0.000718764
-0.00113299
-0.000500398
-0.00123027
-0.000261134
-0.00114726
-7.08387e-05
-0.000826899
-0.000298383
-2.56405e-05
0.000192241
-8.31837e-05
0.000460379
-0.000154838
0.000618513
-0.000228843
0.000692438
-0.000298977
0.00070992
-0.00036275
0.000693542
-0.000419744
0.000658937
-0.000470491
0.000615606
-0.000515889
0.000568736
-0.000556948
0.000520928
-0.000594714
0.000473387
-0.000630266
0.000426599
-0.000664738
0.000380644
-0.000699346
0.000335294
-0.000735416
0.000289984
-0.000774377
0.00024366
-0.000817688
0.000194519
-0.000866635
0.000139584
-0.000921883
7.41172e-05
-0.000982515
-9.00976e-06
-0.00104513
-0.00011921
-0.00110172
-0.000268239
-0.00113834
-0.000466638
-0.00113447
-0.000717732
-0.00106545
-0.00100694
-0.000909924
-0.00128852
-0.000664647
-0.00147555
-0.000366037
-0.00144587
-0.000105753
-0.00108718
-0.000404136
-3.19333e-05
0.000224174
-0.00010064
0.000529086
-0.000182788
0.000700661
-0.000264322
0.000773972
-0.000338753
0.00078435
-0.000404133
0.000758923
-0.000460719
0.000715523
-0.000509611
0.000664498
-0.000552129
0.000611254
-0.000589594
0.000558392
-0.00062329
0.000507084
-0.000654495
0.000457803
-0.000684518
0.000410667
-0.000714759
0.000365535
-0.000746762
0.000321986
-0.000782259
0.000279157
-0.00082317
0.00023543
-0.000871481
0.000187895
-0.000928902
0.000131539
-0.000996019
5.81069e-05
-0.0010709
-4.43254e-05
-0.00114762
-0.000191518
-0.00121317
-0.00040109
-0.00124587
-0.000685038
-0.00121543
-0.00103738
-0.00108833
-0.00141563
-0.000842657
-0.00172122
-0.000498321
-0.0017902
-0.000158009
-0.0014275
-0.000562145
-4.13926e-05
0.000265567
-0.000124797
0.000612491
-0.000218883
0.000794746
-0.000307166
0.000862255
-0.000383532
0.000860717
-0.000447207
0.000822597
-0.000499537
0.000767853
-0.000542423
0.000707385
-0.000577739
0.00064657
-0.000607188
0.000587841
-0.000632323
0.000532218
-0.000654602
0.000480083
-0.000675454
0.000431518
-0.000696342
0.000386423
-0.000718846
0.000344491
-0.000744745
0.000305056
-0.000776083
0.000266768
-0.000815178
0.00022699
-0.000864471
0.000180832
-0.000926156
0.000119792
-0.00100026
2.97784e-05
-0.00108467
-0.00010711
-0.00117062
-0.000315135
-0.00124003
-0.000615633
-0.00126242
-0.00101499
-0.00119516
-0.00148288
-0.000993545
-0.00192283
-0.000643315
-0.00214043
-0.000231249
-0.00183956
-0.000793394
-5.64112e-05
0.000321978
-0.000159063
0.000715143
-0.000265367
0.00090105
-0.000357053
0.000953941
-0.0004298
0.000933464
-0.000485073
0.000877871
-0.000525937
0.000808717
-0.00055545
0.000736898
-0.00057625
0.00066737
-0.00059055
0.000602141
-0.00060023
0.000541899
-0.000606933
0.000486786
-0.000612144
0.000436729
-0.000617265
0.000391544
-0.000623702
0.000350928
-0.000632966
0.00031432
-0.00064679
0.000280591
-0.000667276
0.000247476
-0.000696993
0.000210549
-0.000738914
0.000161712
-0.00079645
8.73144e-05
-0.000870351
-3.32079e-05
-0.000960117
-0.00022537
-0.00105639
-0.00051936
-0.00113643
-0.000934946
-0.00115689
-0.00146242
-0.00105354
-0.00202618
-0.000764781
-0.00242919
-0.00032159
-0.00228275
-0.00111498
-8.15796e-05
0.000403558
-0.000208458
0.000842021
-0.000323483
0.00101607
-0.000409439
0.0010399
-0.000466671
0.000990696
-0.00050065
0.000911849
-0.000517108
0.000825176
-0.000520792
0.000740582
-0.000515402
0.00066198
-0.000503811
0.00059055
-0.000488276
0.000526363
-0.000470592
0.000469103
-0.000452212
0.000418349
-0.000434337
0.000373669
-0.000418012
0.000334603
-0.000404232
0.00030054
-0.000394058
0.000270417
-0.000388884
0.000242302
-0.000390749
0.000212414
-0.000402739
0.000173703
-0.000429564
0.00011414
-0.000477158
1.43858e-05
-0.000551641
-0.000150887
-0.00065677
-0.000414231
-0.000785286
-0.000806431
-0.000905815
-0.00134189
-0.000948002
-0.001984
-0.000803094
-0.0025741
-0.000408668
-0.00267718
-0.00152365
-0.000125713
0.000529271
-0.00027904
0.000995349
-0.000388718
0.00112575
-0.000447285
0.00109846
-0.000465141
0.00100855
-0.000454511
0.000901218
-0.000425078
0.000795743
-0.000383828
0.000699331
-0.000335682
0.000613834
-0.000284099
0.000538966
-0.000231517
0.000473782
-0.000179649
0.000417235
-0.000129669
0.000368369
-8.23532e-05
0.000326353
-3.81863e-05
0.000290436
2.5371e-06
0.000259817
3.94902e-05
0.000233464
7.21914e-05
0.000209601
9.95331e-05
0.000185073
0.000118939
0.000154297
0.000125407
0.000107671
0.000109945
2.98476e-05
6.07108e-05
-0.000101652
-3.59593e-05
-0.000317561
-0.000191604
-0.000650787
-0.000401187
-0.00113231
-0.000612267
-0.00177291
-0.000685054
-0.00250131
-0.000452614
-0.00290962
-0.00197627
-0.000205203
0.000734474
-0.000369859
0.00116
-0.000431969
0.00118786
-0.000415751
0.00108225
-0.000350387
0.000943187
-0.000257886
0.000808717
-0.000152312
0.000690169
-4.23927e-05
0.000589412
6.66506e-05
0.000504791
0.000171727
0.00043389
0.000271085
0.000374423
0.000363843
0.000324477
0.000449686
0.000282526
0.000528691
0.000247348
0.000601196
0.00021793
0.000667691
0.000193322
0.00072871
0.000172446
0.000784552
0.000153759
0.000834858
0.000134767
0.00087785
0.000111305
0.000908971
7.65503e-05
0.000918689
2.01292e-05
0.000892945
-7.59084e-05
0.000809101
-0.000233717
0.000640442
-0.000482128
0.000367983
-0.000859853
9.83548e-06
-0.00141477
-0.000337662
-0.00215382
-0.000399637
-0.00284765
-0.0023759
-0.000333934
0.00106841
-0.000415168
0.00124124
-0.000323865
0.00109656
-0.000144718
0.000903101
6.7007e-05
0.000731462
0.000283559
0.000592165
0.000491265
0.000482464
0.000684236
0.000396441
0.000860418
0.000328608
0.00101966
0.000274648
0.00116273
0.000231354
0.00129084
0.000196372
0.00140539
0.000167971
0.00150788
0.00014486
0.00159978
0.000126028
0.0016825
0.000110607
0.00175724
9.77014e-05
0.00182482
8.61756e-05
0.00188527
7.43163e-05
0.00193716
5.94232e-05
0.00197627
3.74361e-05
0.00199316
3.24197e-06
0.00197371
-5.64602e-05
0.00189276
-0.00015277
0.00171589
-0.000305256
0.00140127
-0.000545233
0.000912487
-0.000925983
0.000312417
-0.00155375
-0.000127078
-0.00240815
-0.00250298
-0.000294046
0.00136245
-2.99269e-05
0.00097712
0.000411557
0.000655075
0.000838591
0.000476067
0.00121964
0.000350413
0.00155078
0.000261025
0.00183494
0.000198307
0.00207759
0.00015379
0.00228477
0.000121426
0.00246204
9.73789e-05
0.00261419
7.92066e-05
0.00274527
6.52885e-05
0.00285872
5.45188e-05
0.00295745
4.61265e-05
0.00304393
3.95487e-05
0.00312021
3.43312e-05
0.00318787
3.0039e-05
0.00324789
2.61573e-05
0.00330023
2.19764e-05
0.00334319
1.64667e-05
0.00337244
8.18022e-06
0.00338146
-5.78066e-06
0.00335457
-2.95679e-05
0.00326892
-6.71172e-05
0.00308921
-0.000125552
0.00276527
-0.000221283
0.00222911
-0.000389823
0.00142571
-0.000750347
0.000478737
-0.00146118
-0.00202424
0.00136245
0.00233957
0.00299465
0.00347072
0.00382113
0.00408215
0.00428046
0.00443425
0.00455568
0.00465306
0.00473226
0.00479755
0.00485207
0.0048982
0.00493775
0.00497208
0.00500212
0.00502827
0.00505025
0.00506672
0.0050749
0.00506912
0.00503955
0.00497243
0.00484688
0.0046256
0.00423577
0.00348543
0.00202424
)
;

boundaryField
{
    movingWall
    {
        type            calculated;
        value           uniform 0;
    }
    fixedWalls
    {
        type            calculated;
        value           uniform 0;
    }
    frontAndBack
    {
        type            empty;
        value           nonuniform 0();
    }
}


// ************************************************************************* //
