/*--------------------------------*- C++ -*----------------------------------*\
  =========                 |
  \\      /  F ield         | OpenFOAM: The Open Source CFD Toolbox
   \\    /   O peration     | Website:  https://openfoam.org
    \\  /    A nd           | Version:  7
     \\/     M anipulation  |
\*---------------------------------------------------------------------------*/
FoamFile
{
    version     2.0;
    format      ascii;
    class       volVectorField;
    location    "2.1";
    object      U;
}
// * * * * * * * * * * * * * * * * * * * * * * * * * * * * * * * * * * * * * //

dimensions      [0 1 -1 0 0 0 0];

internalField   nonuniform List<vector> 
900
(
(5.37918e-05 -5.31625e-05 0)
(-1.94635e-05 3.12945e-05 0)
(-0.000379244 0.000117768 0)
(-0.000914012 0.000170125 0)
(-0.00155271 0.000194076 0)
(-0.00223442 0.000199558 0)
(-0.00291669 0.00019467 0)
(-0.00357364 0.000184421 0)
(-0.00418977 0.000171243 0)
(-0.00475466 0.000156005 0)
(-0.00525999 0.000138818 0)
(-0.00569806 0.000119516 0)
(-0.00606119 9.7896e-05 0)
(-0.00634168 7.3817e-05 0)
(-0.00653194 4.72437e-05 0)
(-0.0066248 1.82651e-05 0)
(-0.00661381 -1.28846e-05 0)
(-0.00649368 -4.58523e-05 0)
(-0.00626071 -8.00956e-05 0)
(-0.00591337 -0.000114888 0)
(-0.00545293 -0.000149273 0)
(-0.00488438 -0.000181959 0)
(-0.00421772 -0.000211104 0)
(-0.00347003 -0.000233932 0)
(-0.00266866 -0.000246148 0)
(-0.00185567 -0.000241294 0)
(-0.00109216 -0.000210757 0)
(-0.000456647 -0.000145456 0)
(-3.15567e-05 -4.1814e-05 0)
(5.92272e-05 5.7274e-05 0)
(-3.0003e-05 1.85072e-05 0)
(-0.000452789 0.000450865 0)
(-0.00144873 0.000844524 0)
(-0.00279109 0.00110179 0)
(-0.00434324 0.00123341 0)
(-0.00599 0.00127211 0)
(-0.00764124 0.00124962 0)
(-0.00923521 0.00118875 0)
(-0.0107306 0.00110298 0)
(-0.0120982 0.000998984 0)
(-0.0133148 0.000879535 0)
(-0.0143603 0.000745517 0)
(-0.0152163 0.000597181 0)
(-0.0158651 0.000434796 0)
(-0.0162902 0.00025899 0)
(-0.0164766 7.09204e-05 0)
(-0.0164116 -0.000127634 0)
(-0.0160852 -0.00033401 0)
(-0.0154917 -0.000544684 0)
(-0.0146305 -0.000755033 0)
(-0.0135076 -0.000958994 0)
(-0.0121379 -0.00114847 0)
(-0.0105481 -0.00131234 0)
(-0.0087806 -0.00143493 0)
(-0.0068996 -0.00149438 0)
(-0.00499757 -0.00146178 0)
(-0.0031993 -0.00130385 0)
(-0.00165161 -0.000992555 0)
(-0.000513275 -0.000528009 0)
(-3.35469e-05 -2.92469e-05 0)
(-0.000120194 0.000381002 0)
(-0.00087275 0.00145326 0)
(-0.00240802 0.00234849 0)
(-0.00438129 0.00294348 0)
(-0.00661248 0.00325748 0)
(-0.0089577 0.0033531 0)
(-0.0113006 0.00329573 0)
(-0.0135582 0.00313594 0)
(-0.0156725 0.00290614 0)
(-0.0176012 0.00262433 0)
(-0.019311 0.00229941 0)
(-0.0207731 0.00193549 0)
(-0.0219617 0.00153473 0)
(-0.0228531 0.00109902 0)
(-0.0234254 0.000630855 0)
(-0.0236594 0.000133873 0)
(-0.023539 -0.000386804 0)
(-0.0230523 -0.000924078 0)
(-0.0221932 -0.00146868 0)
(-0.0209627 -0.00200857 0)
(-0.0193709 -0.00252806 0)
(-0.0174401 -0.00300635 0)
(-0.0152082 -0.00341539 0)
(-0.0127341 -0.00371691 0)
(-0.0101044 -0.0038599 0)
(-0.00744042 -0.00378085 0)
(-0.00490136 -0.00341172 0)
(-0.00267009 -0.002701 0)
(-0.000955019 -0.00165434 0)
(-0.000127601 -0.000432461 0)
(-0.000181882 0.000941716 0)
(-0.00118917 0.00285453 0)
(-0.00315314 0.00435317 0)
(-0.00561391 0.00533538 0)
(-0.00835388 0.00585021 0)
(-0.0112095 0.00599974 0)
(-0.0140491 0.00588808 0)
(-0.0167777 0.00559676 0)
(-0.019328 0.00517963 0)
(-0.02165 0.00466797 0)
(-0.0237039 0.00407834 0)
(-0.0254556 0.00341927 0)
(-0.0268748 0.00269582 0)
(-0.0279337 0.00191232 0)
(-0.0286072 0.00107389 0)
(-0.0288731 0.000187447 0)
(-0.0287133 -0.000737606 0)
(-0.0281143 -0.00168878 0)
(-0.0270695 -0.00264973 0)
(-0.0255803 -0.00359931 0)
(-0.0236592 -0.00451006 0)
(-0.0213326 -0.00534585 0)
(-0.0186456 -0.00605839 0)
(-0.0156672 -0.00658308 0)
(-0.0124977 -0.00683569 0)
(-0.00927658 -0.0067138 0)
(-0.00618545 -0.00610936 0)
(-0.00343332 -0.00493869 0)
(-0.00127092 -0.00319371 0)
(-0.000186476 -0.00103442 0)
(-0.000220161 0.00164709 0)
(-0.00141249 0.00456136 0)
(-0.00370505 0.00674277 0)
(-0.00654098 0.00814385 0)
(-0.00966893 0.00886488 0)
(-0.0129085 0.00905861 0)
(-0.0161171 0.00887321 0)
(-0.0191926 0.00842377 0)
(-0.0220626 0.0077869 0)
(-0.0246733 0.00700805 0)
(-0.026981 0.00611216 0)
(-0.0289486 0.00511274 0)
(-0.0305428 0.00401821 0)
(-0.0317332 0.00283573 0)
(-0.0324919 0.00157341 0)
(-0.0327945 0.000241726 0)
(-0.0326202 -0.00114534 0)
(-0.0319535 -0.00256933 0)
(-0.0307856 -0.00400613 0)
(-0.0291168 -0.00542447 0)
(-0.0269596 -0.00678367 0)
(-0.0243418 -0.0080303 0)
(-0.0213123 -0.00909348 0)
(-0.017947 -0.00987939 0)
(-0.0143564 -0.0102673 0)
(-0.0106947 -0.0101118 0)
(-0.00716387 -0.00925897 0)
(-0.00399825 -0.00758294 0)
(-0.0014882 -0.00504391 0)
(-0.00021965 -0.00177542 0)
(-0.000244138 0.00245286 0)
(-0.0015734 0.00650147 0)
(-0.00412345 0.00943702 0)
(-0.00725967 0.0112862 0)
(-0.0107005 0.0122177 0)
(-0.0142495 0.0124461 0)
(-0.0177545 0.0121699 0)
(-0.0211084 0.0115406 0)
(-0.0242361 0.0106591 0)
(-0.0270813 0.00958555 0)
(-0.0295989 0.00835341 0)
(-0.0317498 0.00698133 0)
(-0.0334987 0.00548112 0)
(-0.034813 0.00386266 0)
(-0.0356624 0.0021369 0)
(-0.0360195 0.000317732 0)
(-0.03586 -0.00157642 0)
(-0.0351647 -0.00352112 0)
(-0.0339211 -0.0054842 0)
(-0.0321258 -0.00742356 0)
(-0.0297885 -0.00928404 0)
(-0.0269363 -0.010993 0)
(-0.0236197 -0.012454 0)
(-0.0199198 -0.0135407 0)
(-0.0159574 -0.0140914 0)
(-0.0119027 -0.0139122 0)
(-0.00798027 -0.0127965 0)
(-0.00445324 -0.0105668 0)
(-0.00165078 -0.00713935 0)
(-0.000239408 -0.00261225 0)
(-0.000261622 0.00333224 0)
(-0.00170293 0.00862648 0)
(-0.00447238 0.0123816 0)
(-0.00787066 0.0147082 0)
(-0.0115885 0.0158564 0)
(-0.0154138 0.0161126 0)
(-0.019185 0.0157318 0)
(-0.0227906 0.0149057 0)
(-0.0261534 0.0137606 0)
(-0.0292162 0.0123721 0)
(-0.0319331 0.0107822 0)
(-0.0342639 0.00901451 0)
(-0.0361719 0.00708376 0)
(-0.0376224 0.00500211 0)
(-0.0385822 0.00278269 0)
(-0.0390201 0.000442175 0)
(-0.0389071 -0.00199722 0)
(-0.0382184 -0.00450557 0)
(-0.0369351 -0.00704277 0)
(-0.0350478 -0.00955544 0)
(-0.0325606 -0.0119726 0)
(-0.0294969 -0.0142 0)
(-0.0259071 -0.0161122 0)
(-0.0218775 -0.0175451 0)
(-0.0175406 -0.0182899 0)
(-0.0130863 -0.0180973 0)
(-0.00876747 -0.0167002 0)
(-0.00488108 -0.0138618 0)
(-0.0017972 -0.00944848 0)
(-0.000254896 -0.00352444 0)
(-0.000277931 0.00427517 0)
(-0.00182521 0.0109165 0)
(-0.00480466 0.0155545 0)
(-0.00845737 0.0183897 0)
(-0.0124474 0.0197635 0)
(-0.0165464 0.0200434 0)
(-0.0205836 0.0195471 0)
(-0.0244428 0.0185102 0)
(-0.0280453 0.0170865 0)
(-0.0313335 0.0153674 0)
(-0.0342612 0.0134036 0)
(-0.0367878 0.011223 0)
(-0.0388753 0.00884274 0)
(-0.0404871 0.00627637 0)
(-0.0415866 0.00353814 0)
(-0.0421379 0.000646252 0)
(-0.0421058 -0.00237443 0)
(-0.0414578 -0.00548958 0)
(-0.040166 -0.00865172 0)
(-0.0382113 -0.011796 0)
(-0.0355888 -0.0148341 0)
(-0.0323155 -0.0176472 0)
(-0.0284394 -0.0200759 0)
(-0.0240517 -0.0219114 0)
(-0.019299 -0.0228893 0)
(-0.0143967 -0.0226957 0)
(-0.00963308 -0.0209942 0)
(-0.00534712 -0.0174826 0)
(-0.00195534 -0.0119755 0)
(-0.000271609 -0.00451108 0)
(-0.000296162 0.0052831 0)
(-0.0019565 0.0133738 0)
(-0.00515809 0.0189602 0)
(-0.00908052 0.0223376 0)
(-0.0133601 0.0239484 0)
(-0.0177517 0.0242495 0)
(-0.0220745 0.0236284 0)
(-0.0262076 0.0223684 0)
(-0.030071 0.020653 0)
(-0.0336074 0.0185901 0)
(-0.0367706 0.016239 0)
(-0.0395204 0.0136316 0)
(-0.041818 0.0107865 0)
(-0.0436246 0.00771717 0)
(-0.0449003 0.00443762 0)
(-0.0456036 0.000965814 0)
(-0.0456916 -0.00267268 0)
(-0.0451217 -0.00644082 0)
(-0.0438536 -0.010285 0)
(-0.0418549 -0.0141292 0)
(-0.0391072 -0.0178664 0)
(-0.0356163 -0.0213493 0)
(-0.031425 -0.024378 0)
(-0.0266283 -0.0266896 0)
(-0.0213898 -0.0279522 0)
(-0.0159565 -0.027775 0)
(-0.0106629 -0.0257421 0)
(-0.00590097 -0.02148 0)
(-0.00214407 -0.0147529 0)
(-0.000292321 -0.00558399 0)
(-0.000317982 0.00636448 0)
(-0.00210706 0.016016 0)
(-0.00555795 0.0226215 0)
(-0.00978139 0.0265777 0)
(-0.0143832 0.0284379 0)
(-0.0191 0.0287583 0)
(-0.0237401 0.028003 0)
(-0.0281781 0.0265077 0)
(-0.032333 0.0244879 0)
(-0.0361483 0.0220691 0)
(-0.039579 0.0193192 0)
(-0.0425858 0.0162734 0)
(-0.0451298 0.0129506 0)
(-0.0471708 0.0093629 0)
(-0.0486655 0.00552187 0)
(-0.0495662 0.00144281 0)
(-0.0498211 -0.0028507 0)
(-0.0493747 -0.00732169 0)
(-0.0481712 -0.0119127 0)
(-0.0461593 -0.0165374 0)
(-0.0433013 -0.0210693 0)
(-0.0395856 -0.0253282 0)
(-0.0350443 -0.0290655 0)
(-0.0297737 -0.031951 0)
(-0.0239559 -0.0335697 0)
(-0.0178778 -0.0334365 0)
(-0.0119334 -0.0310421 0)
(-0.00658459 -0.0259357 0)
(-0.00237741 -0.0178348 0)
(-0.000318296 -0.00676295 0)
(-0.000344322 0.00753204 0)
(-0.00228355 0.0188705 0)
(-0.00602137 0.0265734 0)
(-0.0105882 0.031148 0)
(-0.0155551 0.0332704 0)
(-0.0206383 0.0336068 0)
(-0.0256344 0.0327064 0)
(-0.0304136 0.0309622 0)
(-0.0348948 0.0286247 0)
(-0.039023 0.0258382 0)
(-0.0427561 0.0226791 0)
(-0.0460564 0.0191856 0)
(-0.0488867 0.0153754 0)
(-0.0512062 0.0112574 0)
(-0.0529686 0.00683833 0)
(-0.0541205 0.00212749 0)
(-0.0545997 -0.00285727 0)
(-0.0543361 -0.0080832 0)
(-0.0532535 -0.0134927 0)
(-0.051276 -0.0189919 0)
(-0.0483384 -0.0244345 0)
(-0.0444023 -0.0296034 0)
(-0.0394803 -0.0341907 0)
(-0.0336636 -0.0377828 0)
(-0.0271533 -0.0398585 0)
(-0.0202845 -0.0398144 0)
(-0.0135292 -0.0370281 0)
(-0.00744281 -0.0309627 0)
(-0.002669 -0.0212961 0)
(-0.000350175 -0.0080739 0)
(-0.00037586 0.00880134 0)
(-0.00249108 0.021972 0)
(-0.00656156 0.03086 0)
(-0.0115226 0.0360954 0)
(-0.0169045 0.0384915 0)
(-0.0224006 0.0388378 0)
(-0.0277948 0.0377779 0)
(-0.0329534 0.0357687 0)
(-0.0377961 0.0330987 0)
(-0.0422715 0.0299323 0)
(-0.0463413 0.0263551 0)
(-0.0499723 0.0224072 0)
(-0.05313 0.0181042 0)
(-0.0557752 0.0134497 0)
(-0.0578603 0.00844206 0)
(-0.0593266 0.00308091 0)
(-0.060102 -0.00262678 0)
(-0.0600992 -0.00865851 0)
(-0.0592175 -0.0149625 0)
(-0.0573492 -0.0214422 0)
(-0.0543909 -0.0279341 0)
(-0.0502642 -0.0341806 0)
(-0.0449473 -0.0398032 0)
(-0.0385148 -0.0442827 0)
(-0.0311817 -0.0469612 0)
(-0.0233403 -0.0470813 0)
(-0.0155636 -0.0438774 0)
(-0.00853604 -0.0367133 0)
(-0.0030368 -0.0252371 0)
(-0.000388569 -0.00954954 0)
(-0.000413327 0.0101905 0)
(-0.00273476 0.0253613 0)
(-0.00719133 0.0355331 0)
(-0.0126048 0.0414735 0)
(-0.0184572 0.044152 0)
(-0.0244159 0.044497 0)
(-0.0302514 0.0432584 0)
(-0.0358267 0.0409639 0)
(-0.0410642 0.0379439 0)
(-0.0459179 0.034385 0)
(-0.0503562 0.0303822 0)
(-0.0543523 0.0259771 0)
(-0.0578779 0.0211821 0)
(-0.0608978 0.0159927 0)
(-0.0633659 0.0103961 0)
(-0.0652203 0.00437699 0)
(-0.0663804 -0.00207503 0)
(-0.0667409 -0.008956 0)
(-0.0661728 -0.0162289 0)
(-0.0645286 -0.0238039 0)
(-0.0616534 -0.0315059 0)
(-0.05741 -0.0390368 0)
(-0.0517199 -0.0459359 0)
(-0.0446191 -0.051552 0)
(-0.0363229 -0.0550474 0)
(-0.0272847 -0.0554584 0)
(-0.0182082 -0.0518276 0)
(-0.00995801 -0.0433955 0)
(-0.00350941 -0.0297948 0)
(-0.000434673 -0.0112325 0)
(-0.000457741 0.0117205 0)
(-0.00302098 0.029086 0)
(-0.00792582 0.0406515 0)
(-0.0138576 0.0473422 0)
(-0.0202414 0.0503064 0)
(-0.0267145 0.0506315 0)
(-0.0330336 0.0491874 0)
(-0.0390598 0.0465814 0)
(-0.0447205 0.0431906 0)
(-0.049978 0.0392255 0)
(-0.0548104 0.0347913 0)
(-0.0592011 0.0299313 0)
(-0.0631311 0.0246531 0)
(-0.0665738 0.0189424 0)
(-0.0694884 0.0127711 0)
(-0.0718144 0.00610341 0)
(-0.073466 -0.0010968 0)
(-0.0743215 -0.0088524 0)
(-0.0742212 -0.017157 0)
(-0.072971 -0.0259414 0)
(-0.0703491 -0.0350321 0)
(-0.066135 -0.0440964 0)
(-0.0601598 -0.0525835 0)
(-0.0523829 -0.0596799 0)
(-0.0429891 -0.0643114 0)
(-0.0324848 -0.0652285 0)
(-0.0217369 -0.0612025 0)
(-0.0118642 -0.051304 0)
(-0.00413646 -0.0351658 0)
(-0.000491361 -0.0131824 0)
(-0.000510635 0.0134163 0)
(-0.0033586 0.0332022 0)
(-0.00878529 0.0462833 0)
(-0.0153107 0.053768 0)
(-0.0222919 0.0570127 0)
(-0.0293324 0.0572882 0)
(-0.0361748 0.0556017 0)
(-0.0426805 0.0526501 0)
(-0.0487852 0.0488622 0)
(-0.054463 0.0444755 0)
(-0.0597056 0.0396062 0)
(-0.0645105 0.0342994 0)
(-0.0688735 0.0285573 0)
(-0.0727815 0.022354 0)
(-0.0762057 0.0156429 0)
(-0.0790937 0.00836182 0)
(-0.0813588 0.000440377 0)
(-0.0828706 -0.00818532 0)
(-0.083443 -0.017557 0)
(-0.0828282 -0.0276485 0)
(-0.0807232 -0.0383114 0)
(-0.0767939 -0.0491969 0)
(-0.0707341 -0.059666 0)
(-0.0623657 -0.0687147 0)
(-0.0517809 -0.07496 0)
(-0.0395045 -0.0767507 0)
(-0.0265912 -0.0724518 0)
(-0.0145169 -0.0608703 0)
(-0.00500656 -0.0416465 0)
(-0.000565501 -0.0154898 0)
(-0.000574383 0.0153086 0)
(-0.00376054 0.0377775 0)
(-0.00979816 0.0525084 0)
(-0.0170045 0.0608256 0)
(-0.0246554 0.0643319 0)
(-0.0323162 0.0645126 0)
(-0.0397165 0.0625326 0)
(-0.0467214 0.0591903 0)
(-0.0532792 0.0549723 0)
(-0.0593803 0.0501454 0)
(-0.0650345 0.0448387 0)
(-0.0702588 0.0390995 0)
(-0.0750687 0.0329249 0)
(-0.0794718 0.0262766 0)
(-0.0834594 0.0190872 0)
(-0.0869965 0.0112634 0)
(-0.090008 0.00269186 0)
(-0.0923658 -0.00675057 0)
(-0.0938657 -0.0171737 0)
(-0.0942103 -0.0286261 0)
(-0.0930048 -0.0410233 0)
(-0.0897702 -0.054039 0)
(-0.0840017 -0.0669704 0)
(-0.0752919 -0.0786082 0)
(-0.0635321 -0.0871791 0)
(-0.0491771 -0.0904647 0)
(-0.0334637 -0.0862005 0)
(-0.0183508 -0.0727401 0)
(-0.00627603 -0.0497018 0)
(-0.000672386 -0.0183019 0)
(-0.000652725 0.0174366 0)
(-0.004246 0.0428962 0)
(-0.0110053 0.0594218 0)
(-0.0189953 0.0685993 0)
(-0.0273942 0.0723279 0)
(-0.0357262 0.0723465 0)
(-0.0437104 0.0700029 0)
(-0.0512209 0.0662103 0)
(-0.0582243 0.0615194 0)
(-0.0647326 0.0562292 0)
(-0.070779 0.050483 0)
(-0.0764048 0.0443318 0)
(-0.0816519 0.0377685 0)
(-0.0865557 0.0307434 0)
(-0.0911377 0.023168 0)
(-0.0953934 0.0149154 0)
(-0.0992765 0.00582105 0)
(-0.102679 -0.00431131 0)
(-0.105399 -0.0156859 0)
(-0.107105 -0.0284678 0)
(-0.107312 -0.0426942 0)
(-0.105373 -0.0581304 0)
(-0.100514 -0.0740724 0)
(-0.0919759 -0.0891273 0)
(-0.0792772 -0.101059 0)
(-0.062629 -0.106865 0)
(-0.043366 -0.103294 0)
(-0.0240489 -0.0878768 0)
(-0.00820952 -0.0600697 0)
(-0.000843399 -0.0218675 0)
(-0.000751718 0.0198524 0)
(-0.00484406 0.0486664 0)
(-0.0124659 0.0671402 0)
(-0.0213617 0.0771854 0)
(-0.0305927 0.081066 0)
(-0.0396408 0.0808244 0)
(-0.0482203 0.0780218 0)
(-0.0562225 0.0737004 0)
(-0.0636397 0.0684809 0)
(-0.0705117 0.062697 0)
(-0.0769001 0.0565072 0)
(-0.0828759 0.0499679 0)
(-0.0885128 0.0430705 0)
(-0.0938823 0.0357566 0)
(-0.0990459 0.0279195 0)
(-0.104045 0.0193999 0)
(-0.108882 0.00997907 0)
(-0.113497 -0.000622448 0)
(-0.117722 -0.0127281 0)
(-0.121226 -0.0266708 0)
(-0.12346 -0.0426875 0)
(-0.1236 -0.0607428 0)
(-0.120547 -0.0802539 0)
(-0.113049 -0.0997349 0)
(-0.100017 -0.116462 0)
(-0.0811326 -0.126403 0)
(-0.057596 -0.124793 0)
(-0.0325899 -0.107664 0)
(-0.0112279 -0.0739039 0)
(-0.00113869 -0.0266075 0)
(-0.000881501 0.0226283 0)
(-0.00559958 0.0552306 0)
(-0.0142667 0.0758076 0)
(-0.0242133 0.0866929 0)
(-0.0343624 0.090609 0)
(-0.0441571 0.0899673 0)
(-0.0533182 0.0865769 0)
(-0.0617663 0.0816241 0)
(-0.0695288 0.0758037 0)
(-0.0766801 0.0694844 0)
(-0.0833153 0.0628408 0)
(-0.089539 0.0559365 0)
(-0.0954613 0.0487648 0)
(-0.101195 0.041264 0)
(-0.106851 0.0333163 0)
(-0.11253 0.0247371 0)
(-0.118307 0.0152593 0)
(-0.124196 0.00451752 0)
(-0.130111 -0.00795468 0)
(-0.135777 -0.0227033 0)
(-0.140632 -0.0402587 0)
(-0.143713 -0.0609356 0)
(-0.143578 -0.0844694 0)
(-0.138363 -0.109477 0)
(-0.126121 -0.132832 0)
(-0.105608 -0.149264 0)
(-0.0774457 -0.151822 0)
(-0.0451859 -0.133925 0)
(-0.0159542 -0.0929232 0)
(-0.00167011 -0.0332164 0)
(-0.00105977 0.0258682 0)
(-0.00658328 0.0627815 0)
(-0.0165351 0.0856044 0)
(-0.0277007 0.0972417 0)
(-0.0388447 0.101009 0)
(-0.0493846 0.0997695 0)
(-0.0590684 0.0956199 0)
(-0.0678633 0.0899028 0)
(-0.0758441 0.0833875 0)
(-0.083127 0.0764754 0)
(-0.0898444 0.0693561 0)
(-0.0961371 0.0621011 0)
(-0.102153 0.0547101 0)
(-0.108048 0.0471253 0)
(-0.113986 0.0392284 0)
(-0.120135 0.0308237 0)
(-0.126655 0.0216109 0)
(-0.133671 0.011149 0)
(-0.141215 -0.00117822 0)
(-0.149136 -0.0161686 0)
(-0.156949 -0.0347354 0)
(-0.163646 -0.0577215 0)
(-0.167508 -0.0854489 0)
(-0.166047 -0.11696 0)
(-0.156281 -0.148986 0)
(-0.135632 -0.174985 0)
(-0.103475 -0.185146 0)
(-0.0629823 -0.168701 0)
(-0.0232445 -0.119484 0)
(-0.00264858 -0.0428007 0)
(-0.00131888 0.0297288 0)
(-0.00790924 0.0715841 0)
(-0.019458 0.0967525 0)
(-0.0320247 0.108953 0)
(-0.0442041 0.112286 0)
(-0.0554206 0.110173 0)
(-0.0654837 0.105039 0)
(-0.0744329 0.0983868 0)
(-0.0824054 0.0910555 0)
(-0.0895674 0.0834718 0)
(-0.096092 0.0758356 0)
(-0.102156 0.0682258 0)
(-0.107943 0.0606513 0)
(-0.113648 0.0530658 0)
(-0.119482 0.0453634 0)
(-0.125677 0.0373557 0)
(-0.132478 0.0287329 0)
(-0.140128 0.0190048 0)
(-0.148814 0.00742701 0)
(-0.158559 -0.00706309 0)
(-0.169061 -0.0258434 0)
(-0.179435 -0.0504271 0)
(-0.187885 -0.0820228 0)
(-0.191479 -0.120527 0)
(-0.186263 -0.163008 0)
(-0.168083 -0.201965 0)
(-0.134311 -0.224384 0)
(-0.0863703 -0.213553 0)
(-0.034162 -0.156422 0)
(-0.00447575 -0.0570642 0)
(-0.00172091 0.0344555 0)
(-0.00976657 0.0820064 0)
(-0.0233083 0.109514 0)
(-0.0374378 0.121918 0)
(-0.0505956 0.124384 0)
(-0.0622801 0.121019 0)
(-0.0724186 0.114605 0)
(-0.0811592 0.106802 0)
(-0.0887219 0.0985011 0)
(-0.0953324 0.0901399 0)
(-0.101209 0.0819199 0)
(-0.106563 0.0739234 0)
(-0.111608 0.0661679 0)
(-0.11657 0.0586233 0)
(-0.12169 0.0512061 0)
(-0.127241 0.0437541 0)
(-0.13353 0.0359759 0)
(-0.140894 0.0273708 0)
(-0.149664 0.0171114 0)
(-0.160078 0.00390689 0)
(-0.172089 -0.0140922 0)
(-0.185134 -0.0391675 0)
(-0.197703 -0.0736238 0)
(-0.206872 -0.118654 0)
(-0.20816 -0.172342 0)
(-0.196015 -0.227026 0)
(-0.16526 -0.26693 0)
(-0.113815 -0.268224 0)
(-0.0497071 -0.206382 0)
(-0.00786107 -0.0785173 0)
(-0.00239055 0.0404523 0)
(-0.0124778 0.0945568 0)
(-0.0284776 0.124166 0)
(-0.0442189 0.136132 0)
(-0.058069 0.13708 0)
(-0.0697286 0.131941 0)
(-0.079333 0.123869 0)
(-0.0871908 0.114649 0)
(-0.0936328 0.10519 0)
(-0.0989608 0.095919 0)
(-0.103445 0.0870248 0)
(-0.107334 0.0785826 0)
(-0.110867 0.0706124 0)
(-0.114281 0.0630971 0)
(-0.117827 0.0559781 0)
(-0.121783 0.0491284 0)
(-0.126464 0.0422979 0)
(-0.132241 0.035016 0)
(-0.139532 0.0264395 0)
(-0.148749 0.0151483 0)
(-0.160151 -0.00106314 0)
(-0.173663 -0.0252434 0)
(-0.188464 -0.0607841 0)
(-0.202345 -0.110465 0)
(-0.211168 -0.174137 0)
(-0.20877 -0.245296 0)
(-0.187541 -0.306997 0)
(-0.140423 -0.328778 0)
(-0.0698997 -0.270288 0)
(-0.0138058 -0.110517 0)
(-0.0035865 0.0484134 0)
(-0.0166064 0.109917 0)
(-0.0355026 0.140903 0)
(-0.0525678 0.151322 0)
(-0.0663226 0.14979 0)
(-0.0769034 0.142181 0)
(-0.0847946 0.131978 0)
(-0.0905422 0.121024 0)
(-0.0946326 0.110198 0)
(-0.0974696 0.0998814 0)
(-0.0993914 0.0902255 0)
(-0.100688 0.0812808 0)
(-0.101618 0.073054 0)
(-0.102418 0.0655274 0)
(-0.103318 0.0586548 0)
(-0.104558 0.0523387 0)
(-0.106404 0.0463739 0)
(-0.109173 0.0403478 0)
(-0.11326 0.0334692 0)
(-0.119157 0.0243214 0)
(-0.127424 0.010572 0)
(-0.138487 -0.0112485 0)
(-0.152477 -0.0454781 0)
(-0.168639 -0.0963746 0)
(-0.184322 -0.166126 0)
(-0.194127 -0.250995 0)
(-0.189175 -0.33567 0)
(-0.157166 -0.386181 0)
(-0.0919849 -0.344777 0)
(-0.023092 -0.156604 0)
(-0.00585196 0.0595975 0)
(-0.0231429 0.128929 0)
(-0.0450183 0.159577 0)
(-0.0622616 0.166595 0)
(-0.074083 0.161199 0)
(-0.0814639 0.150223 0)
(-0.0854569 0.137344 0)
(-0.0869595 0.124341 0)
(-0.086677 0.111984 0)
(-0.0851506 0.100557 0)
(-0.0828009 0.0901364 0)
(-0.0799602 0.0807171 0)
(-0.0768948 0.0722661 0)
(-0.073822 0.064739 0)
(-0.0709252 0.0580781 0)
(-0.0683702 0.0521918 0)
(-0.0663233 0.0469015 0)
(-0.0649818 0.0418587 0)
(-0.0646262 0.0363704 0)
(-0.0656859 0.0291499 0)
(-0.0688189 0.0180131 0)
(-0.0749308 -0.000425851 0)
(-0.0850882 -0.0308998 0)
(-0.100227 -0.0786242 0)
(-0.1202 -0.148093 0)
(-0.142047 -0.239625 0)
(-0.157971 -0.343023 0)
(-0.151976 -0.426819 0)
(-0.108662 -0.419563 0)
(-0.0349158 -0.218552 0)
(-0.0103052 0.07644 0)
(-0.0337614 0.152411 0)
(-0.0573345 0.179083 0)
(-0.071539 0.179718 0)
(-0.0774756 0.168588 0)
(-0.0776386 0.15323 0)
(-0.0739587 0.137203 0)
(-0.0678175 0.122018 0)
(-0.0601873 0.1082 0)
(-0.0517472 0.0958509 0)
(-0.0429739 0.0849137 0)
(-0.0342034 0.0752848 0)
(-0.0256692 0.0668559 0)
(-0.0175288 0.0595262 0)
(-0.00988315 0.0531977 0)
(-0.00279845 0.0477561 0)
(0.00368511 0.0430296 0)
(0.00951633 0.0387113 0)
(0.014565 0.0342235 0)
(0.0185445 0.0285061 0)
(0.0208586 0.0197345 0)
(0.0203857 0.00499642 0)
(0.0155082 -0.0200004 0)
(0.00389427 -0.0606571 0)
(-0.0170146 -0.122749 0)
(-0.0479094 -0.21055 0)
(-0.0852481 -0.321925 0)
(-0.11258 -0.435524 0)
(-0.108451 -0.477064 0)
(-0.0451179 -0.29385 0)
(-0.0190308 0.103487 0)
(-0.0506726 0.179978 0)
(-0.0701282 0.19587 0)
(-0.0732542 0.185759 0)
(-0.0654546 0.166788 0)
(-0.0515621 0.146378 0)
(-0.0345827 0.127309 0)
(-0.0163272 0.110446 0)
(0.00210251 0.0958572 0)
(0.0200542 0.0833388 0)
(0.0371532 0.0726278 0)
(0.053196 0.0634781 0)
(0.068092 0.0556797 0)
(0.0818276 0.0490582 0)
(0.0944419 0.0434622 0)
(0.106007 0.0387424 0)
(0.116612 0.0347205 0)
(0.126333 0.0311187 0)
(0.135175 0.0274686 0)
(0.142984 0.0229595 0)
(0.149273 0.0162198 0)
(0.152897 0.00506069 0)
(0.152017 -0.0137967 0)
(0.143677 -0.0449373 0)
(0.123741 -0.0939504 0)
(0.0879442 -0.167425 0)
(0.0330624 -0.27132 0)
(-0.0286317 -0.39998 0)
(-0.0790179 -0.496313 0)
(-0.0457012 -0.373385 0)
(-0.0339666 0.146431 0)
(-0.0713812 0.203981 0)
(-0.0665353 0.198318 0)
(-0.0414326 0.1731 0)
(-0.00730522 0.14587 0)
(0.0292224 0.121787 0)
(0.0649664 0.101709 0)
(0.0985403 0.0852799 0)
(0.129373 0.0718811 0)
(0.157331 0.0609276 0)
(0.182498 0.0519358 0)
(0.205054 0.0445263 0)
(0.225225 0.0384073 0)
(0.243258 0.0333532 0)
(0.259402 0.0291823 0)
(0.273899 0.0257329 0)
(0.286968 0.0228335 0)
(0.298781 0.0202586 0)
(0.309417 0.017662 0)
(0.318779 0.0144782 0)
(0.326442 0.00977787 0)
(0.331278 0.00210182 0)
(0.331514 -0.0105215 0)
(0.32403 -0.0311822 0)
(0.303961 -0.064009 0)
(0.265188 -0.115338 0)
(0.199797 -0.195378 0)
(0.110267 -0.316637 0)
(-0.00763324 -0.457922 0)
(-0.0231571 -0.433263 0)
(-0.037133 0.236861 0)
(-0.0452562 0.206128 0)
(0.0322468 0.155955 0)
(0.105325 0.119482 0)
(0.172887 0.0917819 0)
(0.232478 0.0710245 0)
(0.283745 0.0557377 0)
(0.327497 0.0443997 0)
(0.364797 0.0358416 0)
(0.396656 0.029275 0)
(0.423949 0.0241712 0)
(0.447415 0.0201647 0)
(0.467673 0.0169966 0)
(0.485252 0.01448 0)
(0.500595 0.0124743 0)
(0.514078 0.0108626 0)
(0.526002 0.00953124 0)
(0.53658 0.00834324 0)
(0.545896 0.00710585 0)
(0.553821 0.00552485 0)
(0.559889 0.003149 0)
(0.563177 -0.000718999 0)
(0.56201 -0.00699474 0)
(0.553401 -0.0172348 0)
(0.532417 -0.0334806 0)
(0.49313 -0.0594657 0)
(0.423896 -0.102776 0)
(0.321457 -0.18825 0)
(0.13622 -0.337577 0)
(0.0581371 -0.414496 0)
(0.231295 0.158469 0)
(0.292155 0.117615 0)
(0.443141 0.0765505 0)
(0.543348 0.0512034 0)
(0.611318 0.0346894 0)
(0.661086 0.0236642 0)
(0.698736 0.0163917 0)
(0.727663 0.0116004 0)
(0.750263 0.00839683 0)
(0.768238 0.00621274 0)
(0.782763 0.00469732 0)
(0.794664 0.00363002 0)
(0.804542 0.0028691 0)
(0.812846 0.00232176 0)
(0.819919 0.0019251 0)
(0.826021 0.00163285 0)
(0.83134 0.001405 0)
(0.835984 0.00119835 0)
(0.839965 0.000956638 0)
(0.843153 0.000602035 0)
(0.845197 3.00587e-05 0)
(0.845434 -0.000885396 0)
(0.842593 -0.00240873 0)
(0.834887 -0.00494637 0)
(0.818878 -0.00894254 0)
(0.7915 -0.0154497 0)
(0.739436 -0.0262571 0)
(0.662183 -0.0497778 0)
(0.457834 -0.111584 0)
(0.314156 -0.17888 0)
)
;

boundaryField
{
    movingWall
    {
        type            fixedValue;
        value           uniform (1 0 0);
    }
    fixedWalls
    {
        type            noSlip;
    }
    frontAndBack
    {
        type            empty;
    }
}


// ************************************************************************* //
