/*--------------------------------*- C++ -*----------------------------------*\
  =========                 |
  \\      /  F ield         | OpenFOAM: The Open Source CFD Toolbox
   \\    /   O peration     | Website:  https://openfoam.org
    \\  /    A nd           | Version:  7
     \\/     M anipulation  |
\*---------------------------------------------------------------------------*/
FoamFile
{
    version     2.0;
    format      ascii;
    class       volScalarField;
    location    "7.7";
    object      p;
}
// * * * * * * * * * * * * * * * * * * * * * * * * * * * * * * * * * * * * * //

dimensions      [0 2 -2 0 0 0 0];

internalField   nonuniform List<scalar> 
900
(
6.27823e-09
-0.000143896
-0.000319451
-0.000472841
-0.000571515
-0.000597306
-0.000543623
-0.000409279
-0.000194817
9.88906e-05
0.00047071
0.000918499
0.0014379
0.00202093
0.00265473
0.00332062
0.00399398
0.00464484
0.00523997
0.00574593
0.00613305
0.00637989
0.0064773
0.00643103
0.00626282
0.00600906
0.00571417
0.0054377
0.00523685
0.00516998
0.000141441
-5.41179e-06
-0.000128796
-0.000226051
-0.000278261
-0.00027169
-0.0002005
-6.24686e-05
0.000143203
0.000416551
0.00075682
0.00116193
0.0016276
0.00214637
0.00270654
0.00329144
0.00388058
0.00444807
0.0049661
0.00540706
0.00574688
0.00596874
0.00606637
0.00604603
0.00592691
0.00573945
0.00552161
0.00531538
0.0051614
0.00510041
0.000324442
0.000112945
-1.34533e-05
-9.66237e-05
-0.000132831
-0.000113265
-3.49699e-05
0.000103008
0.000301297
0.000560285
0.000879823
0.00125862
0.00169337
0.00217777
0.00270154
0.00325008
0.00380386
0.00433882
0.00482858
0.00524655
0.00556931
0.00578039
0.00587354
0.00585479
0.00574255
0.00556554
0.00535901
0.00516068
0.00500456
0.00490935
0.000488443
0.000199716
5.23044e-05
-3.28488e-05
-6.51374e-05
-4.092e-05
3.91339e-05
0.000173964
0.000363564
0.000608574
0.000909674
0.00126681
0.00167822
0.00213931
0.00264154
0.00317163
0.00371123
0.00423667
0.00472111
0.00513673
0.00545827
0.00566725
0.00575573
0.00572876
0.00560454
0.00541198
0.00518659
0.00496624
0.00478131
0.00463474
0.000588401
0.000222118
4.85484e-05
-4.55577e-05
-8.06416e-05
-5.75069e-05
1.97304e-05
0.000148014
0.000326711
0.000556798
0.000839997
0.00117782
0.00157043
0.00201535
0.00250599
0.00303043
0.00357173
0.00410548
0.00460333
0.00503456
0.0053701
0.00558742
0.00567518
0.00563638
0.00548904
0.00526353
0.00499808
0.00473428
0.00450263
0.00429351
0.000587084
0.000147953
-5.34104e-05
-0.000160614
-0.000203441
-0.000186384
-0.000116529
1.37633e-06
0.000166264
0.000379629
0.000644463
0.000964142
0.00134113
0.00177547
0.00226289
0.00279301
0.00335119
0.00391114
0.00444223
0.00490952
0.00527813
0.00551913
0.00561541
0.0055663
0.00538903
0.00511634
0.0047916
0.00446387
0.00416836
0.00388619
0.000455737
-4.94969e-05
-0.000278185
-0.000400683
-0.000454823
-0.000448194
-0.000390357
-0.000287383
-0.000140517
5.24544e-05
0.000296005
0.000595663
0.000956595
0.00138188
0.00187038
0.00241437
0.0030007
0.00360293
0.0041876
0.00471432
0.00514038
0.0054275
0.00554961
0.00549941
0.00529169
0.00496178
0.0045604
0.00414815
0.00376942
0.0033974
0.00017068
-0.000393521
-0.000648094
-0.000787098
-0.000855518
-0.00086365
-0.000823131
-0.000741054
-0.000618657
-0.000452876
-0.000237612
3.50614e-05
0.000373447
0.000784409
0.00127134
0.00183164
0.00245027
0.003107
0.00376507
0.00437805
0.00489335
0.0052598
0.00543753
0.00540773
0.00517912
0.00478832
0.00429524
0.00377661
0.0032908
0.00280212
-0.000288542
-0.000904736
-0.00118361
-0.00134025
-0.00142618
-0.00145419
-0.00143777
-0.0013849
-0.00129681
-0.00116963
-0.000995682
-0.000764525
-0.000464307
-8.34639e-05
0.000387116
0.00095074
0.00159893
0.00231567
0.00306401
0.00379292
0.00443865
0.00493287
0.00521513
0.0052471
0.00502425
0.0045804
0.00398519
0.00333696
0.00271393
0.00206833
-0.000939671
-0.00160101
-0.00190282
-0.00207872
-0.00218625
-0.0022407
-0.00225741
-0.00224536
-0.00220601
-0.00213508
-0.00202365
-0.00185898
-0.00162546
-0.00130586
-0.000883408
-0.000345654
0.000309038
0.00107636
0.00192277
0.00279645
0.003623
0.00431286
0.00477603
0.00494218
0.00478063
0.00431298
0.00361613
0.00281604
0.00201896
0.00116016
-0.00179756
-0.00249715
-0.0028209
-0.00301839
-0.00315282
-0.00324212
-0.00330371
-0.00334802
-0.00337738
-0.00338791
-0.00337035
-0.0033104
-0.00318889
-0.00298236
-0.00266428
-0.00220839
-0.00159536
-0.000814715
0.000117262
0.0011549
0.00221722
0.00319118
0.00394699
0.00436465
0.00436596
0.00394163
0.00316673
0.00219983
0.00118662
4.03909e-05
-0.00287359
-0.00360435
-0.00394937
-0.00417153
-0.00433933
-0.00447368
-0.00459461
-0.00471479
-0.00483857
-0.00496384
-0.0050826
-0.00518051
-0.00523596
-0.00521924
-0.00509228
-0.00480981
-0.00432474
-0.00360824
-0.00263849
-0.00144223
-9.67249e-05
0.00126435
0.00246266
0.00330675
0.00363921
0.00338683
0.00260084
0.00147205
0.000200248
-0.00132691
-0.00417487
-0.0049296
-0.00529547
-0.00554577
-0.00575404
-0.00594472
-0.0061413
-0.00635988
-0.00660843
-0.00688871
-0.00719635
-0.00751953
-0.00783642
-0.00811215
-0.00829608
-0.00832083
-0.00810639
-0.00757551
-0.00666599
-0.00536084
-0.00371343
-0.00186587
-4.68238e-05
0.00145969
0.00237618
0.00251365
0.00185605
0.00061158
-0.000951613
-0.00297249
-0.00570341
-0.00647516
-0.0068614
-0.00714302
-0.00739838
-0.00765626
-0.00794472
-0.00828489
-0.00869045
-0.00916963
-0.00972489
-0.0103504
-0.0110277
-0.0117191
-0.0123619
-0.0128636
-0.013103
-0.0129423
-0.0122555
-0.0109556
-0.0090444
-0.00664753
-0.00403136
-0.00158342
0.000256609
0.00111392
0.000830901
-0.000410269
-0.00227026
-0.00491442
-0.00745553
-0.00823828
-0.00864403
-0.00895873
-0.0092655
-0.00959851
-0.0099919
-0.0104736
-0.0110655
-0.0117852
-0.0126456
-0.0136512
-0.0147909
-0.0160284
-0.0172907
-0.0184592
-0.0193663
-0.0198042
-0.0195562
-0.0184504
-0.0163968
-0.0134667
-0.00993183
-0.00627095
-0.00311279
-0.00109408
-0.000622495
-0.00163009
-0.00373759
-0.00714464
-0.00942182
-0.0102117
-0.0106352
-0.0109816
-0.0113392
-0.011749
-0.0122528
-0.0128876
-0.0136856
-0.014677
-0.0158884
-0.0173388
-0.0190291
-0.0209283
-0.0229572
-0.024972
-0.0267574
-0.0280294
-0.028464
-0.0278004
-0.0258122
-0.0224755
-0.0180165
-0.0129599
-0.00811134
-0.00442457
-0.00268569
-0.0030849
-0.00529983
-0.00960594
-0.0115879
-0.0123848
-0.0128227
-0.0131943
-0.013594
-0.0140714
-0.0146784
-0.0154631
-0.0164703
-0.0177446
-0.0193296
-0.0212613
-0.0235564
-0.026193
-0.0290891
-0.0320793
-0.034903
-0.037207
-0.0385722
-0.03859
-0.0369273
-0.0334193
-0.028186
-0.0217214
-0.0149434
-0.00911955
-0.0055207
-0.00478764
-0.0068414
-0.0121567
-0.0139365
-0.0147466
-0.0151929
-0.015575
-0.0159955
-0.0165159
-0.0172009
-0.0181116
-0.0193071
-0.0208478
-0.0227951
-0.0252038
-0.0281071
-0.0314946
-0.0352839
-0.0392928
-0.0432214
-0.0466572
-0.0491027
-0.050002
-0.0489223
-0.0455426
-0.0398291
-0.0321574
-0.0234436
-0.0151842
-0.00916561
-0.0066731
-0.00814544
-0.0145213
-0.0164511
-0.0172901
-0.0177345
-0.0181
-0.0185029
-0.019021
-0.0197356
-0.0207231
-0.0220577
-0.0238157
-0.0260756
-0.0289096
-0.0323666
-0.0364466
-0.0410679
-0.0460353
-0.0510185
-0.0555559
-0.0590813
-0.0609621
-0.0606451
-0.0576713
-0.0518364
-0.0433294
-0.0329338
-0.0222153
-0.0133908
-0.00850491
-0.00883821
-0.0162231
-0.0191222
-0.0200194
-0.0204439
-0.020748
-0.0210715
-0.0215162
-0.0221853
-0.0231731
-0.0245689
-0.0264636
-0.0289501
-0.0321148
-0.0360186
-0.0406686
-0.0459827
-0.051755
-0.0576334
-0.0631209
-0.0676049
-0.0704013
-0.0708861
-0.0684784
-0.0628212
-0.0538916
-0.0422385
-0.0293098
-0.0175565
-0.0097563
-0.00831694
-0.0164966
-0.0219575
-0.0229603
-0.0233332
-0.0235041
-0.0236555
-0.0239253
-0.0244459
-0.0253317
-0.0266865
-0.0286132
-0.031215
-0.0345872
-0.0387973
-0.0438543
-0.0496728
-0.0560372
-0.0625795
-0.0687805
-0.074004
-0.0775561
-0.0786909
-0.0768264
-0.0714707
-0.0624028
-0.0498973
-0.0351361
-0.0205564
-0.00949531
-0.00566268
-0.0141752
-0.0250012
-0.0261773
-0.0264396
-0.026364
-0.0262103
-0.0261701
-0.0264127
-0.0270745
-0.0282717
-0.0301146
-0.0327117
-0.0361609
-0.0405293
-0.045822
-0.0519465
-0.0586761
-0.0656308
-0.0722772
-0.0779603
-0.0819593
-0.0835361
-0.0820277
-0.0768649
-0.0676781
-0.054493
-0.0381619
-0.0208982
-0.00633986
0.000453011
-0.00755724
-0.0283695
-0.0298
-0.0298385
-0.0293381
-0.0286939
-0.0281727
-0.0279871
-0.0282936
-0.0292155
-0.0308649
-0.0333482
-0.0367592
-0.041157
-0.0465374
-0.0527972
-0.0596932
-0.0668336
-0.0736726
-0.0795423
-0.0837022
-0.0853987
-0.0839233
-0.0786209
-0.0690181
-0.0549357
-0.0369394
-0.0169035
0.00148103
0.0118627
0.00574533
-0.0323286
-0.0340671
-0.0336585
-0.0324524
-0.0310654
-0.0298584
-0.0290839
-0.0289089
-0.0294538
-0.0308228
-0.0331122
-0.0364034
-0.0407423
-0.0461068
-0.0523743
-0.0592879
-0.0664392
-0.0732679
-0.0790884
-0.0831346
-0.0846174
-0.0827401
-0.0768051
-0.066234
-0.0505955
-0.0303555
-0.00696264
0.0160246
0.0310217
0.0289519
-0.0374634
-0.039396
-0.0380959
-0.0357444
-0.0332815
-0.0311567
-0.0296375
-0.0288774
-0.0289758
-0.0300157
-0.0320719
-0.035207
-0.0394431
-0.0447359
-0.0509392
-0.0577751
-0.0648147
-0.0714779
-0.0770522
-0.0807289
-0.0816517
-0.0789462
-0.071779
-0.0594251
-0.0413958
-0.0178319
0.0101318
0.0395222
0.061074
0.0660867
-0.045075
-0.0464905
-0.0434022
-0.0392346
-0.0352732
-0.0319843
-0.0295873
-0.0281794
-0.02781
-0.0285213
-0.0303558
-0.0333434
-0.0374776
-0.0426848
-0.0487905
-0.0554901
-0.0623303
-0.0687045
-0.0738652
-0.0769477
-0.0770072
-0.0730411
-0.0640489
-0.0491083
-0.0275286
0.000780822
0.0348443
0.0737219
0.105246
0.121746
-0.0583295
-0.0565282
-0.0498228
-0.0428429
-0.0368625
-0.0321643
-0.0288012
-0.0267476
-0.0259586
-0.0264092
-0.0280898
-0.0309882
-0.0350604
-0.0401982
-0.0461951
-0.0527174
-0.0592846
-0.065261
-0.0698605
-0.0721612
-0.0711307
-0.0655564
-0.0542683
-0.0360569
-0.00988837
0.0247999
0.0677236
0.117901
0.164823
0.202738
-0.085258
-0.0709396
-0.0575293
-0.0462773
-0.0376154
-0.0313038
-0.0269933
-0.024415
-0.0233662
-0.0237155
-0.0253818
-0.0283006
-0.0323866
-0.0374962
-0.0433931
-0.0497182
-0.0559669
-0.0614759
-0.0654179
-0.0668105
-0.0645414
-0.0573113
-0.0436335
-0.0219324
0.0093463
0.0516237
0.10565
0.171739
0.240385
0.32274
-0.137496
-0.0863225
-0.0643667
-0.0472374
-0.0354663
-0.0278162
-0.023057
-0.0204374
-0.0195325
-0.0201003
-0.0219959
-0.0251134
-0.0293389
-0.0345084
-0.0403706
-0.0465562
-0.0525541
-0.0576949
-0.0611358
-0.0618449
-0.0585813
-0.0501325
-0.0347468
-0.0104394
0.0250265
0.074549
0.141218
0.230121
0.337947
0.507669
-0.310222
-0.096113
-0.0472123
-0.028669
-0.0182821
-0.0128197
-0.010482
-0.00998851
-0.0107625
-0.0126169
-0.0154901
-0.0193407
-0.0241032
-0.0296531
-0.0357735
-0.0421262
-0.0482294
-0.0534429
-0.0569605
-0.0578137
-0.0548601
-0.0465457
-0.0312365
-0.00692155
0.0290714
0.0811135
0.155845
0.270957
0.446034
0.789823
)
;

boundaryField
{
    movingWall
    {
        type            zeroGradient;
    }
    fixedWalls
    {
        type            zeroGradient;
    }
    frontAndBack
    {
        type            empty;
    }
}


// ************************************************************************* //
