/*--------------------------------*- C++ -*----------------------------------*\
  =========                 |
  \\      /  F ield         | OpenFOAM: The Open Source CFD Toolbox
   \\    /   O peration     | Website:  https://openfoam.org
    \\  /    A nd           | Version:  7
     \\/     M anipulation  |
\*---------------------------------------------------------------------------*/
FoamFile
{
    version     2.0;
    format      ascii;
    class       surfaceScalarField;
    location    "7.7";
    object      phi;
}
// * * * * * * * * * * * * * * * * * * * * * * * * * * * * * * * * * * * * * //

dimensions      [0 3 -1 0 0 0 0];

internalField   nonuniform List<scalar> 
1740
(
5.4818e-07
-5.48187e-07
-5.15179e-07
1.06336e-06
-3.31594e-06
2.80077e-06
-7.4871e-06
4.17115e-06
-1.25861e-05
5.09902e-06
-1.82321e-05
5.64599e-06
-2.41345e-05
5.9024e-06
-3.00757e-05
5.94122e-06
-3.58809e-05
5.80519e-06
-4.13901e-05
5.50917e-06
-4.64375e-05
5.04739e-06
-5.08397e-05
4.40223e-06
-5.43933e-05
3.55358e-06
-5.68817e-05
2.4884e-06
-5.80917e-05
1.21004e-06
-5.78377e-05
-2.54044e-07
-5.59898e-05
-1.84789e-06
-5.25098e-05
-3.48002e-06
-4.74786e-05
-5.03121e-06
-4.11152e-05
-6.36332e-06
-3.378e-05
-7.33523e-06
-2.5956e-05
-7.82396e-06
-1.82093e-05
-7.74671e-06
-1.11296e-05
-7.0797e-06
-5.26075e-06
-5.86888e-06
-1.02624e-06
-4.23451e-06
1.35538e-06
-2.38162e-06
1.92219e-06
-5.6681e-07
1.08527e-06
8.36915e-07
1.08527e-06
-1.06463e-06
5.16443e-07
-5.70708e-06
5.70582e-06
-1.39365e-05
1.10302e-05
-2.50561e-05
1.52908e-05
-3.8253e-05
1.82959e-05
-5.27576e-05
2.01505e-05
-6.79087e-05
2.10535e-05
-8.31524e-05
2.11849e-05
-9.80071e-05
2.06598e-05
-0.000112022
1.95243e-05
-0.000124745
1.77699e-05
-0.000135699
1.53569e-05
-0.000144388
1.22423e-05
-0.000150308
8.40837e-06
-0.000152987
3.88883e-06
-0.000152047
-1.19445e-06
-0.000147235
-6.65983e-06
-0.000138526
-1.21886e-05
-0.000126157
-1.74001e-05
-0.000110663
-2.18577e-05
-9.28764e-05
-2.51215e-05
-7.38881e-05
-2.68122e-05
-5.49568e-05
-2.6678e-05
-3.73848e-05
-2.46518e-05
-2.23655e-05
-2.08882e-05
-1.08248e-05
-1.57752e-05
-3.27531e-06
-9.9311e-06
3.53865e-07
-4.19598e-06
8.99842e-07
2.90936e-07
1.98511e-06
-2.99976e-06
3.5162e-06
-1.16678e-05
1.43739e-05
-2.52138e-05
2.45762e-05
-4.26217e-05
3.26987e-05
-6.28051e-05
3.84793e-05
-8.4745e-05
4.20905e-05
-0.00010754
4.38482e-05
-0.0001304
4.40451e-05
-0.000152614
4.2874e-05
-0.000173505
4.04153e-05
-0.000192394
3.66588e-05
-0.000208581
3.15441e-05
-0.000221349
2.50102e-05
-0.000229989
1.70485e-05
-0.000233855
7.75457e-06
-0.000232423
-2.62623e-06
-0.000225376
-1.37064e-05
-0.000212696
-2.4869e-05
-0.000194723
-3.53733e-05
-0.000172204
-4.43769e-05
-0.000146292
-5.10334e-05
-0.000118493
-5.4611e-05
-9.05519e-05
-5.4619e-05
-6.42825e-05
-5.09212e-05
-4.13605e-05
-4.38101e-05
-2.31031e-05
-3.40326e-05
-1.02618e-05
-2.27724e-05
-2.84342e-06
-1.16144e-05
-2.26504e-08
-2.52984e-06
1.96247e-06
-4.82681e-06
8.34301e-06
-1.73667e-05
2.69138e-05
-3.59879e-05
4.31973e-05
-5.91998e-05
5.59106e-05
-8.56361e-05
6.49156e-05
-0.000114078
7.05327e-05
-0.000143457
7.32266e-05
-0.000172823
7.34116e-05
-0.000201307
7.13582e-05
-0.00022807
6.71781e-05
-0.000252267
6.08556e-05
-0.000273029
5.23063e-05
-0.00028947
4.14511e-05
-0.000300717
2.82952e-05
-0.000305969
1.30064e-05
-0.000304575
-4.02027e-06
-0.000296121
-2.21604e-05
-0.000280545
-4.04451e-05
-0.000258214
-5.77044e-05
-0.000229987
-7.26037e-05
-0.00019723
-8.37905e-05
-0.000161763
-9.00779e-05
-0.000125734
-9.0648e-05
-9.14159e-05
-8.52391e-05
-6.09488e-05
-7.42773e-05
-3.60589e-05
-5.89225e-05
-1.78016e-05
-4.10297e-05
-6.36681e-06
-2.30492e-05
-9.93684e-07
-7.90296e-06
9.68783e-07
-6.4438e-06
1.47868e-05
-2.25582e-05
4.30282e-05
-4.58937e-05
6.65328e-05
-7.44571e-05
8.44741e-05
-0.000106585
9.7044e-05
-0.000140879
0.000104826
-0.000176142
0.000108489
-0.000211321
0.000108592
-0.000245449
0.000105485
-0.00027758
9.93094e-05
-0.000306758
9.00332e-05
-0.000331988
7.75369e-05
-0.000352247
6.17102e-05
-0.000366511
4.25585e-05
-0.000373814
2.031e-05
-0.000373346
-4.48807e-06
-0.000364522
-3.09848e-05
-0.000347147
-5.78195e-05
-0.000321509
-8.33432e-05
-0.000288468
-0.000105644
-0.000249512
-0.000122747
-0.000206718
-0.000132872
-0.00016263
-0.000134736
-0.000120026
-0.000127843
-8.16003e-05
-0.000112703
-4.96054e-05
-9.09174e-05
-2.5521e-05
-6.51141e-05
-9.81575e-06
-3.87544e-05
-1.85649e-06
-1.58622e-05
-8.87709e-07
-7.85582e-06
2.26426e-05
-2.72022e-05
6.23746e-05
-5.48551e-05
9.41856e-05
-8.83392e-05
0.000117958
-0.000125702
0.000134406
-0.000165377
0.000144501
-0.000206076
0.000149188
-0.000246685
0.000149201
-0.000286187
0.000144987
-0.000323586
0.000136708
-0.000357857
0.000124305
-0.00038792
0.0001076
-0.000412632
8.64218e-05
-0.000430812
6.07384e-05
-0.000441297
3.07952e-05
-0.000443057
-2.72853e-06
-0.000435219
-3.88227e-05
-0.00041734
-7.56979e-05
-0.000389482
-0.000111202
-0.000352374
-0.000142752
-0.000307519
-0.000167602
-0.000257206
-0.000183185
-0.000204404
-0.000187538
-0.000152507
-0.00017974
-0.000104942
-0.000160267
-6.47002e-05
-0.00013116
-3.38769e-05
-9.59373e-05
-1.33465e-05
-5.92848e-05
-2.63431e-06
-2.65744e-05
-3.52202e-06
-9.09398e-06
3.17366e-05
-3.13379e-05
8.46186e-05
-6.29129e-05
0.000125761
-0.000100911
0.000155956
-0.000143115
0.000176611
-0.00018782
0.000189207
-0.000233674
0.000195042
-0.000279546
0.000195073
-0.000324414
0.000189856
-0.000367283
0.000179576
-0.000407106
0.000164128
-0.000442749
0.000143243
-0.000472965
0.000116638
-0.000496405
8.41785e-05
-0.000511662
4.60523e-05
-0.000517379
2.98841e-06
-0.000512308
-4.38936e-05
-0.000495574
-9.24322e-05
-0.000466834
-0.000139941
-0.000426512
-0.000183074
-0.000375983
-0.000218131
-0.000317673
-0.000241495
-0.000255005
-0.000250206
-0.000192135
-0.00024261
-0.000133474
-0.000218929
-8.30551e-05
-0.000181578
-4.38851e-05
-0.000135107
-1.74423e-05
-8.57276e-05
-3.46479e-06
-4.05519e-05
-6.98681e-06
-1.01846e-05
4.19212e-05
-3.50132e-05
0.000109447
-7.01288e-05
0.000160876
-0.000112252
0.000198079
-0.000158944
0.000223302
-0.000208391
0.000238654
-0.000259216
0.000245867
-0.00031031
0.000246167
-0.000360701
0.000240247
-0.000409438
0.000228314
-0.000455505
0.000210195
-0.000497748
0.000185486
-0.000534835
0.000153724
-0.000565237
0.000114581
-0.000587261
6.80766e-05
-0.000599094
1.48209e-05
-0.000599037
-4.395e-05
-0.000585559
-0.000105911
-0.000557705
-0.000167795
-0.000515366
-0.000225413
-0.000459586
-0.000273911
-0.000392793
-0.000308288
-0.000318842
-0.000324157
-0.000242786
-0.000318667
-0.000170314
-0.0002914
-0.000106919
-0.000244973
-5.69413e-05
-0.000185085
-2.27856e-05
-0.000119883
-4.545e-06
-5.87924e-05
-1.15318e-05
-1.11407e-05
5.30619e-05
-3.82544e-05
0.000136561
-7.65362e-05
0.000199158
-0.0001224
0.000243943
-0.000173232
0.000274134
-0.000227149
0.000292571
-0.000282786
0.000301504
-0.000339104
0.000302485
-0.000395227
0.000296369
-0.000450305
0.000283392
-0.000503401
0.000263291
-0.000553386
0.000235471
-0.000598867
0.000199205
-0.000638137
0.000153851
-0.000669171
9.91104e-05
-0.000689669
3.53183e-05
-0.000697274
-3.63449e-05
-0.00068965
-0.000113534
-0.000664998
-0.000192447
-0.000622401
-0.000268011
-0.000562294
-0.000334018
-0.000486869
-0.000383713
-0.000400287
-0.000410739
-0.000308556
-0.000410397
-0.000218944
-0.000381012
-0.000138903
-0.000325015
-7.47039e-05
-0.000249285
-3.01911e-05
-0.000164396
-6.10311e-06
-8.28804e-05
-1.76349e-05
-1.19624e-05
6.50243e-05
-4.10593e-05
0.000165658
-8.21234e-05
0.000240222
-0.000131325
0.000293145
-0.000185919
0.000328728
-0.000243995
0.000350648
-0.00030424
0.000361748
-0.000365724
0.000363969
-0.000427718
0.000358364
-0.00048953
0.000345204
-0.000550353
0.000324114
-0.000609137
0.000294255
-0.000664466
0.000254534
-0.000714474
0.000203859
-0.000756794
0.000141431
-0.000788583
6.71073e-05
-0.000806753
-1.81753e-05
-0.000807982
-0.000112305
-0.00078942
-0.000211009
-0.000749051
-0.000308379
-0.000686357
-0.000396712
-0.000602928
-0.000467141
-0.000502937
-0.00051073
-0.000393237
-0.000520097
-0.000282869
-0.00049138
-0.000181797
-0.000426088
-9.90105e-05
-0.000332071
-4.05722e-05
-0.000222834
-8.39033e-06
-0.000115062
-2.60252e-05
-1.26405e-05
7.76647e-05
-4.34013e-05
0.000196419
-8.68354e-05
0.000283656
-0.000138926
0.000345236
-0.00019684
0.000386641
-0.000258669
0.000412477
-0.000323187
0.000426266
-0.000389612
0.000430394
-0.000457408
0.00042616
-0.000526086
0.000413882
-0.000595028
0.000393056
-0.000663314
0.000362541
-0.00072956
0.000320781
-0.000791784
0.000266082
-0.000847312
0.000196959
-0.00089277
0.000112565
-0.000924257
1.33116e-05
-0.000937487
-9.90758e-05
-0.000928352
-0.000220144
-0.000893491
-0.00034324
-0.000831048
-0.000459155
-0.00074153
-0.00055666
-0.000628594
-0.000623667
-0.000499545
-0.000649146
-0.000365145
-0.00062578
-0.000238337
-0.000552895
-0.000131794
-0.000438614
-5.49241e-05
-0.000299705
-1.16819e-05
-0.000158304
-3.77072e-05
-1.31602e-05
9.08249e-05
-4.5239e-05
0.000228497
-9.05889e-05
0.000329006
-0.000145054
0.000399701
-0.000205741
0.000447328
-0.000270768
0.000477504
-0.000339016
0.000494514
-0.00040988
0.000501258
-0.000483045
0.000499324
-0.000558264
0.000489101
-0.000635154
0.000469946
-0.00071298
0.000440366
-0.000790451
0.000398252
-0.000865539
0.000341171
-0.000935349
0.000266769
-0.000996076
0.000173292
-0.00104301
6.02449e-05
-0.00107108
-7.10102e-05
-0.00107482
-0.000216394
-0.00104941
-0.000368651
-0.000991314
-0.000517253
-0.000899375
-0.000648599
-0.000775979
-0.000747063
-0.000628089
-0.000797036
-0.000467686
-0.000786182
-0.000310861
-0.00070972
-0.00017497
-0.000574504
-7.43115e-05
-0.000400364
-1.62847e-05
-0.000216331
-5.39919e-05
-1.35074e-05
0.000104332
-4.65322e-05
0.000261522
-9.32985e-05
0.000375773
-0.000149544
0.000455947
-0.000212327
0.000510112
-0.000279802
0.000544979
-0.00035096
0.000565671
-0.000425378
0.000575677
-0.000502974
0.00057692
-0.000583764
0.000569891
-0.000667623
0.000553806
-0.000754045
0.000526788
-0.000841896
0.000486103
-0.000929202
0.000428477
-0.00101298
0.000350544
-0.00108914
0.000249459
-0.00115256
0.00012366
-0.00119731
-2.6259e-05
-0.00121697
-0.000196736
-0.00120523
-0.000380391
-0.00115669
-0.000565788
-0.00106801
-0.000737284
-0.00093934
-0.000875731
-0.000776089
-0.000960287
-0.000590306
-0.000971965
-0.000400753
-0.000899273
-0.000230232
-0.000745025
-9.98414e-05
-0.000530755
-2.2548e-05
-0.000293625
-7.65399e-05
-1.36758e-05
0.000118008
-4.72639e-05
0.00029511
-9.49147e-05
0.000423423
-0.00015227
0.000513302
-0.000216335
0.000574177
-0.000285282
0.000613926
-0.0003582
0.000638588
-0.000434831
0.000652307
-0.00051531
0.0006574
-0.000599907
0.000654487
-0.000688757
0.000642656
-0.000781605
0.000619635
-0.000877537
0.000582036
-0.000974747
0.000525687
-0.00107034
0.000446141
-0.00116026
0.00033937
-0.00123923
0.000202639
-0.00130096
3.54708e-05
-0.00133843
-0.000159268
-0.00134419
-0.000374635
-0.00131104
-0.000598938
-0.00123307
-0.000815251
-0.00110731
-0.00100149
-0.000936037
-0.00113156
-0.000729493
-0.00117851
-0.000507628
-0.00112114
-0.00029869
-0.000953963
-0.000132583
-0.000696862
-3.08688e-05
-0.000395339
-0.000107409
-1.36764e-05
0.000131685
-4.74671e-05
0.000328901
-9.54716e-05
0.000471428
-0.000153216
0.000571046
-0.000217621
0.000638582
-0.000286841
0.000683146
-0.000360026
0.000711773
-0.000437043
0.000729325
-0.000518207
0.000738563
-0.000603995
0.000740276
-0.000694783
0.000733444
-0.000790569
0.000715421
-0.000890708
0.000682175
-0.000993684
0.000628663
-0.00109692
0.000549378
-0.00119668
0.000439131
-0.00128804
0.000294002
-0.00136492
0.000112349
-0.00142017
-0.000104023
-0.00144595
-0.00034885
-0.00143364
-0.000611246
-0.0013748
-0.000874098
-0.00126263
-0.00111366
-0.00109477
-0.00129943
-0.000877158
-0.00139612
-0.000628243
-0.00137005
-0.000380272
-0.00120193
-0.000173394
-0.00090374
-4.16796e-05
-0.000527053
-0.000149088
-1.35485e-05
0.000145233
-4.72584e-05
0.000362611
-9.51454e-05
0.000519315
-0.000152558
0.000628459
-0.000216272
0.000702296
-0.000284373
0.000751247
-0.000356018
0.000783418
-0.000431148
0.000804455
-0.000510189
0.000817605
-0.000593775
0.000823862
-0.000682469
0.000822138
-0.000776507
0.000809459
-0.000875556
0.000781224
-0.000978508
0.000731614
-0.00108332
0.000654195
-0.00118695
0.000542755
-0.00128526
0.000392315
-0.00137308
0.00020017
-0.00144367
-3.34408e-05
-0.00148985
-0.00030266
-0.00150222
-0.000598885
-0.00147032
-0.000905992
-0.00138354
-0.00120044
-0.00123371
-0.00144926
-0.00101994
-0.00160988
-0.000755411
-0.00163458
-0.000472915
-0.00148443
-0.000222623
-0.00115403
-5.54114e-05
-0.000694264
-0.0002045
-1.33732e-05
0.000158606
-4.68769e-05
0.000396115
-9.43191e-05
0.000566757
-0.000150751
0.000684891
-0.00021272
0.000764264
-0.000278179
0.000816707
-0.000346242
0.000851481
-0.000416861
0.000875074
-0.000490517
0.00089126
-0.000567929
0.000901274
-0.000649798
0.000904007
-0.000736577
0.000896238
-0.000828275
0.000872922
-0.000924299
0.000827638
-0.00102335
0.000753243
-0.00112335
0.000642755
-0.0012214
0.000490371
-0.0013137
0.00029247
-0.0013952
4.80569e-05
-0.00145929
-0.000238567
-0.00149735
-0.000560825
-0.00149792
-0.000905425
-0.00144721
-0.00125115
-0.00133105
-0.00156542
-0.00113988
-0.00180106
-0.000877473
-0.00189699
-0.000571753
-0.00179015
-0.000279717
-0.00144607
-7.24386e-05
-0.000901542
-0.000276938
-1.32911e-05
0.000171897
-4.67314e-05
0.000429555
-9.36567e-05
0.000613682
-0.000148627
0.000739862
-0.000207851
0.000823488
-0.0002691
0.000877955
-0.000331406
0.000913787
-0.0003947
0.000938368
-0.000459471
0.000956031
-0.000526478
0.000968281
-0.000596522
0.000974052
-0.000670264
0.00096998
-0.000748087
0.000950746
-0.000830005
0.000909556
-0.000915605
0.000838844
-0.00100402
0.00073117
-0.00109387
0.000580219
-0.00118309
0.000381692
-0.00126886
0.000133823
-0.00134592
-0.000161506
-0.00140739
-0.000499355
-0.00144214
-0.000870672
-0.00143469
-0.0012586
-0.00136588
-0.00163423
-0.00121696
-0.00194997
-0.000979073
-0.00213488
-0.000668708
-0.00210051
-0.000342819
-0.00177196
-9.30329e-05
-0.00115133
-0.000369971
-1.35278e-05
0.000185425
-4.74632e-05
0.00046349
-9.41888e-05
0.000660408
-0.000147482
0.000793155
-0.000203095
0.000879101
-0.000258597
0.000933457
-0.000312955
0.000968145
-0.00036609
0.000991503
-0.000418498
0.00100844
-0.000470972
0.00102076
-0.000524411
0.00102749
-0.000579697
0.00102527
-0.000637631
0.00100868
-0.000698904
0.000970828
-0.00076409
0.00090403
-0.000833637
0.000800717
-0.0009078
0.000654383
-0.000986468
0.000460359
-0.00106888
0.000216232
-0.00115223
-7.81494e-05
-0.00123176
-0.000419826
-0.00129804
-0.000804395
-0.0013358
-0.00122084
-0.00132307
-0.00164696
-0.00123325
-0.0020398
-0.00104349
-0.00232463
-0.000752899
-0.00239111
-0.000408489
-0.00211637
-0.000117366
-0.00144245
-0.000487337
-1.4439e-05
0.000199864
-5.00391e-05
0.00049909
-9.74188e-05
0.000707788
-0.000149164
0.0008449
-0.000200476
0.000930413
-0.000248772
0.000981753
-0.000293052
0.00101243
-0.000333315
0.00103177
-0.00037013
0.00104525
-0.000404371
0.001055
-0.000437072
0.00106019
-0.000469384
0.00105758
-0.000502571
0.00104187
-0.000538047
0.0010063
-0.000577403
0.000943386
-0.0006224
0.000845713
-0.000674882
0.000706865
-0.000736574
0.000522051
-0.000808722
0.00028838
-0.000891013
4.14174e-06
-0.000981168
-0.000329671
-0.00107242
-0.000713145
-0.00115166
-0.00114159
-0.00119694
-0.00160169
-0.00117686
-0.00205988
-0.00105593
-0.00244555
-0.000812183
-0.00263486
-0.00047175
-0.0024568
-0.000145579
-0.00176862
-0.000632916
-1.65937e-05
0.000216458
-5.59004e-05
0.000538397
-0.000105465
0.000757352
-0.000156157
0.000895592
-0.000202606
0.000976862
-0.000242269
0.00102142
-0.0002744
0.00104456
-0.000299258
0.00105662
-0.000317626
0.00106362
-0.00033056
0.00106793
-0.000339312
0.00106894
-0.000345357
0.00106362
-0.000350463
0.00104697
-0.000356772
0.00101261
-0.000366855
0.000953469
-0.000383675
0.000862533
-0.00041048
0.00073367
-0.000450557
0.000562129
-0.00050679
0.000344613
-0.000581452
7.8804e-05
-0.000673945
-0.000237178
-0.000781089
-0.000606002
-0.000893315
-0.00102937
-0.00099157
-0.00150343
-0.00104391
-0.00200754
-0.00100614
-0.00248332
-0.000835025
-0.00280598
-0.000526435
-0.00276539
-0.000177846
-0.00211721
-0.000810762
-2.09409e-05
0.000237399
-6.72133e-05
0.000584669
-0.000121247
0.000811386
-0.000171614
0.000945958
-0.000212559
0.00101781
-0.00024199
0.00105085
-0.000259802
0.00106237
-0.000266814
0.00106364
-0.000264228
0.00106104
-0.000253426
0.00105713
-0.000235973
0.00105149
-0.000213723
0.00104137
-0.000188953
0.0010222
-0.000164481
0.000988142
-0.000143764
0.000932751
-0.000130759
0.000849528
-0.000129835
0.000732746
-0.000145474
0.000577768
-0.000181917
0.000381055
-0.00024274
0.000139627
-0.000329882
-0.000150036
-0.000442968
-0.000492915
-0.000576748
-0.000895586
-0.000717476
-0.00136271
-0.000837163
-0.00188785
-0.000888792
-0.00243169
-0.000811582
-0.00288319
-0.000565466
-0.00301151
-0.000214215
-0.00246846
-0.00102498
-2.91376e-05
0.000266536
-8.72712e-05
0.000642803
-0.000148684
0.000872799
-0.000199236
0.00099651
-0.000233416
0.00105199
-0.000250345
0.00106778
-0.000251161
0.00106318
-0.000237645
0.00105012
-0.000211674
0.00103507
-0.000175113
0.00102057
-0.000129918
0.0010063
-7.83403e-05
0.000989796
-2.31269e-05
0.000966989
3.23395e-05
0.000932675
8.40531e-05
0.000881037
0.000127249
0.000806332
0.000156752
0.000703244
0.000167222
0.000567297
0.000153515
0.000394763
0.000111025
0.000182116
3.60191e-05
-7.503e-05
-7.3137e-05
-0.000383759
-0.000216015
-0.000752707
-0.000385634
-0.00119309
-0.000561632
-0.00171185
-0.000701169
-0.00229216
-0.000732926
-0.00285143
-0.000580359
-0.00316407
-0.000253846
-0.00279498
-0.00127882
-4.41791e-05
0.000310716
-0.000121059
0.000719683
-0.000192673
0.000944413
-0.00024254
0.00104638
-0.000266876
0.00107632
-0.0002673
0.0010682
-0.000247027
0.00104291
-0.000209291
0.00101239
-0.000156915
0.000982689
-9.2376e-05
0.000956026
-1.80416e-05
0.000931962
6.34778e-05
0.000908277
0.000149146
0.000881321
0.000235265
0.000846556
0.000317376
0.000798926
0.000390386
0.000733322
0.000448689
0.00064494
0.000486481
0.000529505
0.000498065
0.000383179
0.000478132
0.000202049
0.000421605
-1.85029e-05
0.000324529
-0.000286683
0.000183759
-0.000611937
-3.43007e-07
-0.00100899
-0.000218707
-0.00149349
-0.000438837
-0.00207203
-0.000588447
-0.00270182
-0.000559329
-0.00319319
-0.000293152
-0.00306115
-0.00157197
-7.15248e-05
0.00038224
-0.000175704
0.000823862
-0.000257946
0.00102665
-0.000302087
0.00109052
-0.00030909
0.00108333
-0.000285046
0.00104416
-0.000236324
0.000994187
-0.00016814
0.000944201
-8.44787e-05
0.000899028
1.1531e-05
0.000860017
0.000117104
0.000826388
0.00022953
0.000795851
0.000345678
0.000765173
0.00046183
0.000730404
0.000573563
0.000687193
0.000675773
0.000631113
0.000762819
0.000557894
0.000828755
0.000463569
0.00086756
0.000344374
0.000873273
0.000196337
0.000839981
1.47886e-05
0.000761539
-0.000208241
0.000631628
-0.000482027
0.000444266
-0.000821623
0.00019852
-0.00124774
-8.93757e-05
-0.00178413
-0.00036141
-0.00242978
-0.000483755
-0.00307085
-0.000322822
-0.00322209
-0.0018948
-0.00012086
0.000503101
-0.000259319
0.000962321
-0.000343466
0.0011108
-0.000366087
0.00111314
-0.0003384
0.00105564
-0.000273735
0.000979493
-0.000182787
0.000903239
-7.31399e-05
0.000834554
5.00592e-05
0.000775829
0.000183207
0.000726869
0.000323535
0.00068606
0.000468461
0.000650925
0.000615215
0.00061842
0.000760515
0.000585103
0.000900408
0.0005473
0.00103023
0.000501286
0.00114471
0.000443423
0.00123804
0.000370231
0.00130411
0.000278308
0.0013364
0.00016405
0.00132787
2.33129e-05
0.00127082
-0.000151192
0.00115609
-0.000367292
0.000972864
-0.000638397
0.000710395
-0.000985272
0.000367969
-0.00144171
-1.39771e-05
-0.00204784
-0.000322822
-0.002762
-0.000329184
-0.00321572
-0.00222398
-0.000208114
0.000711214
-0.000370721
0.00112493
-0.00042013
0.00116021
-0.000380344
0.00107335
-0.000281388
0.000956682
-0.000146517
0.000844623
9.10656e-06
0.000747615
0.000176306
0.000667355
0.000349725
0.000602409
0.000526278
0.000550316
0.000703993
0.000508346
0.000881254
0.000473664
0.00105629
0.000443379
0.00122685
0.000414549
0.00138994
0.000384206
0.00154181
0.00034942
0.00167789
0.000307347
0.00179288
0.000255238
0.00188081
0.000190374
0.00193489
0.000109976
0.00194667
1.15273e-05
0.00190775
-0.000112273
0.00180626
-0.000265795
0.00162787
-0.000460014
0.00135489
-0.000712293
0.000969675
-0.00105649
0.000475638
-0.0015538
-2.15677e-05
-0.0022648
-0.000270125
-0.00296716
-0.00249411
-0.000344397
0.00105561
-0.000437262
0.00121779
-0.000347677
0.00107062
-0.000161078
0.000886755
6.75047e-05
0.0007281
0.000309625
0.000602503
0.000551113
0.000506126
0.000785688
0.000432781
0.00101119
0.000376907
0.0012274
0.00033411
0.0014348
0.000300942
0.00163389
0.00027457
0.00182474
0.000252537
0.00200667
0.000232617
0.00217814
0.000212737
0.00233661
0.000190947
0.00247855
0.000165412
0.00259939
0.000134393
0.00269362
9.61406e-05
0.0027547
4.89019e-05
0.00277445
-8.22625e-06
0.00274278
-8.06008e-05
0.00264686
-0.000169878
0.00247035
-0.000283502
0.00219128
-0.000433226
0.00178076
-0.000645961
0.00120815
-0.000981199
0.00051725
-0.00157389
-2.29011e-05
-0.00242701
-0.00251701
-0.000304483
0.00136009
-5.39664e-05
0.000967277
0.000372909
0.000643749
0.000792735
0.000466929
0.00117501
0.000345827
0.00151575
0.000261758
0.00181758
0.000204293
0.00208569
0.000164674
0.00232583
0.000136764
0.00254325
0.00011669
0.00274225
0.000101943
0.00292607
9.07535e-05
0.00309683
8.1775e-05
0.00325553
7.39191e-05
0.00340201
6.62595e-05
0.00353497
5.79824e-05
0.00365202
4.8365e-05
0.00374965
3.67613e-05
0.00382314
2.26518e-05
0.00386633
5.71271e-06
0.00387442
-1.63178e-05
0.00383611
-4.22911e-05
0.00374021
-7.39818e-05
0.00357125
-0.00011454
0.00330632
-0.000168298
0.00290974
-0.000249375
0.00232225
-0.000393714
0.00148751
-0.000739148
0.000505473
-0.00144498
-0.00201153
0.00136009
0.00232737
0.00297112
0.00343805
0.00378388
0.00404563
0.00424993
0.0044146
0.00455137
0.00466806
0.00477
0.00486075
0.00494253
0.00501645
0.00508271
0.00514069
0.00518905
0.00522582
0.00524847
0.00525418
0.00523786
0.00519557
0.00512159
0.00500705
0.00483875
0.00458938
0.00419566
0.00345651
0.00201153
)
;

boundaryField
{
    movingWall
    {
        type            calculated;
        value           uniform 0;
    }
    fixedWalls
    {
        type            calculated;
        value           uniform 0;
    }
    frontAndBack
    {
        type            empty;
        value           nonuniform 0();
    }
}


// ************************************************************************* //
