/*--------------------------------*- C++ -*----------------------------------*\
  =========                 |
  \\      /  F ield         | OpenFOAM: The Open Source CFD Toolbox
   \\    /   O peration     | Website:  https://openfoam.org
    \\  /    A nd           | Version:  7
     \\/     M anipulation  |
\*---------------------------------------------------------------------------*/
FoamFile
{
    version     2.0;
    format      ascii;
    class       volVectorField;
    location    "7.7";
    object      U;
}
// * * * * * * * * * * * * * * * * * * * * * * * * * * * * * * * * * * * * * //

dimensions      [0 1 -1 0 0 0 0];

internalField   nonuniform List<vector> 
900
(
(8.44915e-05 -8.33172e-05 0)
(7.53199e-05 -1.97316e-07 0)
(-0.000261593 0.000103017 0)
(-0.000859836 0.000181231 0)
(-0.00164611 0.000230462 0)
(-0.00255314 0.000256945 0)
(-0.00352493 0.000268191 0)
(-0.00451956 0.000269664 0)
(-0.00550513 0.000264256 0)
(-0.00645446 0.000252785 0)
(-0.00734092 0.000234643 0)
(-0.00813561 0.000208402 0)
(-0.0088062 0.000172389 0)
(-0.00931726 0.000125249 0)
(-0.00963227 6.65167e-05 0)
(-0.00971714 -2.89671e-06 0)
(-0.00954449 -8.07643e-05 0)
(-0.00909928 -0.000162283 0)
(-0.00838435 -0.000241043 0)
(-0.00742439 -0.000309367 0)
(-0.00626798 -0.000359203 0)
(-0.00498644 -0.000383389 0)
(-0.00366881 -0.000376967 0)
(-0.00241337 -0.000338297 0)
(-0.00131652 -0.000269607 0)
(-0.000459576 -0.000177349 0)
(9.77513e-05 -7.33731e-05 0)
(0.000333472 2.91084e-05 0)
(0.000284252 0.000104327 0)
(9.84655e-05 9.85428e-05 0)
(2.92424e-06 -7.81168e-05 0)
(-0.000397991 0.000393117 0)
(-0.00150621 0.000907035 0)
(-0.00315269 0.00131706 0)
(-0.00520939 0.00160034 0)
(-0.00754594 0.00177109 0)
(-0.0100416 0.00185299 0)
(-0.0125953 0.00186622 0)
(-0.0151222 0.00182308 0)
(-0.0175462 0.00172812 0)
(-0.0197929 0.00158002 0)
(-0.0217854 0.00137402 0)
(-0.0234421 0.00110476 0)
(-0.0246786 0.000769096 0)
(-0.0254118 0.00036882 0)
(-0.0255687 -8.7127e-05 0)
(-0.0250944 -0.000580623 0)
(-0.0239633 -0.00108375 0)
(-0.0221916 -0.00156034 0)
(-0.0198429 -0.00196872 0)
(-0.0170321 -0.00226663 0)
(-0.0139219 -0.00241738 0)
(-0.0107119 -0.00239649 0)
(-0.00762087 -0.00219721 0)
(-0.0048625 -0.00183384 0)
(-0.00261921 -0.00134303 0)
(-0.00101669 -0.000785042 0)
(-9.73357e-05 -0.00023946 0)
(0.000204399 0.000177466 0)
(0.000108191 0.000280644 0)
(-0.000110028 0.00026597 0)
(-0.000973904 0.00151664 0)
(-0.00288765 0.00275194 0)
(-0.00551972 0.00374539 0)
(-0.00869404 0.00445218 0)
(-0.0122432 0.00489269 0)
(-0.0160059 0.0051086 0)
(-0.0198412 0.00513876 0)
(-0.0236257 0.0050086 0)
(-0.0272455 0.00472865 0)
(-0.0305885 0.0042974 0)
(-0.0335403 0.00370658 0)
(-0.035982 0.00294739 0)
(-0.0377933 0.0020172 0)
(-0.0388588 0.000925819 0)
(-0.0390782 -0.00029916 0)
(-0.0383782 -0.0016083 0)
(-0.0367276 -0.00293017 0)
(-0.0341513 -0.00417419 0)
(-0.0307389 -0.0052379 0)
(-0.0266499 -0.00601848 0)
(-0.0221091 -0.00642739 0)
(-0.0173928 -0.0064059 0)
(-0.0128046 -0.00593852 0)
(-0.00864374 -0.00506171 0)
(-0.00516841 -0.0038668 0)
(-0.00255912 -0.00249883 0)
(-0.000884041 -0.00115409 0)
(-7.54921e-05 -8.57847e-05 0)
(6.47309e-05 0.000364506 0)
(-0.000212931 0.000927439 0)
(-0.00152248 0.00329713 0)
(-0.00421551 0.00545445 0)
(-0.00777355 0.00716207 0)
(-0.0119625 0.00837821 0)
(-0.0165824 0.00913949 0)
(-0.0214429 0.00950892 0)
(-0.026376 0.00954461 0)
(-0.0312322 0.00928505 0)
(-0.0358708 0.0087464 0)
(-0.0401526 0.00792676 0)
(-0.0439351 0.00681434 0)
(-0.0470712 0.0053977 0)
(-0.0494125 0.00367666 0)
(-0.0508167 0.00167279 0)
(-0.0511594 -0.000561771 0)
(-0.050348 -0.00293947 0)
(-0.0483391 -0.00533431 0)
(-0.0451552 -0.00758841 0)
(-0.0408973 -0.00952378 0)
(-0.0357512 -0.0109614 0)
(-0.029986 -0.0117461 0)
(-0.0239385 -0.0117731 0)
(-0.017986 -0.0110123 0)
(-0.012507 -0.0095242 0)
(-0.00783498 -0.00746611 0)
(-0.00421176 -0.00508719 0)
(-0.00174326 -0.00271874 0)
(-0.000380724 -0.000764341 0)
(1.97871e-05 0.000280946 0)
(-0.000299527 0.00187365 0)
(-0.00201436 0.00569699 0)
(-0.00543306 0.00896542 0)
(-0.00984994 0.0114936 0)
(-0.0149686 0.0132779 0)
(-0.0205569 0.0143885 0)
(-0.0264004 0.014917 0)
(-0.0323129 0.0149433 0)
(-0.0381283 0.0145188 0)
(-0.0436892 0.0136647 0)
(-0.0488385 0.0123775 0)
(-0.053414 0.0106409 0)
(-0.0572468 0.00844 0)
(-0.060164 0.00577657 0)
(-0.0619972 0.00268431 0)
(-0.0625948 -0.000758861 0)
(-0.0618358 -0.00442366 0)
(-0.0596504 -0.0081232 0)
(-0.0560426 -0.0116228 0)
(-0.0511054 -0.0146555 0)
(-0.0450339 -0.0169495 0)
(-0.0381281 -0.0182641 0)
(-0.0307799 -0.0184309 0)
(-0.0234432 -0.0173925 0)
(-0.0165877 -0.0152297 0)
(-0.0106403 -0.0121719 0)
(-0.00592487 -0.00858797 0)
(-0.00260376 -0.00496362 0)
(-0.00066075 -0.00186998 0)
(-1.07215e-05 4.17696e-05 0)
(-0.000371984 0.00307159 0)
(-0.00244804 0.00866506 0)
(-0.00652874 0.0132301 0)
(-0.0117347 0.016681 0)
(-0.0177085 0.0190857 0)
(-0.0241868 0.0205687 0)
(-0.0309353 0.0212613 0)
(-0.0377558 0.0212696 0)
(-0.0444738 0.0206595 0)
(-0.0509241 0.0194563 0)
(-0.0569402 0.0176532 0)
(-0.0623473 0.0152265 0)
(-0.0669594 0.0121543 0)
(-0.0705813 0.00843638 0)
(-0.0730149 0.00411418 0)
(-0.0740733 -0.000712003 0)
(-0.0735927 -0.00587084 0)
(-0.0714575 -0.0111141 0)
(-0.06763 -0.0161224 0)
(-0.0621714 -0.0205252 0)
(-0.0552652 -0.0239358 0)
(-0.0472284 -0.0260014 0)
(-0.0385062 -0.0264616 0)
(-0.029641 -0.0252079 0)
(-0.0212186 -0.0223286 0)
(-0.0137939 -0.0181275 0)
(-0.00780834 -0.0131117 0)
(-0.00350909 -0.00794941 0)
(-0.00092595 -0.0034108 0)
(-2.74426e-05 -0.000330637 0)
(-0.000433807 0.00448963 0)
(-0.0028303 0.0121434 0)
(-0.00750862 0.0181814 0)
(-0.013435 0.0226541 0)
(-0.0201964 0.0257317 0)
(-0.0275016 0.0276137 0)
(-0.0351007 0.0284838 0)
(-0.0427898 0.0284809 0)
(-0.0503937 0.0276878 0)
(-0.0577477 0.0261335 0)
(-0.0646839 0.0238052 0)
(-0.0710219 0.0206672 0)
(-0.0765633 0.0166842 0)
(-0.0810907 0.0118454 0)
(-0.0843719 0.00619017 0)
(-0.086172 -0.000168354 0)
(-0.0862684 -0.00702194 0)
(-0.0844761 -0.0140664 0)
(-0.0806852 -0.0208918 0)
(-0.0748945 -0.0270079 0)
(-0.0672478 -0.0318858 0)
(-0.0580603 -0.0350223 0)
(-0.0478251 -0.036022 0)
(-0.0371875 -0.0346851 0)
(-0.0268835 -0.0310808 0)
(-0.0176448 -0.0255839 0)
(-0.010084 -0.0188606 0)
(-0.00457612 -0.0118044 0)
(-0.00121875 -0.00543629 0)
(-3.71287e-05 -0.000830334 0)
(-0.000487483 0.00610114 0)
(-0.00316773 0.0160778 0)
(-0.00838175 0.0237538 0)
(-0.014962 0.0293462 0)
(-0.0224478 0.0331537 0)
(-0.0305249 0.035471 0)
(-0.0389336 0.0365471 0)
(-0.0474708 0.0365619 0)
(-0.0559682 0.0356185 0)
(-0.0642699 0.0337495 0)
(-0.0722153 0.0309328 0)
(-0.0796258 0.0271144 0)
(-0.0862953 0.0222353 0)
(-0.0919853 0.0162614 0)
(-0.0964249 0.00921482 0)
(-0.0993177 0.00120517 0)
(-0.100365 -0.007541 0)
(-0.0992869 -0.0166688 0)
(-0.0958649 -0.0256767 0)
(-0.0899979 -0.0339397 0)
(-0.0817529 -0.040754 0)
(-0.071413 -0.0454161 0)
(-0.0595042 -0.0473337 0)
(-0.0467831 -0.0461529 0)
(-0.0341725 -0.0418758 0)
(-0.0226429 -0.0349309 0)
(-0.0130524 -0.0261671 0)
(-0.00596976 -0.0167623 0)
(-0.00160014 -0.00806732 0)
(-4.92864e-05 -0.0014812 0)
(-0.000534131 0.00788297 0)
(-0.00346374 0.0204177 0)
(-0.00915325 0.0298849 0)
(-0.0163217 0.0366938 0)
(-0.0244691 0.0412947 0)
(-0.0332649 0.0440958 0)
(-0.0424456 0.0454255 0)
(-0.0518157 0.0455131 0)
(-0.0612219 0.0444865 0)
(-0.070526 0.0423823 0)
(-0.0795834 0.0391653 0)
(-0.0882255 0.0347549 0)
(-0.0962448 0.0290557 0)
(-0.103384 0.0219923 0)
(-0.109331 0.0135479 0)
(-0.11372 0.00380456 0)
(-0.116157 -0.00701784 0)
(-0.11624 -0.0185285 0)
(-0.113606 -0.0301404 0)
(-0.108013 -0.041082 0)
(-0.0994035 -0.0504397 0)
(-0.0879833 -0.0572501 0)
(-0.0742781 -0.0606417 0)
(-0.0591476 -0.0600148 0)
(-0.0437296 -0.0552239 0)
(-0.0293029 -0.0467088 0)
(-0.0170692 -0.0355177 0)
(-0.00788802 -0.023189 0)
(-0.00214206 -0.0115154 0)
(-7.41073e-05 -0.00234267 0)
(-0.000573814 0.00981305 0)
(-0.00371836 0.0251135 0)
(-0.00982229 0.0365123 0)
(-0.0175107 0.0446323 0)
(-0.0262532 0.0500958 0)
(-0.0357087 0.053442 0)
(-0.0456165 0.0550918 0)
(-0.0557957 0.055334 0)
(-0.0661154 0.0543262 0)
(-0.0764639 0.0521102 0)
(-0.0867221 0.048634 0)
(-0.0967404 0.0437808 0)
(-0.106318 0.0374033 0)
(-0.115183 0.0293631 0)
(-0.122984 0.0195763 0)
(-0.129282 0.00806532 0)
(-0.133576 -0.00498565 0)
(-0.135317 -0.0191753 0)
(-0.133972 -0.0338502 0)
(-0.129113 -0.0480882 0)
(-0.120505 -0.0607351 0)
(-0.108215 -0.0705039 0)
(-0.0927098 -0.076146 0)
(-0.0749134 -0.0766913 0)
(-0.0561819 -0.0717204 0)
(-0.0381646 -0.0615973 0)
(-0.0225254 -0.0475617 0)
(-0.0105539 -0.0315994 0)
(-0.00292484 -0.016097 0)
(-0.000122147 -0.00351435 0)
(-0.000605888 0.0118684 0)
(-0.00392896 0.0301141 0)
(-0.0103826 0.0435703 0)
(-0.018517 0.0530918 0)
(-0.0277787 0.0594902 0)
(-0.0378218 0.0634519 0)
(-0.0483937 0.0655043 0)
(-0.0593335 0.0660051 0)
(-0.0705402 0.0651489 0)
(-0.081936 0.0629842 0)
(-0.0934364 0.0594386 0)
(-0.10492 0.0543496 0)
(-0.116201 0.0475011 0)
(-0.127004 0.038667 0)
(-0.136942 0.0276651 0)
(-0.145509 0.0144207 0)
(-0.152088 -0.000956553 0)
(-0.155985 -0.0180879 0)
(-0.156477 -0.0362843 0)
(-0.152914 -0.0544832 0)
(-0.144833 -0.0712738 0)
(-0.132088 -0.0849909 0)
(-0.115001 -0.0939053 0)
(-0.0944735 -0.0965236 0)
(-0.0720351 -0.0919702 0)
(-0.0497354 -0.080374 0)
(-0.0298253 -0.0631022 0)
(-0.0142099 -0.0426668 0)
(-0.00403725 -0.0222446 0)
(-0.000204728 -0.00513978 0)
(-0.000629337 0.0140241 0)
(-0.00409138 0.0353641 0)
(-0.0108247 0.0509872 0)
(-0.0193224 0.0619926 0)
(-0.0290138 0.0693966 0)
(-0.0395518 0.0740475 0)
(-0.0506951 0.0765927 0)
(-0.0623072 0.0774703 0)
(-0.0743212 0.0769185 0)
(-0.0866996 0.0749958 0)
(-0.099399 0.071607 0)
(-0.112335 0.0665348 0)
(-0.125347 0.0594778 0)
(-0.138164 0.0500978 0)
(-0.150381 0.038082 0)
(-0.161436 0.023222 0)
(-0.17061 0.00550976 0)
(-0.177075 -0.014753 0)
(-0.179929 -0.0368691 0)
(-0.178288 -0.0596676 0)
(-0.171418 -0.0814927 0)
(-0.158889 -0.100274 0)
(-0.140762 -0.113715 0)
(-0.117782 -0.119633 0)
(-0.0915276 -0.116459 0)
(-0.0644065 -0.103826 0)
(-0.0393524 -0.0830567 0)
(-0.019113 -0.0572193 0)
(-0.00557839 -0.0305149 0)
(-0.000335013 -0.00741102 0)
(-0.000643156 0.0162522 0)
(-0.00420171 0.0408035 0)
(-0.0111391 0.0586834 0)
(-0.0199076 0.0712428 0)
(-0.0299225 0.079714 0)
(-0.0408361 0.0851216 0)
(-0.0524195 0.0882461 0)
(-0.0645613 0.0896174 0)
(-0.0772302 0.0895259 0)
(-0.0904311 0.0880439 0)
(-0.104166 0.0850523 0)
(-0.118391 0.080272 0)
(-0.132982 0.0733019 0)
(-0.147686 0.0636705 0)
(-0.162096 0.0509065 0)
(-0.175621 0.0346332 0)
(-0.187483 0.0146847 0)
(-0.196748 -0.00876363 0)
(-0.202367 -0.035053 0)
(-0.20325 -0.0629574 0)
(-0.198388 -0.0906238 0)
(-0.187008 -0.115598 0)
(-0.168787 -0.134977 0)
(-0.144125 -0.145747 0)
(-0.114435 -0.145366 0)
(-0.0823237 -0.132595 0)
(-0.0514128 -0.10837 0)
(-0.0255218 -0.076214 0)
(-0.00766014 -0.0415943 0)
(-0.000529735 -0.0105752 0)
(-0.000646803 0.0185232 0)
(-0.00425844 0.0463687 0)
(-0.0113217 0.0665721 0)
(-0.0202603 0.0807363 0)
(-0.0304753 0.0903184 0)
(-0.0416159 0.0965312 0)
(-0.0534628 0.100302 0)
(-0.0659272 0.102263 0)
(-0.0790105 0.102767 0)
(-0.092758 0.101905 0)
(-0.107215 0.0995341 0)
(-0.122384 0.0953092 0)
(-0.138178 0.0887207 0)
(-0.15438 0.0791494 0)
(-0.170603 0.0659459 0)
(-0.186266 0.0485404 0)
(-0.200586 0.0265788 0)
(-0.212585 7.78834e-05 0)
(-0.221134 -0.03041 0)
(-0.225009 -0.063668 0)
(-0.222961 -0.0977396 0)
(-0.213856 -0.129874 0)
(-0.196885 -0.156605 0)
(-0.171898 -0.174016 0)
(-0.139842 -0.178331 0)
(-0.103208 -0.166954 0)
(-0.0661362 -0.139862 0)
(-0.0336689 -0.100677 0)
(-0.0104073 -0.0562936 0)
(-0.000811353 -0.0149423 0)
(-0.000640759 0.0208075 0)
(-0.00426529 0.0519962 0)
(-0.0113796 0.0745633 0)
(-0.0203847 0.0903562 0)
(-0.0306625 0.101062 0)
(-0.0418529 0.108095 0)
(-0.0537404 0.112539 0)
(-0.0662523 0.115145 0)
(-0.079416 0.116331 0)
(-0.0933101 0.116215 0)
(-0.108018 0.114634 0)
(-0.123584 0.111177 0)
(-0.139965 0.105222 0)
(-0.15699 0.096001 0)
(-0.174324 0.0826803 0)
(-0.191438 0.0644897 0)
(-0.207607 0.0408741 0)
(-0.2219 0.0116649 0)
(-0.233201 -0.0227452 0)
(-0.240255 -0.061231 0)
(-0.241676 -0.101862 0)
(-0.236006 -0.141751 0)
(-0.22191 -0.177017 0)
(-0.198511 -0.202898 0)
(-0.165951 -0.21422 0)
(-0.12614 -0.206522 0)
(-0.0833267 -0.177989 0)
(-0.043703 -0.131582 0)
(-0.0139516 -0.0755251 0)
(-0.00121008 -0.0208935 0)
(-0.000627184 0.0230791 0)
(-0.00423453 0.05763 0)
(-0.0113389 0.0825708 0)
(-0.020313 0.0999801 0)
(-0.0305097 0.11178 0)
(-0.0415502 0.119594 0)
(-0.0532139 0.124683 0)
(-0.0654354 0.127917 0)
(-0.0782586 0.129798 0)
(-0.0917848 0.13047 0)
(-0.106126 0.129757 0)
(-0.121362 0.127187 0)
(-0.137495 0.122036 0)
(-0.154414 0.113391 0)
(-0.171859 0.100252 0)
(-0.189406 0.0816594 0)
(-0.206451 0.0568679 0)
(-0.222207 0.0255195 0)
(-0.235679 -0.0121863 0)
(-0.245713 -0.055337 0)
(-0.250924 -0.102138 0)
(-0.249648 -0.149789 0)
(-0.240075 -0.194261 0)
(-0.22052 -0.230177 0)
(-0.190027 -0.25099 0)
(-0.149388 -0.249975 0)
(-0.102279 -0.22253 0)
(-0.055595 -0.169653 0)
(-0.0184157 -0.100244 0)
(-0.00176585 -0.0288843 0)
(-0.000610738 0.0253219 0)
(-0.00419107 0.0632326 0)
(-0.0112533 0.0905245 0)
(-0.0201189 0.10949 0)
(-0.0300953 0.122294 0)
(-0.0407732 0.130785 0)
(-0.0519182 0.136407 0)
(-0.0634631 0.140169 0)
(-0.0754579 0.142655 0)
(-0.0880156 0.144048 0)
(-0.101267 0.144162 0)
(-0.115319 0.142476 0)
(-0.130221 0.13818 0)
(-0.145929 0.130243 0)
(-0.162289 0.117524 0)
(-0.179016 0.0989109 0)
(-0.195691 0.0734971 0)
(-0.211751 0.0407544 0)
(-0.226456 0.000678843 0)
(-0.238856 -0.0460998 0)
(-0.247701 -0.0980639 0)
(-0.25133 -0.152745 0)
(-0.247614 -0.206319 0)
(-0.23412 -0.253192 0)
(-0.208651 -0.285747 0)
(-0.170401 -0.294872 0)
(-0.121629 -0.272244 0)
(-0.0690169 -0.21507 0)
(-0.0238894 -0.131336 0)
(-0.002531 -0.0394408 0)
(-0.000599732 0.0275374 0)
(-0.00417759 0.0688009 0)
(-0.0112145 0.0983866 0)
(-0.0199311 0.11879 0)
(-0.0295667 0.132431 0)
(-0.0396697 0.141406 0)
(-0.0499855 0.147358 0)
(-0.0604399 0.151441 0)
(-0.0710823 0.15433 0)
(-0.0820294 0.156252 0)
(-0.0934222 0.15702 0)
(-0.105392 0.156082 0)
(-0.118034 0.152564 0)
(-0.131386 0.145354 0)
(-0.145413 0.133213 0)
(-0.160006 0.114925 0)
(-0.174969 0.0894688 0)
(-0.190019 0.0561773 0)
(-0.204753 0.0148609 0)
(-0.218523 -0.0341145 0)
(-0.230359 -0.0896766 0)
(-0.238799 -0.149897 0)
(-0.241637 -0.211528 0)
(-0.235922 -0.269294 0)
(-0.218296 -0.315095 0)
(-0.186094 -0.337746 0)
(-0.139352 -0.324635 0)
(-0.0832354 -0.267124 0)
(-0.0304017 -0.169451 0)
(-0.00357576 -0.0531448 0)
(-0.000608057 0.0297565 0)
(-0.00426193 0.0743877 0)
(-0.0113648 0.106172 0)
(-0.0199487 0.127816 0)
(-0.0291554 0.142032 0)
(-0.0384837 0.151194 0)
(-0.0476594 0.157166 0)
(-0.0566046 0.161256 0)
(-0.0653691 0.164234 0)
(-0.0740723 0.166372 0)
(-0.0828643 0.1675 0)
(-0.0919011 0.16705 0)
(-0.101328 0.164118 0)
(-0.111272 0.157551 0)
(-0.121836 0.146064 0)
(-0.133099 0.128395 0)
(-0.145115 0.10346 0)
(-0.157899 0.0705048 0)
(-0.171389 0.0291874 0)
(-0.185315 -0.0203771 0)
(-0.199106 -0.0776116 0)
(-0.211637 -0.141272 0)
(-0.220903 -0.209007 0)
(-0.223789 -0.276428 0)
(-0.216111 -0.335754 0)
(-0.193416 -0.374539 0)
(-0.152992 -0.376003 0)
(-0.0970791 -0.323914 0)
(-0.0379008 -0.214765 0)
(-0.00500003 -0.0706148 0)
(-0.000658995 0.0320571 0)
(-0.00454911 0.0801291 0)
(-0.0119154 0.113973 0)
(-0.0204583 0.136559 0)
(-0.0291893 0.150968 0)
(-0.0375608 0.159902 0)
(-0.0452944 0.165472 0)
(-0.0523243 0.169149 0)
(-0.0587139 0.171799 0)
(-0.0645942 0.173747 0)
(-0.0701313 0.174845 0)
(-0.0755121 0.174533 0)
(-0.0809405 0.171911 0)
(-0.0866394 0.16583 0)
(-0.0928562 0.155013 0)
(-0.0998647 0.138201 0)
(-0.10796 0.114306 0)
(-0.117444 0.0825313 0)
(-0.128577 0.0424285 0)
(-0.141467 -0.0061198 0)
(-0.155959 -0.0630034 0)
(-0.171368 -0.127682 0)
(-0.186125 -0.198897 0)
(-0.197358 -0.273615 0)
(-0.20058 -0.34525 0)
(-0.189997 -0.401316 0)
(-0.160083 -0.421846 0)
(-0.109019 -0.382226 0)
(-0.0462444 -0.266722 0)
(-0.00695483 -0.0924917 0)
(-0.000793324 0.034591 0)
(-0.00520284 0.086283 0)
(-0.0131726 0.121984 0)
(-0.0218539 0.145072 0)
(-0.0300992 0.159137 0)
(-0.0373404 0.167291 0)
(-0.0433328 0.171926 0)
(-0.048058 0.174681 0)
(-0.0516195 0.176516 0)
(-0.0541796 0.177806 0)
(-0.0559354 0.178433 0)
(-0.0571161 0.177868 0)
(-0.0579921 0.175247 0)
(-0.0588869 0.169466 0)
(-0.0601896 0.159301 0)
(-0.0623567 0.143544 0)
(-0.065903 0.12114 0)
(-0.0713757 0.0912872 0)
(-0.0793074 0.0534621 0)
(-0.0901519 0.00735621 0)
(-0.104101 -0.0472663 0)
(-0.120911 -0.110545 0)
(-0.139619 -0.182319 0)
(-0.157948 -0.261161 0)
(-0.171724 -0.342425 0)
(-0.174559 -0.414999 0)
(-0.158582 -0.45754 0)
(-0.117352 -0.437722 0)
(-0.0551811 -0.323786 0)
(-0.00966708 -0.119439 0)
(-0.00108704 0.037631 0)
(-0.00648548 0.0932795 0)
(-0.0155783 0.130523 0)
(-0.0246569 0.153467 0)
(-0.032411 0.166453 0)
(-0.03832 0.173123 0)
(-0.0422446 0.176186 0)
(-0.0442714 0.177447 0)
(-0.0445858 0.177943 0)
(-0.0434101 0.178093 0)
(-0.0409914 0.177811 0)
(-0.0376138 0.176613 0)
(-0.0336191 0.173698 0)
(-0.0294274 0.168042 0)
(-0.0255569 0.158511 0)
(-0.0226212 0.143977 0)
(-0.0213152 0.123444 0)
(-0.0223853 0.0961265 0)
(-0.0265739 0.0614482 0)
(-0.0345554 0.0189558 0)
(-0.0468182 -0.0318243 0)
(-0.0635504 -0.0915858 0)
(-0.0843776 -0.161101 0)
(-0.107853 -0.240516 0)
(-0.130693 -0.327568 0)
(-0.146842 -0.41385 0)
(-0.147032 -0.479025 0)
(-0.120352 -0.485376 0)
(-0.0642775 -0.383283 0)
(-0.0134423 -0.152154 0)
(-0.00168963 0.0416576 0)
(-0.00883157 0.101787 0)
(-0.0197665 0.140035 0)
(-0.0295252 0.161873 0)
(-0.0366978 0.172786 0)
(-0.0409548 0.177104 0)
(-0.0423806 0.177873 0)
(-0.0412499 0.177039 0)
(-0.0378833 0.175686 0)
(-0.0325961 0.174251 0)
(-0.0257044 0.172674 0)
(-0.017555 0.170525 0)
(-0.00855805 0.167079 0)
(0.000786309 0.161416 0)
(0.00985535 0.152512 0)
(0.0179163 0.139343 0)
(0.0241485 0.120986 0)
(0.0276682 0.0966793 0)
(0.0275915 0.0658111 0)
(0.023095 0.0278247 0)
(0.0134765 -0.0179561 0)
(-0.00179221 -0.0725632 0)
(-0.0228815 -0.137387 0)
(-0.0492502 -0.213877 0)
(-0.0789039 -0.302186 0)
(-0.107041 -0.397547 0)
(-0.12433 -0.483231 0)
(-0.116236 -0.519971 0)
(-0.0727182 -0.441316 0)
(-0.0185832 -0.191303 0)
(-0.00290361 0.0475212 0)
(-0.0129756 0.112786 0)
(-0.0266193 0.151044 0)
(-0.0371911 0.170326 0)
(-0.0434014 0.177843 0)
(-0.0453763 0.178769 0)
(-0.0436032 0.176472 0)
(-0.0386513 0.172968 0)
(-0.0310363 0.169326 0)
(-0.0211979 0.165956 0)
(-0.00953258 0.162806 0)
(0.00355296 0.159489 0)
(0.0175945 0.155366 0)
(0.0320374 0.149624 0)
(0.0462046 0.141359 0)
(0.0593002 0.129664 0)
(0.0704322 0.113696 0)
(0.0786442 0.092721 0)
(0.0829707 0.0661018 0)
(0.0824872 0.0332039 0)
(0.0763196 -0.00677365 0)
(0.0637166 -0.0550179 0)
(0.0440454 -0.113245 0)
(0.0169465 -0.183717 0)
(-0.0169973 -0.268527 0)
(-0.0549816 -0.366951 0)
(-0.0891772 -0.468149 0)
(-0.102838 -0.536356 0)
(-0.0789107 -0.492608 0)
(-0.0251204 -0.237218 0)
(-0.00533927 0.056761 0)
(-0.0201449 0.127616 0)
(-0.0372257 0.163947 0)
(-0.0481335 0.178481 0)
(-0.0522456 0.180878 0)
(-0.0505926 0.177234 0)
(-0.0443119 0.171117 0)
(-0.0343904 0.164476 0)
(-0.0215952 0.158255 0)
(-0.00651102 0.152773 0)
(0.0103903 0.147942 0)
(0.0286623 0.143396 0)
(0.0478199 0.138568 0)
(0.067304 0.132753 0)
(0.0864412 0.125169 0)
(0.104438 0.115023 0)
(0.1204 0.101556 0)
(0.133356 0.0840746 0)
(0.142307 0.0619367 0)
(0.146254 0.0344696 0)
(0.144202 0.000828842 0)
(0.135178 -0.04019 0)
(0.118141 -0.0903699 0)
(0.0920507 -0.15226 0)
(0.0561243 -0.229128 0)
(0.0107681 -0.323833 0)
(-0.0392893 -0.432812 0)
(-0.0769255 -0.529329 0)
(-0.0799357 -0.530107 0)
(-0.0322916 -0.289351 0)
(-0.0101811 0.0722594 0)
(-0.0322471 0.14784 0)
(-0.0523387 0.178452 0)
(-0.0613013 0.184962 0)
(-0.0603973 0.180095 0)
(-0.0522452 0.170683 0)
(-0.0389297 0.160175 0)
(-0.0219637 0.150203 0)
(-0.00238498 0.141419 0)
(0.0191028 0.133949 0)
(0.0419915 0.12761 0)
(0.0658523 0.122015 0)
(0.0902516 0.116647 0)
(0.114696 0.110895 0)
(0.138589 0.104092 0)
(0.161217 0.095558 0)
(0.181752 0.08463 0)
(0.199269 0.0706797 0)
(0.212777 0.0530981 0)
(0.221231 0.031237 0)
(0.223496 0.00430034 0)
(0.218393 -0.0288585 0)
(0.204538 -0.0698363 0)
(0.180317 -0.121045 0)
(0.143898 -0.186135 0)
(0.0935957 -0.27037 0)
(0.0297237 -0.377511 0)
(-0.0329628 -0.493772 0)
(-0.07104 -0.544878 0)
(-0.0379377 -0.346011 0)
(-0.0194762 0.099105 0)
(-0.0514413 0.173944 0)
(-0.0695971 0.191938 0)
(-0.0695886 0.185862 0)
(-0.0569911 0.171459 0)
(-0.0367688 0.155519 0)
(-0.012091 0.140687 0)
(0.0150984 0.127853 0)
(0.0436524 0.117145 0)
(0.072917 0.108363 0)
(0.102503 0.101154 0)
(0.132133 0.095076 0)
(0.161542 0.0896356 0)
(0.190407 0.0843012 0)
(0.2183 0.0785186 0)
(0.244663 0.0717302 0)
(0.268806 0.0633902 0)
(0.289909 0.0529701 0)
(0.307035 0.0399442 0)
(0.319138 0.0237514 0)
(0.324933 0.00372402 0)
(0.323092 -0.0210181 0)
(0.311936 -0.0517891 0)
(0.289388 -0.0906135 0)
(0.252818 -0.140778 0)
(0.199027 -0.208371 0)
(0.124913 -0.3029 0)
(0.0386515 -0.426642 0)
(-0.0447098 -0.527463 0)
(-0.0374097 -0.402515 0)
(-0.0348423 0.14325 0)
(-0.0743067 0.198729 0)
(-0.0706022 0.193285 0)
(-0.0449853 0.170322 0)
(-0.00888143 0.145999 0)
(0.0311587 0.124907 0)
(0.0718534 0.107729 0)
(0.111701 0.0940624 0)
(0.150098 0.0832934 0)
(0.186906 0.0748253 0)
(0.222181 0.0681202 0)
(0.256026 0.0626879 0)
(0.288503 0.0580704 0)
(0.319571 0.0538291 0)
(0.349055 0.0495391 0)
(0.376619 0.0447899 0)
(0.401761 0.0391879 0)
(0.423808 0.0323551 0)
(0.441926 0.0239159 0)
(0.455123 0.0134651 0)
(0.46214 0.000491126 0)
(0.461585 -0.0154653 0)
(0.451512 -0.0353118 0)
(0.429632 -0.060516 0)
(0.392775 -0.0935279 0)
(0.3371 -0.13964 0)
(0.256257 -0.210262 0)
(0.152148 -0.324748 0)
(0.0149106 -0.465777 0)
(-0.017262 -0.441594 0)
(-0.0376762 0.235705 0)
(-0.0482952 0.203048 0)
(0.026502 0.152476 0)
(0.0981781 0.116817 0)
(0.165186 0.0904762 0)
(0.225593 0.0712378 0)
(0.279104 0.0574378 0)
(0.326442 0.0474937 0)
(0.368609 0.0402197 0)
(0.406563 0.0348192 0)
(0.441112 0.0307434 0)
(0.47289 0.0275829 0)
(0.502347 0.0250089 0)
(0.529746 0.0227425 0)
(0.555158 0.0205362 0)
(0.578466 0.0181656 0)
(0.599361 0.015425 0)
(0.617351 0.0121247 0)
(0.631763 0.0080899 0)
(0.641693 0.00314457 0)
(0.64618 -0.0028764 0)
(0.643996 -0.0103088 0)
(0.633242 -0.0195655 0)
(0.611853 -0.031324 0)
(0.576456 -0.0468461 0)
(0.523418 -0.069511 0)
(0.442921 -0.107562 0)
(0.333523 -0.188084 0)
(0.143261 -0.335832 0)
(0.0605743 -0.412744 0)
(0.231257 0.158599 0)
(0.291167 0.116943 0)
(0.440253 0.0757349 0)
(0.538695 0.050421 0)
(0.605424 0.0341484 0)
(0.654799 0.0234741 0)
(0.692983 0.0165734 0)
(0.723315 0.0121314 0)
(0.748108 0.00923694 0)
(0.768979 0.00731572 0)
(0.787017 0.0060127 0)
(0.802946 0.00509921 0)
(0.817233 0.0044194 0)
(0.830149 0.00386077 0)
(0.8418 0.00333733 0)
(0.852149 0.00277995 0)
(0.861032 0.00213159 0)
(0.868171 0.00134257 0)
(0.873188 0.000377847 0)
(0.875617 -0.000802007 0)
(0.874849 -0.00213617 0)
(0.870126 -0.00381074 0)
(0.860534 -0.00592471 0)
(0.845078 -0.00859958 0)
(0.821371 -0.0120881 0)
(0.787695 -0.0174351 0)
(0.732374 -0.0268296 0)
(0.655588 -0.0488348 0)
(0.454001 -0.109939 0)
(0.313152 -0.177434 0)
)
;

boundaryField
{
    movingWall
    {
        type            fixedValue;
        value           uniform (1 0 0);
    }
    fixedWalls
    {
        type            noSlip;
    }
    frontAndBack
    {
        type            empty;
    }
}


// ************************************************************************* //
