/*--------------------------------*- C++ -*----------------------------------*\
  =========                 |
  \\      /  F ield         | OpenFOAM: The Open Source CFD Toolbox
   \\    /   O peration     | Website:  https://openfoam.org
    \\  /    A nd           | Version:  7
     \\/     M anipulation  |
\*---------------------------------------------------------------------------*/
FoamFile
{
    version     2.0;
    format      ascii;
    class       surfaceScalarField;
    location    "6.9";
    object      phi;
}
// * * * * * * * * * * * * * * * * * * * * * * * * * * * * * * * * * * * * * //

dimensions      [0 3 -1 0 0 0 0];

internalField   nonuniform List<scalar> 
1740
(
4.84016e-07
-4.8403e-07
-5.81265e-07
1.06528e-06
-3.29876e-06
2.71749e-06
-7.30803e-06
4.00928e-06
-1.21868e-05
4.8788e-06
-1.75731e-05
5.38626e-06
-2.31902e-05
5.61706e-06
-2.8831e-05
5.64088e-06
-3.43312e-05
5.5001e-06
-3.9543e-05
5.21188e-06
-4.43175e-05
4.77449e-06
-4.84923e-05
4.17477e-06
-5.18885e-05
3.39618e-06
-5.43155e-05
2.42699e-06
-5.55839e-05
1.26845e-06
-5.55245e-05
-5.94334e-08
-5.40138e-05
-1.51062e-06
-5.10029e-05
-3.01092e-06
-4.65441e-05
-4.45876e-06
-4.08096e-05
-5.73451e-06
-3.40978e-05
-6.71185e-06
-2.68225e-05
-7.27528e-06
-1.94833e-05
-7.33923e-06
-1.2618e-05
-6.86524e-06
-6.74478e-06
-5.87324e-06
-2.29847e-06
-4.44631e-06
4.40993e-07
-2.73947e-06
1.44516e-06
-1.00417e-06
9.66584e-07
4.78576e-07
9.66582e-07
-1.06629e-06
5.82258e-07
-5.55612e-06
5.55512e-06
-1.34333e-05
1.05947e-05
-2.40282e-05
1.46041e-05
-3.65655e-05
1.74161e-05
-5.03138e-05
1.91346e-05
-6.4646e-05
1.99492e-05
-7.90389e-05
2.00337e-05
-9.3043e-05
1.95043e-05
-0.000106246
1.84146e-05
-0.000118239
1.67682e-05
-0.000128602
1.45377e-05
-0.000136895
1.16885e-05
-0.000142671
8.20369e-06
-0.00014551
4.10683e-06
-0.000145065
-5.04388e-07
-0.000141085
-5.49007e-06
-0.000133519
-1.05775e-05
-0.000122532
-1.54452e-05
-0.000108555
-1.97121e-05
-9.22843e-05
-2.29823e-05
-7.46615e-05
-2.4898e-05
-5.6803e-05
-2.51978e-05
-3.98987e-05
-2.37695e-05
-2.50836e-05
-2.06883e-05
-1.32953e-05
-1.62346e-05
-5.1304e-06
-1.09043e-05
-7.11914e-07
-5.42267e-06
5.44677e-07
-7.7802e-07
1.51126e-06
-2.89095e-06
3.47321e-06
-1.11519e-05
1.38161e-05
-2.40049e-05
2.34477e-05
-4.0478e-05
3.10772e-05
-5.95391e-05
3.64773e-05
-8.02217e-05
3.98173e-05
-0.000101672
4.13997e-05
-0.000123148
4.15096e-05
-0.000143988
4.03444e-05
-0.000163574
3.80005e-05
-0.000181296
3.44902e-05
-0.000196533
2.97747e-05
-0.000208651
2.38065e-05
-0.000217022
1.65749e-05
-0.000221067
8.15125e-06
-0.000220306
-1.26495e-06
-0.000214426
-1.137e-05
-0.000203368
-2.16359e-05
-0.00018738
-3.14327e-05
-0.000167069
-4.00232e-05
-0.000143407
-4.66448e-05
-0.000117697
-5.06078e-05
-9.14874e-05
-5.14073e-05
-6.64308e-05
-4.88262e-05
-4.41072e-05
-4.3012e-05
-2.58278e-05
-3.4514e-05
-1.24434e-05
-2.42887e-05
-4.1757e-06
-1.36903e-05
-4.91165e-07
-4.46256e-06
1.02009e-06
-4.58158e-06
8.05479e-06
-1.64222e-05
2.56567e-05
-3.39637e-05
4.09893e-05
-5.57951e-05
5.29085e-05
-8.06234e-05
6.13056e-05
-0.000107295
6.64887e-05
-0.000134798
6.89027e-05
-0.000162242
6.89536e-05
-0.00018882
6.69226e-05
-0.000213768
6.29481e-05
-0.000236327
5.70494e-05
-0.000255727
4.91751e-05
-0.000271186
3.92653e-05
-0.000281931
2.732e-05
-0.000287248
1.34678e-05
-0.000286544
-1.96877e-06
-0.000279419
-1.8495e-05
-0.000265775
-3.52804e-05
-0.000245881
-5.13263e-05
-0.00022044
-6.54642e-05
-0.000190608
-7.64766e-05
-0.000157964
-8.32522e-05
-0.000124408
-8.49626e-05
-9.20002e-05
-8.12344e-05
-6.27326e-05
-7.22796e-05
-3.82876e-05
-5.8959e-05
-1.98005e-05
-4.27759e-05
-7.6757e-06
-2.58151e-05
-1.48169e-06
-1.06566e-05
-4.61592e-07
-6.05508e-06
1.41099e-05
-2.11594e-05
4.0761e-05
-4.30073e-05
6.28372e-05
-6.97254e-05
7.96266e-05
-9.97452e-05
9.13255e-05
-0.000131742
9.84854e-05
-0.000164584
0.000101745
-0.000197283
0.000101653
-0.00022894
9.85789e-05
-0.000258694
9.27022e-05
-0.000285687
8.4043e-05
-0.000309041
7.25284e-05
-0.000327852
5.80762e-05
-0.000341218
4.06863e-05
-0.000348286
2.05357e-05
-0.000348333
-1.92113e-06
-0.000340805
-2.60232e-05
-0.000325499
-5.05866e-05
-0.000302618
-7.42073e-05
-0.000272869
-9.52129e-05
-0.000237514
-0.000111832
-0.000198354
-0.000122413
-0.000157632
-0.000125684
-0.000117846
-0.000121021
-8.1471e-05
-0.000108655
-5.06511e-05
-8.97789e-05
-2.68994e-05
-6.65276e-05
-1.08763e-05
-4.18383e-05
-2.29317e-06
-1.92397e-05
-2.75476e-06
-7.32468e-06
2.14346e-05
-2.53492e-05
5.87855e-05
-5.11047e-05
8.85927e-05
-8.22766e-05
0.000110799
-0.000117027
0.000126075
-0.000153872
0.000135331
-0.00019159
0.000139462
-0.000229129
0.000139193
-0.000265544
0.000134994
-0.000299926
0.000127084
-0.000331358
0.000115475
-0.000358884
0.000100055
-0.000381503
8.06947e-05
-0.000398181
5.73644e-05
-0.000407891
3.02463e-05
-0.000409771
-4.10901e-08
-0.000402964
-3.28306e-05
-0.0003871
-6.64507e-05
-0.000362185
-9.91226e-05
-0.000328812
-0.000128585
-0.000288258
-0.000152386
-0.000242504
-0.000168167
-0.000194158
-0.000174029
-0.000146248
-0.000168931
-0.000101884
-0.000153018
-6.3851e-05
-0.000127812
-3.42007e-05
-9.61779e-05
-1.39519e-05
-6.2087e-05
-2.9621e-06
-3.02295e-05
-5.71685e-06
-8.4272e-06
2.98617e-05
-2.90514e-05
7.94097e-05
-5.83362e-05
0.000117878
-9.3571e-05
0.000146033
-0.000132671
0.000165175
-0.000174015
0.000176676
-0.000216315
0.000181762
-0.000258496
0.000181374
-0.000299604
0.000176102
-0.000338725
0.000166205
-0.000374925
0.000151675
-0.000407205
0.000132334
-0.000434479
0.000107969
-0.000455581
7.84666e-05
-0.000469304
4.39692e-05
-0.000474394
5.04868e-06
-0.000469878
-3.73468e-05
-0.000454899
-8.14298e-05
-0.000429135
-0.000124886
-0.000392916
-0.000164804
-0.000347401
-0.000197901
-0.000294687
-0.000220881
-0.000237771
-0.000230945
-0.000180341
-0.000226361
-0.000126361
-0.000206998
-7.95266e-05
-0.000174647
-4.26827e-05
-0.000133022
-1.7372e-05
-8.73977e-05
-3.62696e-06
-4.39745e-05
-9.34381e-06
-9.3951e-06
3.92568e-05
-3.23354e-05
0.00010235
-6.48044e-05
0.000150347
-0.00010375
0.000184979
-0.000146875
0.0002083
-0.00019245
0.000222251
-0.00023915
0.000228462
-0.000285912
0.000228136
-0.000331818
0.000222007
-0.000375994
0.000210381
-0.000417531
0.000193212
-0.000455421
0.000170225
-0.000488517
0.000141064
-0.000515509
0.000105459
-0.000534945
6.34048e-05
-0.000545269
1.53726e-05
-0.000545
-3.76156e-05
-0.000532792
-9.36374e-05
-0.000507773
-0.000149905
-0.000469791
-0.000202786
-0.000419705
-0.000247987
-0.0003596
-0.000280986
-0.000292852
-0.000297693
-0.000223936
-0.000295277
-0.000157948
-0.000272986
-9.98632e-05
-0.000232731
-5.36976e-05
-0.000179187
-2.17969e-05
-0.000119298
-4.4778e-06
-6.12936e-05
-1.38216e-05
-1.02488e-05
4.95056e-05
-3.52513e-05
0.000127352
-7.05881e-05
0.000185683
-0.00011292
0.000227311
-0.000159777
0.000255157
-0.000209354
0.000271827
-0.000260322
0.000279431
-0.000311671
0.000279485
-0.000362563
0.000272899
-0.000412215
0.000260032
-0.000459792
0.000240789
-0.000504321
0.000214755
-0.000544621
0.000181364
-0.000579246
0.000140084
-0.000606478
9.06368e-05
-0.000624351
3.32457e-05
-0.000630811
-3.11561e-05
-0.000623793
-0.000100655
-0.000601658
-0.00017204
-0.000563515
-0.000240929
-0.000509657
-0.000301845
-0.000441949
-0.000348694
-0.000364042
-0.0003756
-0.000281281
-0.000378039
-0.000200181
-0.000354086
-0.000127476
-0.000305437
-6.88914e-05
-0.000237772
-2.80298e-05
-0.00016016
-5.73781e-06
-8.35856e-05
-1.95594e-05
-1.0997e-05
6.05027e-05
-3.78244e-05
0.00015418
-7.57267e-05
0.000223586
-0.000121129
0.000272714
-0.000171426
0.000305453
-0.000224768
0.00032517
-0.000279863
0.000334526
-0.000335791
0.000335412
-0.000391842
0.000328951
-0.000447377
0.000315567
-0.000501692
0.000295104
-0.000553903
0.000266966
-0.000602836
0.000230297
-0.000646934
0.000184183
-0.000684204
0.000127907
-0.000712207
6.1248e-05
-0.000728235
-1.51278e-05
-0.000729309
-9.95808e-05
-0.000712802
-0.000188547
-0.000676784
-0.000276947
-0.000620649
-0.000357981
-0.000545709
-0.000423634
-0.000455652
-0.000465658
-0.000356637
-0.000477053
-0.000256838
-0.000453885
-0.000165283
-0.000396992
-9.01488e-05
-0.000312906
-3.69958e-05
-0.000213313
-7.65893e-06
-0.000112923
-2.72184e-05
-1.16399e-05
7.21425e-05
-4.00566e-05
0.000182597
-8.02198e-05
0.000263749
-0.000128361
0.000320855
-0.000181772
0.000358864
-0.000238592
0.000381989
-0.000297593
0.000393528
-0.000357987
0.000395806
-0.000419238
0.000390202
-0.000480905
0.000377233
-0.000542474
0.000356673
-0.00060321
0.000327702
-0.000662004
0.000289091
-0.000717232
0.000239411
-0.000766648
0.000177323
-0.000807335
0.000101934
-0.000835821
1.33588e-05
-0.00084819
-8.72124e-05
-0.000840576
-0.000196161
-0.000809733
-0.00030779
-0.000753775
-0.000413939
-0.000673016
-0.000504392
-0.000570734
-0.00056794
-0.000453614
-0.000594174
-0.000331527
-0.000575972
-0.000216315
-0.000512203
-0.00011953
-0.000409691
-4.9731e-05
-0.000283112
-1.05231e-05
-0.00015213
-3.77415e-05
-1.21718e-05
8.43143e-05
-4.19352e-05
0.00021236
-8.40385e-05
0.000305852
-0.000134552
0.000371369
-0.000190688
0.000415
-0.000250593
0.000441894
-0.000313132
0.000456067
-0.000377677
0.000460351
-0.000443908
0.000456434
-0.000511626
0.000444951
-0.000580564
0.000425611
-0.000650198
0.000397336
-0.000719549
0.000358441
-0.00078699
0.000306852
-0.000850087
0.000240419
-0.000905506
0.000157354
-0.000948971
5.68234e-05
-0.000975723
-6.04601e-05
-0.000980503
-0.000191381
-0.000958565
-0.000329729
-0.000906382
-0.000466122
-0.000822728
-0.000588046
-0.0007098
-0.000680868
-0.000574161
-0.000729813
-0.000427045
-0.000723087
-0.000283397
-0.000655852
-0.000159168
-0.00053392
-6.73723e-05
-0.000374908
-1.46482e-05
-0.000204854
-5.23897e-05
-1.25867e-05
9.6901e-05
-4.34453e-05
0.000243219
-8.71459e-05
0.000349553
-0.000139615
0.000423838
-0.000197994
0.000473379
-0.000260445
0.000504346
-0.000325938
0.000521559
-0.000394021
0.000528434
-0.000464615
0.000527028
-0.000537796
0.000518131
-0.000613581
0.000501396
-0.000691709
0.000475464
-0.000771396
0.000438128
-0.000851097
0.000386553
-0.000928292
0.000317615
-0.000999341
0.000228403
-0.00105943
0.000116915
-0.00110289
-1.70025e-05
-0.00112329
-0.000170983
-0.00111434
-0.000338675
-0.00107064
-0.000509827
-0.000988865
-0.000669818
-0.000869277
-0.000800456
-0.000717243
-0.000881847
-0.000544432
-0.000895898
-0.000368637
-0.000831647
-0.000211095
-0.000691461
-9.11372e-05
-0.000494866
-2.03988e-05
-0.000275593
-7.27885e-05
-1.2884e-05
0.000109785
-4.45879e-05
0.000274922
-8.95286e-05
0.000394493
-0.000143486
0.000477795
-0.000203518
0.000533411
-0.000267796
0.000568624
-0.000335386
0.000589149
-0.000406015
0.000599063
-0.000479841
0.000600854
-0.000557222
0.000595512
-0.000638476
0.000582651
-0.000723633
0.000560621
-0.000812159
0.000526654
-0.000902685
0.000477079
-0.00099275
0.00040768
-0.00107863
0.000314278
-0.00115525
0.000193541
-0.00121627
4.40204e-05
-0.00125456
-0.000132694
-0.00126245
-0.000330792
-0.00123264
-0.000539628
-0.00115937
-0.000743089
-0.00104002
-0.000919813
-0.000877311
-0.00104455
-0.000681691
-0.00109152
-0.000472626
-0.00104071
-0.00027691
-0.000887178
-0.000122265
-0.000649511
-2.81971e-05
-0.00036966
-0.000100986
-1.30768e-05
0.000122862
-4.54035e-05
0.000307249
-9.12375e-05
0.000440327
-0.000146178
0.000532735
-0.000207168
0.000594401
-0.000272358
0.000633814
-0.000340886
0.000657677
-0.000412633
0.00067081
-0.00048797
0.000676191
-0.000567509
0.000675052
-0.000651853
0.000666994
-0.000741319
0.000650087
-0.000835662
0.000620997
-0.000933779
0.000575196
-0.00103345
0.00050735
-0.00113113
0.000411961
-0.00122188
0.000284291
-0.00129935
0.000121487
-0.0013559
-7.61451e-05
-0.00138334
-0.000303344
-0.00137278
-0.000550193
-0.00131587
-0.0008
-0.00120641
-0.00102927
-0.00104294
-0.00120802
-0.00083232
-0.00130214
-0.000593301
-0.00127973
-0.000357208
-0.00112327
-0.000161869
-0.000844849
-3.85225e-05
-0.000493007
-0.000139508
-1.32018e-05
0.000136064
-4.60023e-05
0.00034005
-9.24392e-05
0.000486764
-0.000147858
0.000588154
-0.000209026
0.000655569
-0.000274027
0.000698815
-0.000342032
0.000725682
-0.000413031
0.000741809
-0.000487556
0.000750716
-0.000566422
0.000753918
-0.000650459
0.000751031
-0.000740247
0.000739875
-0.000835838
0.000716588
-0.000936482
0.00067584
-0.00104038
0.000611253
-0.00114451
0.000516091
-0.00124451
0.000384283
-0.00133472
0.000211698
-0.00140736
-3.49829e-06
-0.00145516
-0.000255554
-0.00146786
-0.000537491
-0.00143512
-0.000832739
-0.00134695
-0.00111744
-0.00119639
-0.00135858
-0.000984139
-0.00151439
-0.00072463
-0.00153924
-0.000450721
-0.00139718
-0.000210658
-0.00108491
-5.1886e-05
-0.000651779
-0.000191394
-1.33328e-05
0.000149396
-4.66008e-05
0.000373318
-9.34767e-05
0.00053364
-0.000148924
0.0006436
-0.000209449
0.000716094
-0.000273011
0.000762377
-0.000338769
0.000791439
-0.000406766
0.000809807
-0.000477637
0.000821587
-0.000552319
0.0008286
-0.000631801
0.000830513
-0.000716872
0.000824946
-0.000807877
0.000807593
-0.000904487
0.000772451
-0.00100551
0.00071227
-0.00110872
0.000619302
-0.00121079
0.000486353
-0.0013071
0.000308007
-0.00139226
8.16642e-05
-0.00145788
-0.000189934
-0.00149528
-0.000500087
-0.00149274
-0.000835283
-0.00143694
-0.00117324
-0.00131499
-0.00148053
-0.00111925
-0.00171013
-0.000855608
-0.00180288
-0.000553305
-0.00169948
-0.000268494
-0.00136972
-6.87773e-05
-0.000851496
-0.000260171
-1.35978e-05
0.000162994
-4.75685e-05
0.000407288
-9.49417e-05
0.000581013
-0.000150098
0.000698756
-0.000209174
0.000775171
-0.000269954
0.000823157
-0.000331546
0.000853031
-0.00039401
0.000872271
-0.00045802
0.000885596
-0.000524568
0.000895148
-0.000594731
0.000900676
-0.000669452
0.000899668
-0.000749363
0.000887503
-0.000834616
0.000857704
-0.000924763
0.000802417
-0.00101866
0.000713198
-0.00111438
0.000582071
-0.0012091
0.000402728
-0.00129901
0.000171578
-0.00137792
-0.000111028
-0.00143829
-0.000439718
-0.00146856
-0.000805004
-0.00145349
-0.00118831
-0.00137493
-0.00155909
-0.00121603
-0.00186904
-0.000970456
-0.00204845
-0.000657171
-0.00201277
-0.000333878
-0.00169302
-8.96006e-05
-0.00109577
-0.000349772
-1.42056e-05
0.0001772
-4.94921e-05
0.000442575
-9.77602e-05
0.000629282
-0.000152516
0.000753512
-0.000209409
0.000832064
-0.000266024
0.000879773
-0.000321425
0.000908431
-0.000375682
0.000926528
-0.000429481
0.000939395
-0.000483829
0.000949497
-0.000539842
0.000956688
-0.000598589
0.000958415
-0.000660989
0.000949903
-0.000727725
0.000924441
-0.000799203
0.000873895
-0.000875508
0.000789503
-0.000956341
0.000662904
-0.00104088
0.000487264
-0.00112756
0.000258258
-0.00121255
-2.60307e-05
-0.0012908
-0.00036147
-0.00135211
-0.000743695
-0.0013812
-0.00115923
-0.00135664
-0.00158365
-0.00125326
-0.00197241
-0.00105064
-0.00225107
-0.000750908
-0.0023125
-0.000403473
-0.00204045
-0.000114636
-0.00138461
-0.000464408
-1.54906e-05
0.00019269
-5.32675e-05
0.000480352
-0.0001033
0.000679314
-0.00015782
0.000808031
-0.000211892
0.000886136
-0.000262947
0.000930828
-0.000310084
0.000955568
-0.000353445
0.00096989
-0.000393762
0.000979712
-0.000432058
0.000987793
-0.000469488
0.000994118
-0.000507254
0.000996181
-0.00054658
0.00098923
-0.000588723
0.000966584
-0.000634988
0.000920161
-0.000686744
0.000841258
-0.000745354
0.000721515
-0.000812003
0.000553913
-0.00088728
0.000333535
-0.000970987
5.76757e-05
-0.00105929
-0.000273168
-0.00114558
-0.000657405
-0.00121638
-0.00108843
-0.00124975
-0.00155027
-0.00121503
-0.00200714
-0.00107843
-0.00238767
-0.000820886
-0.00257004
-0.000471967
-0.00238937
-0.000144055
-0.00171252
-0.000608463
-1.79962e-05
0.000210687
-6.02488e-05
0.000522604
-0.000113513
0.000732579
-0.000168237
0.000862755
-0.000218887
0.000936787
-0.000262918
0.000974859
-0.000299663
0.000992313
-0.00032949
0.000999717
-0.000353277
0.0010035
-0.000372135
0.00100665
-0.000387304
0.00100929
-0.000400157
0.00100903
-0.00041226
0.00100133
-0.00042546
0.000979783
-0.000441957
0.000936658
-0.000464356
0.000863656
-0.000495563
0.000752722
-0.000538582
0.000596932
-0.000596138
0.000391091
-0.000670217
0.000131755
-0.000760278
-0.000183107
-0.000862634
-0.000555049
-0.000967407
-0.000983656
-0.0010552
-0.00146247
-0.00109406
-0.00196829
-0.00104052
-0.00244121
-0.000853481
-0.00275708
-0.000532362
-0.00271049
-0.000177942
-0.00206694
-0.000786405
-2.26374e-05
0.000233324
-7.24922e-05
0.000572459
-0.000131113
0.0007912
-0.000186613
0.000918255
-0.000233054
0.000983228
-0.000268315
0.00101012
-0.000292326
0.00101632
-0.00030595
0.00101334
-0.000310391
0.00100794
-0.000306968
0.00100323
-0.000297091
0.00099941
-0.00028236
0.000994303
-0.000264707
0.00098368
-0.000246548
0.000961624
-0.000230889
0.000920999
-0.000221429
0.000854196
-0.000222387
0.00075368
-0.000238209
0.000612753
-0.000273303
0.000426186
-0.000331398
0.000189849
-0.000414905
-9.95991e-05
-0.000523069
-0.000446886
-0.000650464
-0.000856261
-0.000782822
-0.00133012
-0.000891578
-0.00185954
-0.000929524
-0.00240326
-0.000836892
-0.00284971
-0.000576455
-0.00297093
-0.000216114
-0.00242728
-0.00100252
-3.10228e-05
0.000264347
-9.31463e-05
0.000634583
-0.000159759
0.000857813
-0.00021627
0.000974765
-0.000256968
0.00102393
-0.000280911
0.00103406
-0.000289208
0.00102462
-0.000283599
0.00100773
-0.000265859
0.0009902
-0.000237665
0.000975032
-0.000200693
0.000962438
-0.000156809
0.00095042
-0.000108296
0.000935167
-5.8076e-05
0.000911404
-9.87318e-06
0.000872797
3.19472e-05
0.000812375
6.22853e-05
0.000723342
7.54501e-05
0.000599589
6.58366e-05
0.000435799
2.82436e-05
0.000227442
-4.12054e-05
-3.01502e-05
-0.000144854
-0.000343237
-0.000282087
-0.000719028
-0.000445235
-0.00116697
-0.000613255
-0.00169152
-0.000742304
-0.00227422
-0.00076108
-0.00283093
-0.000594719
-0.00313729
-0.000257405
-0.0027646
-0.00125992
-4.60753e-05
0.000310422
-0.000127003
0.00071551
-0.00020402
0.00093483
-0.000260245
0.00103099
-0.000291692
0.00105537
-0.000299869
0.00104224
-0.000287891
0.00101264
-0.000258863
0.000978705
-0.000215411
0.000946747
-0.000159722
0.000919344
-9.3805e-05
0.000896521
-1.97772e-05
0.000876392
5.98204e-05
0.000855569
0.000141795
0.00082943
0.000222126
0.000792465
0.000295851
0.00073865
0.000357247
0.000661946
0.00040014
0.000556696
0.000418161
0.000417777
0.000405215
0.000240389
0.000355494
1.95702e-05
0.000264489
-0.000252232
0.00012908
-0.000583618
-5.01209e-05
-0.000987768
-0.000262693
-0.00147894
-0.000475447
-0.00206146
-0.000615386
-0.00269099
-0.000574759
-0.00317791
-0.000297877
-0.00304148
-0.0015578
-7.3155e-05
0.000383577
-0.000180951
0.000823307
-0.000268236
0.00102211
-0.000318537
0.00108129
-0.000332618
0.00106945
-0.000316412
0.00102603
-0.000276124
0.000972356
-0.00021678
0.00091936
-0.000142121
0.000872089
-5.49268e-05
0.000832149
4.24621e-05
0.000799132
0.000147788
0.000771066
0.00025848
0.000744877
0.000371327
0.000716583
0.000482284
0.000681508
0.000586388
0.000634546
0.000677847
0.000570487
0.000750246
0.000484297
0.000796829
0.000371194
0.000810754
0.000226465
0.000785319
4.50049e-05
0.000713651
-0.000180564
0.000589297
-0.000459264
0.000406496
-0.000804966
0.000164765
-0.00123721
-0.000118529
-0.00177817
-0.000383821
-0.0024257
-0.000497968
-0.00306377
-0.000327949
-0.0032115
-0.00188575
-0.000121855
0.000505432
-0.0002629
0.000964352
-0.00035104
0.00111025
-0.000378867
0.00110912
-0.000357416
0.001048
-0.000299832
0.000968449
-0.000216619
0.000889144
-0.000115147
0.000817888
-2.96204e-07
0.000757238
0.000124605
0.000707248
0.00025724
0.000666496
0.000395526
0.000632781
0.000537203
0.0006032
0.000679484
0.000574303
0.000818789
0.000542202
0.000950622
0.000502714
0.00106957
0.000451539
0.00116944
0.000384429
0.00124341
0.000297224
0.00128415
0.000185718
0.00128377
4.53847e-05
0.00123389
-0.000130677
0.00112498
-0.000350356
0.000946181
-0.000626168
0.000687022
-0.000978053
0.000347496
-0.00143864
-3.15295e-05
-0.00204668
-0.000334064
-0.00276123
-0.000333646
-0.00321192
-0.0022194
-0.000208152
0.000713584
-0.000371743
0.00112794
-0.00042344
0.00116195
-0.000387166
0.00107284
-0.000292797
0.000953634
-0.000163434
0.000839085
-1.40547e-05
0.000739764
0.000146331
0.000657502
0.000312586
0.000590983
0.000481929
0.000537905
0.000652733
0.000495693
0.000823834
0.00046168
0.000993953
0.00043308
0.0011613
0.000406958
0.00132328
0.000380218
0.00147635
0.000349648
0.00161591
0.000311978
0.00173638
0.000263953
0.00183126
0.000202349
0.00189299
0.000123983
0.00191255
2.58264e-05
0.00188062
-9.87428e-05
0.001785
-0.00025474
0.00161108
-0.000452251
0.00134121
-0.000708174
0.00095818
-0.00105562
0.000466448
-0.00155494
-2.85653e-05
-0.00226622
-0.000273284
-0.0029672
-0.00249268
-0.000343484
0.00105707
-0.000435619
0.00122008
-0.000346465
0.0010728
-0.000161344
0.000887724
6.4714e-05
0.000727576
0.000303364
0.000600436
0.000540523
0.000502605
0.000770046
0.000427979
0.00098995
0.00037108
0.00120025
0.000327604
0.00140175
0.000294192
0.00159533
0.000268098
0.00178149
0.00024692
0.00196001
0.000228438
0.00212973
0.000210505
0.00228836
0.000191016
0.00243244
0.000167897
0.00255727
0.000139118
0.00265702
0.000102603
0.00272474
5.62643e-05
0.00275043
1.39809e-07
0.0027253
-7.36202e-05
0.00263481
-0.000164246
0.00246241
-0.000279853
0.00218602
-0.000431783
0.0017769
-0.000646496
0.00120495
-0.000982989
0.000514524
-0.0015758
-2.46745e-05
-0.002428
-0.00251735
-0.000303393
0.00136046
-5.16092e-05
0.000968295
0.000376401
0.000644787
0.000796491
0.000467633
0.00117808
0.000345986
0.00151721
0.00026131
0.00181654
0.000203267
0.00208138
0.000163145
0.00231761
0.000134843
0.0025307
0.000114522
0.00272519
9.96981e-05
0.00290466
8.86301e-05
0.00307159
7.99861e-05
0.00322736
7.26723e-05
0.00337213
6.57298e-05
0.00350487
5.82812e-05
0.00362325
4.95109e-05
0.00372371
3.86649e-05
0.00380121
2.51039e-05
0.00384909
8.38223e-06
0.00386267
-1.34439e-05
0.00382918
-4.01301e-05
0.00373732
-7.23841e-05
0.00357124
-0.000113772
0.00330785
-0.000168391
0.00291153
-0.000250182
0.00232346
-0.000394912
0.00148791
-0.000740248
0.000505524
-0.00144562
-0.00201183
0.00136046
0.00232876
0.00297354
0.00344118
0.00378716
0.00404847
0.00425174
0.00441488
0.00454973
0.00466425
0.00476395
0.00485258
0.00493256
0.00500524
0.00507097
0.00512925
0.00517876
0.00521742
0.00524253
0.00525091
0.00523746
0.00519733
0.00512495
0.00501118
0.00484279
0.00459261
0.00419769
0.00345745
0.00201183
)
;

boundaryField
{
    movingWall
    {
        type            calculated;
        value           uniform 0;
    }
    fixedWalls
    {
        type            calculated;
        value           uniform 0;
    }
    frontAndBack
    {
        type            empty;
        value           nonuniform 0();
    }
}


// ************************************************************************* //
