/*--------------------------------*- C++ -*----------------------------------*\
  =========                 |
  \\      /  F ield         | OpenFOAM: The Open Source CFD Toolbox
   \\    /   O peration     | Website:  https://openfoam.org
    \\  /    A nd           | Version:  7
     \\/     M anipulation  |
\*---------------------------------------------------------------------------*/
FoamFile
{
    version     2.0;
    format      ascii;
    class       volScalarField;
    location    "0.6";
    object      p;
}
// * * * * * * * * * * * * * * * * * * * * * * * * * * * * * * * * * * * * * //

dimensions      [0 2 -2 0 0 0 0];

internalField   nonuniform List<scalar> 
900
(
-4.6218e-09
-0.000139161
-0.000155539
-5.45266e-05
0.000163776
0.000498502
0.00094122
0.00148643
0.00212511
0.00285033
0.00365228
0.0045195
0.00544123
0.00640547
0.00739903
0.00840824
0.00941907
0.0104169
0.0113868
0.012314
0.0131849
0.0139845
0.0146988
0.0153171
0.0158258
0.0162162
0.0164757
0.0166026
0.0165967
0.0164553
0.000137454
-3.97539e-06
-1.02242e-06
0.000111633
0.000330992
0.000658746
0.00109146
0.00162313
0.00224714
0.00295582
0.00374029
0.00458884
0.0054912
0.00643565
0.00740908
0.00839804
0.00938874
0.0103668
0.0113173
0.0122256
0.013079
0.0138618
0.0145612
0.0151654
0.0156636
0.0160465
0.0163071
0.0164462
0.0164607
0.0163164
0.000152514
-1.36671e-05
-1.26304e-05
0.000101855
0.000321429
0.000648781
0.00108029
0.00161095
0.00223364
0.00294158
0.0037257
0.00457402
0.00547667
0.00642193
0.00739664
0.00838734
0.0093802
0.0103608
0.011314
0.0122251
0.0130816
0.0138674
0.0145694
0.0151762
0.0156763
0.0160614
0.0163241
0.0164662
0.0164787
0.0163079
5.36566e-05
-0.000135054
-0.00013947
-2.50318e-05
0.000196231
0.000527091
0.000963229
0.00150016
0.00213022
0.00284719
0.00364175
0.00450171
0.00541728
0.00637669
0.00736661
0.00837339
0.009383
0.0103809
0.0113513
0.0122796
0.0131529
0.0139546
0.0146708
0.0152906
0.0158013
0.016195
0.0164631
0.0166074
0.016615
0.0164203
-0.000166685
-0.000371901
-0.000380661
-0.000265373
-3.99392e-05
0.000298346
0.000744716
0.00129477
0.00194045
0.00267569
0.00349097
0.00437383
0.00531435
0.0063006
0.00731898
0.00835549
0.00939579
0.0104249
0.0114266
0.0123857
0.0132889
0.0141188
0.0148607
0.0155034
0.0160331
0.0164416
0.0167193
0.0168678
0.0168724
0.0166604
-0.000513689
-0.000733134
-0.00074515
-0.000627342
-0.000394696
-4.45191e-05
0.000418093
0.000988611
0.0016586
0.00242189
0.00326879
0.00418643
0.00516462
0.00619113
0.00725198
0.00833268
0.00941842
0.0104936
0.0115415
0.0125461
0.0134933
0.0143646
0.0151445
0.0158208
0.0163787
0.016809
0.0171014
0.0172571
0.0172602
0.0170329
-0.000990982
-0.00122498
-0.00123946
-0.00111716
-0.000873955
-0.000507111
-2.19942e-05
0.000576615
0.00127987
0.00208133
0.00297108
0.00393576
0.00496473
0.00604537
0.00716317
0.00830309
0.00944968
0.0105866
0.0116963
0.0127618
0.0137681
0.014695
0.0155261
0.0162478
0.0168438
0.017304
0.0176166
0.0177829
0.0177857
0.017542
-0.00160398
-0.00185436
-0.00187081
-0.00174195
-0.00148464
-0.00109608
-0.000581932
5.27072e-05
0.000798483
0.00164858
0.00259279
0.00361717
0.00471045
0.00585954
0.00704934
0.00826411
0.00948766
0.0107027
0.0118907
0.0130338
0.0141151
0.0151131
0.0160098
0.0167899
0.0174354
0.0179343
0.0182737
0.0184542
0.0184578
0.0181949
-0.00236049
-0.00263012
-0.00264832
-0.00251081
-0.00223566
-0.00182009
-0.00127002
-0.000590998
0.000207016
0.00111667
0.00212742
0.00322465
0.00439635
0.00562883
0.00690633
0.00821236
0.00952985
0.0108405
0.0121245
0.0133628
0.0145369
0.015623
0.0166013
0.0174545
0.018162
0.01871
0.0190835
0.0192827
0.0192881
0.019002
-0.00327065
-0.00356323
-0.00358317
-0.00343489
-0.00313799
-0.00268972
-0.0020964
-0.00136414
-0.00050362
0.000477093
0.00156706
0.00275091
0.00401578
0.0053473
0.00672898
0.00814354
0.00957292
0.0109977
0.0123968
0.0137497
0.0150358
0.016229
0.0173072
0.0182502
0.0190345
0.0196435
0.0200599
0.0202828
0.0202911
0.0199771
-0.00434719
-0.00466713
-0.00468897
-0.00452768
-0.00420479
-0.00371769
-0.00307322
-0.0022782
-0.00134423
-0.00028025
0.000902315
0.00218727
0.00356081
0.00500778
0.00651095
0.00805222
0.00961256
0.0111713
0.0127061
0.0141949
0.0156145
0.016936
0.0181348
0.0191872
0.0200656
0.0207499
0.0212195
0.0214723
0.0214847
0.0211373
-0.00560563
-0.00595808
-0.00598207
-0.00580529
-0.00545174
-0.00491905
-0.0042148
-0.00334668
-0.00232746
-0.00116714
0.000122253
0.00152363
0.00302209
0.00460172
0.00624456
0.00793167
0.00964315
0.0113571
0.01305
0.0146978
0.0162747
0.0177488
0.0190923
0.0202768
0.0212699
0.0220468
0.0225825
0.0228727
0.022891
0.0225035
-0.00706458
-0.00745555
-0.00748198
-0.0072869
-0.00689737
-0.0063115
-0.00553785
-0.00458527
-0.00346792
-0.00219712
-0.000785689
0.0007483
0.00238882
0.00411912
0.00592061
0.00777364
0.00965751
0.0115493
0.0134242
0.0152565
0.0170175
0.0186717
0.0201878
0.0215316
0.0226646
0.0235554
0.0241731
0.0245104
0.0245366
0.0241006
-0.00874615
-0.00918281
-0.00921197
-0.00899521
-0.0085635
-0.0079157
-0.00706173
-0.00601195
-0.00478221
-0.00338554
-0.00183573
-0.000151921
0.00164864
0.00354842
0.00552829
0.00756807
0.00964652
0.01174
0.0138227
0.0158673
0.0178421
0.019708
0.0214294
0.0229651
0.0242687
0.0253003
0.0260204
0.026417
0.0264541
0.0259589
-0.0106766
-0.0111677
-0.0111998
-0.0109572
-0.0104758
-0.00975571
-0.00880875
-0.00764721
-0.00628912
-0.00474958
-0.00304369
-0.00119176
0.000787713
0.00287645
0.005055
0.00730288
0.00959878
0.0119187
0.0142364
0.0165233
0.0187449
0.0208586
0.0228238
0.0245908
0.0261033
0.0273099
0.0281592
0.0286318
0.0286836
0.0281153
-0.0128873
-0.0134438
-0.0134789
-0.0132049
-0.0126645
-0.0118595
-0.0108045
-0.00951426
-0.00800958
-0.00630819
-0.00442686
-0.00238725
-0.000209127
0.0020886
0.00448636
0.00696389
0.0095002
0.0120718
0.0146527
0.0172138
0.0197184
0.0221208
0.0243748
0.0264212
0.0281908
0.029617
0.0306314
0.0312026
0.0312751
0.0306146
-0.0154162
-0.016052
-0.0160897
-0.0157769
-0.0151652
-0.0142596
-0.0130782
-0.0116391
-0.00996668
-0.0080819
-0.00600375
-0.00375543
-0.00135804
0.00116899
0.00380642
0.00653498
0.00933389
0.012182
0.0150545
0.0179228
0.0207492
0.023486
0.0260817
0.0284656
0.0305536
0.0322585
0.0334871
0.0341895
0.0342915
0.033512
-0.0183096
-0.019043
-0.0190819
-0.0187197
-0.0180205
-0.0169939
-0.0156631
-0.0140508
-0.0121855
-0.0100925
-0.00779355
-0.0053138
-0.00267563
0.000101165
0.00299797
0.00599693
0.00907987
0.0122278
0.0154191
0.0186273
0.0218159
0.0249371
0.0279348
0.0307271
0.0332118
0.0352745
0.0367865
0.0376681
0.037814
0.0368765
-0.0216258
-0.0224812
-0.0225177
-0.0220904
-0.0212812
-0.0201068
-0.0185972
-0.016781
-0.0146926
-0.0123622
-0.00981542
-0.00707937
-0.00417796
-0.00113111
0.00204375
0.00533097
0.00871582
0.0121835
0.0157173
0.0192954
0.0228858
0.0264438
0.0299115
0.0331967
0.0361778
0.0387055
0.0406007
0.0417351
0.0419504
0.0407962
-0.02544
-0.0264503
-0.0264767
-0.02596
-0.0250089
-0.0236502
-0.0219232
-0.0198647
-0.0175157
-0.0149133
-0.0120872
-0.00906743
-0.00587926
-0.00254252
0.000927074
0.00451704
0.00821727
0.012019
0.0159129
0.0198852
0.0239123
0.0279581
0.0319681
0.0358445
0.0394477
0.0425861
0.0450114
0.0465164
0.0468487
0.045388
-0.0298529
-0.0310627
-0.0310626
-0.0304183
-0.0292786
-0.0276851
-0.0256897
-0.0233388
-0.0206826
-0.0177658
-0.0146239
-0.0112896
-0.00778995
-0.00414427
-0.000365969
0.00353658
0.00755925
0.0117012
0.0159629
0.0203427
0.024831
0.0294074
0.0340299
0.0386054
0.0429846
0.0469307
0.0501048
0.0521762
0.0527211
0.0508193
-0.0350074
-0.0364748
-0.0364139
-0.0355796
-0.0341823
-0.0322835
-0.0299505
-0.0272421
-0.0242193
-0.0209363
-0.0174348
-0.0137514
-0.0099141
-0.0059415
-0.00184397
0.00237511
0.00671886
0.011196
0.0158194
0.0206029
0.0255574
0.0306877
0.0359776
0.0413577
0.0466895
0.0517025
0.055953
0.0589249
0.0598829
0.0573597
-0.0411204
-0.0429126
-0.0427195
-0.0415922
-0.0398338
-0.0375299
-0.0347652
-0.0316132
-0.0281477
-0.0244339
-0.0205209
-0.0164486
-0.012246
-0.00792982
-0.0035067
0.00102592
0.0056794
0.0104729
0.0154331
0.0205926
0.025988
0.0316591
0.0376331
0.0438935
0.0503535
0.0567515
0.0625604
0.0670129
0.0688113
0.0655154
-0.0485512
-0.0507137
-0.0502398
-0.0486478
-0.0463729
-0.0435226
-0.040197
-0.0364866
-0.0324804
-0.0282555
-0.0238685
-0.0193622
-0.0147649
-0.0100904
-0.00534001
-0.000504313
0.00443712
0.00951198
0.0147623
0.0202395
0.0260083
0.0321497
0.0387514
0.0458868
0.0535867
0.0617012
0.0697395
0.0766773
0.080239
0.0763806
-0.057953
-0.0603909
-0.0593286
-0.0569894
-0.0539672
-0.0503692
-0.0463043
-0.0418816
-0.0372076
-0.0323719
-0.0274373
-0.0224468
-0.0174251
-0.0123801
-0.00730597
-0.00218563
0.00300921
0.00831928
0.0137917
0.0194961
0.0255213
0.0319867
0.0390458
0.0468913
0.0557502
0.0657701
0.076825
0.0878942
0.0952461
0.0924202
-0.0706367
-0.0727269
-0.0704308
-0.0668909
-0.0627801
-0.0581439
-0.05309
-0.047749
-0.0422467
-0.0366827
-0.0311204
-0.0255964
-0.0201255
-0.014705
-0.00931851
-0.00393969
0.00146862
0.00695685
0.0125694
0.0183901
0.0245181
0.0310926
0.0383125
0.0464774
0.0560483
0.0676908
0.0822505
0.0996788
0.114863
0.118178
-0.0896576
-0.0889146
-0.0839647
-0.0784772
-0.0727555
-0.0666566
-0.0602766
-0.0537701
-0.0472725
-0.0408776
-0.0346334
-0.0285557
-0.0226388
-0.0168616
-0.011193
-0.00559558
-2.52437e-05
0.005569
0.0112596
0.0170969
0.0231869
0.0296624
0.0367249
0.0447219
0.0543001
0.066696
0.0843239
0.110084
0.139164
0.159628
-0.122527
-0.109969
-0.0997794
-0.0910299
-0.0828695
-0.0747821
-0.0667671
-0.0589481
-0.0514217
-0.0442284
-0.0373693
-0.0308193
-0.0245398
-0.0184857
-0.012608
-0.00685692
-0.00118155
0.00447443
0.0101734
0.0159752
0.0219736
0.0282847
0.0351027
0.0428064
0.0522082
0.0650988
0.0852616
0.120994
0.169783
0.231107
-0.179816
-0.130241
-0.114255
-0.100278
-0.0889858
-0.079061
-0.0698488
-0.0612118
-0.0531212
-0.0455405
-0.0384151
-0.0316805
-0.0252722
-0.0191285
-0.0131909
-0.00740364
-0.00171241
0.00393782
0.00960049
0.0153571
0.0212879
0.0275139
0.0342868
0.0421319
0.05225
0.0675757
0.0943297
0.145726
0.225241
0.384268
-0.351867
-0.14165
-0.0993116
-0.0854181
-0.0763661
-0.0690282
-0.0623524
-0.0557692
-0.0491749
-0.0426515
-0.0362764
-0.0300821
-0.0240709
-0.0182271
-0.0125239
-0.00692683
-0.00139691
0.00410926
0.00963865
0.0152545
0.0210465
0.0271777
0.0339249
0.0419791
0.0529922
0.0714395
0.106969
0.185128
0.333561
0.66687
)
;

boundaryField
{
    movingWall
    {
        type            zeroGradient;
    }
    fixedWalls
    {
        type            zeroGradient;
    }
    frontAndBack
    {
        type            empty;
    }
}


// ************************************************************************* //
