/*--------------------------------*- C++ -*----------------------------------*\
  =========                 |
  \\      /  F ield         | OpenFOAM: The Open Source CFD Toolbox
   \\    /   O peration     | Website:  https://openfoam.org
    \\  /    A nd           | Version:  7
     \\/     M anipulation  |
\*---------------------------------------------------------------------------*/
FoamFile
{
    version     2.0;
    format      ascii;
    class       volScalarField;
    location    "8.1";
    object      p;
}
// * * * * * * * * * * * * * * * * * * * * * * * * * * * * * * * * * * * * * //

dimensions      [0 2 -2 0 0 0 0];

internalField   nonuniform List<scalar> 
900
(
7.98905e-07
-0.000145344
-0.000327408
-0.000488504
-0.000595605
-0.00062998
-0.000584771
-0.000458611
-0.00025183
3.49953e-05
0.000401084
0.000844605
0.00136137
0.00194333
0.00257722
0.00324359
0.00391666
0.00456509
0.0051542
0.00564933
0.00602013
0.00624523
0.00631647
0.00624153
0.00604489
0.00576625
0.00544894
0.00516194
0.00495801
0.00489682
0.000145948
-3.85291e-06
-0.000132199
-0.000235698
-0.000294899
-0.000295753
-0.000232262
-0.000102055
9.58583e-05
0.000361764
0.000695195
0.00109433
0.00155505
0.00206985
0.0026268
0.00320858
0.00379392
0.0043559
0.00486563
0.00529459
0.00561825
0.00581994
0.00589428
0.00584912
0.00570572
0.00549686
0.00526204
0.00504455
0.00488763
0.00483285
0.000336968
0.000119853
-1.18203e-05
-0.000100882
-0.000143567
-0.000130978
-6.0145e-05
6.99395e-05
0.000260049
0.00051081
0.000822367
0.00119372
0.00162179
0.00210032
0.00261887
0.00316252
0.00371091
0.0042391
0.0047197
0.00512526
0.00543188
0.0056232
0.0056938
0.00565118
0.00551571
0.00531817
0.00509559
0.0048867
0.0047263
0.00464027
0.000510127
0.000212887
5.93458e-05
-3.18256e-05
-7.04892e-05
-5.31557e-05
1.93296e-05
0.000145848
0.000326488
0.000562124
0.000853772
0.00120175
0.00160464
0.00205804
0.00255341
0.0030772
0.00361043
0.00412851
0.0046036
0.00500687
0.00531248
0.00550191
0.00556794
0.00551705
0.00536934
0.00515582
0.00491375
0.0046822
0.00449279
0.00435276
0.000619234
0.000241089
6.0298e-05
-4.01952e-05
-8.18317e-05
-6.58062e-05
3.39785e-06
0.000122547
0.000291055
0.000510141
0.000781928
0.00110842
0.00149027
0.00192539
0.00240738
0.00292418
0.00345834
0.00398458
0.0044734
0.00489294
0.00521329
0.00541165
0.00547715
0.00541414
0.00524251
0.00499479
0.00471107
0.00443431
0.00419631
0.00398987
0.000625202
0.000170744
-3.90433e-05
-0.000153184
-0.00020301
-0.000193645
-0.000132728
-2.53021e-05
0.000127568
0.000327642
0.000578387
0.000883813
0.00124709
0.00166889
0.00214537
0.00266623
0.00321649
0.00376905
0.00429209
0.00474925
0.00510444
0.00532805
0.00540311
0.00532996
0.00512763
0.00483105
0.0044857
0.00414228
0.00383767
0.00355643
0.000497458
-2.64248e-05
-0.000264749
-0.000394873
-0.000456729
-0.000458784
-0.000411336
-0.000320865
-0.00018866
-1.22237e-05
0.000213479
0.000494772
0.000837767
0.00124651
0.00172049
0.0022519
0.00282987
0.00342509
0.00400333
0.00452272
0.00493885
0.00521213
0.00531592
0.00524338
0.00501077
0.00465552
0.00423072
0.00379907
0.00340676
0.00302846
0.000210567
-0.000375257
-0.000640614
-0.000788055
-0.000865217
-0.000883522
-0.000855536
-0.000788885
-0.000684913
-0.000540272
-0.000348228
-9.98812e-05
0.000214299
0.000602546
0.00106969
0.00161452
0.00222097
0.00287016
0.00352391
0.00413393
0.00464534
0.0050047
0.00517043
0.00512311
0.0048721
0.00445579
0.00393666
0.00339431
0.00288935
0.00238601
-0.000257567
-0.000897819
-0.00118851
-0.00135454
-0.00145062
-0.00149092
-0.00149007
-0.00145673
-0.00139234
-0.0012928
-0.00114975
-0.000951622
-0.000685009
-0.000336452
0.000105293
0.000645631
0.00127706
0.00198466
0.00273091
0.00346299
0.00411426
0.00461285
0.00489487
0.00491944
0.00468108
0.0042145
0.00359196
0.00291571
0.00226713
0.0015969
-0.000926126
-0.00161322
-0.00192773
-0.00211416
-0.00223371
-0.00230336
-0.00233978
-0.00235286
-0.00234445
-0.00231013
-0.00224039
-0.00212123
-0.00193511
-0.00166225
-0.00128274
-0.000780782
-0.000151922
0.000601735
0.00144735
0.00233176
0.00317721
0.00388904
0.00437138
0.00454836
0.0043855
0.00390337
0.00318108
0.00234976
0.00152039
0.000625516
-0.00181107
-0.00253715
-0.00287431
-0.00308368
-0.00323259
-0.0033409
-0.00342767
-0.0035045
-0.00357438
-0.00363358
-0.00367237
-0.00367516
-0.00362054
-0.00348166
-0.00322758
-0.0028269
-0.0022553
-0.00149725
-0.000567239
0.000489104
0.00158734
0.00260778
0.00341167
0.00386932
0.00389427
0.00347261
0.00268008
0.00168164
0.00063006
-0.000564764
-0.00292439
-0.00368126
-0.00404018
-0.00427581
-0.00446111
-0.00461928
-0.00477229
-0.00493433
-0.00511082
-0.00530021
-0.00549435
-0.00567771
-0.00582608
-0.00590547
-0.00587178
-0.00567218
-0.00525123
-0.00457324
-0.00361102
-0.00238945
-0.000988848
0.000449232
0.0017343
0.00266018
0.003055
0.00283508
0.00204883
0.000893754
-0.000420293
-0.00200887
-0.00427321
-0.00505238
-0.00543232
-0.00569788
-0.00592725
-0.00614749
-0.0063844
-0.00665603
-0.00697199
-0.00733514
-0.00774148
-0.00817816
-0.00862047
-0.00902819
-0.00934268
-0.00948624
-0.00936715
-0.00889676
-0.00800547
-0.0066716
-0.00495046
-0.00299254
-0.00104113
0.000600107
0.0016321
0.00184715
0.00121992
-3.66201e-05
-0.00164147
-0.00373565
-0.00585878
-0.00665188
-0.00705201
-0.00735075
-0.00763117
-0.00792502
-0.00826306
-0.00866888
-0.00915845
-0.00974182
-0.0104224
-0.0111936
-0.0120336
-0.0128982
-0.0137143
-0.0143759
-0.0147463
-0.0146725
-0.0140187
-0.0126908
-0.0106909
-0.00815284
-0.00535868
-0.00271856
-0.000699951
0.000294291
8.74303e-05
-0.00113931
-0.00303311
-0.00575966
-0.00767588
-0.00847541
-0.0088944
-0.00922791
-0.00956375
-0.00993932
-0.0103918
-0.0109523
-0.0116456
-0.0124918
-0.0135054
-0.0146903
-0.0160315
-0.0174844
-0.0189632
-0.020332
-0.0214042
-0.0219546
-0.0217527
-0.0206201
-0.0184675
-0.0153738
-0.0116251
-0.00772234
-0.0043242
-0.00210291
-0.00149701
-0.00245008
-0.00457359
-0.00806683
-0.00971272
-0.0105134
-0.0109488
-0.0113153
-0.0117055
-0.0121638
-0.0127357
-0.0134615
-0.0143773
-0.0155163
-0.0169073
-0.0185683
-0.0204955
-0.0226477
-0.0249292
-0.027176
-0.0291504
-0.0305495
-0.0310359
-0.0303409
-0.0282453
-0.0247329
-0.0200423
-0.0147157
-0.0095849
-0.00563966
-0.00370633
-0.00400078
-0.00620288
-0.0105907
-0.0119519
-0.0127523
-0.0132001
-0.0135921
-0.0140267
-0.0145572
-0.0152393
-0.016125
-0.0172633
-0.0187027
-0.0204888
-0.0226563
-0.0252153
-0.0281314
-0.0313024
-0.0345392
-0.0375566
-0.0399802
-0.0413745
-0.0413548
-0.0395747
-0.035887
-0.0304246
-0.0236929
-0.0166253
-0.010517
-0.0066795
-0.00579219
-0.00779562
-0.0131771
-0.0143724
-0.0151777
-0.015631
-0.0160325
-0.0164884
-0.0170638
-0.0178277
-0.0188455
-0.0201809
-0.0218982
-0.0240607
-0.0267208
-0.0299032
-0.0335814
-0.0376498
-0.0418985
-0.0460017
-0.0495292
-0.0519808
-0.0527978
-0.0515745
-0.0480096
-0.0420829
-0.0341758
-0.0252067
-0.016682
-0.0104166
-0.00773783
-0.00912161
-0.0155358
-0.0169537
-0.0177791
-0.0182265
-0.0186088
-0.0190448
-0.0196164
-0.0204094
-0.0215051
-0.0229823
-0.0249214
-0.0274018
-0.030492
-0.03423
-0.0385965
-0.0434828
-0.0486634
-0.0537808
-0.0583577
-0.0618299
-0.063581
-0.063081
-0.0599069
-0.0538746
-0.0451782
-0.0345929
-0.0236735
-0.0146419
-0.00957256
-0.00979119
-0.0171761
-0.0196822
-0.0205568
-0.0209795
-0.0212955
-0.0216465
-0.0221389
-0.022881
-0.0239724
-0.0255073
-0.0275803
-0.0302845
-0.0337007
-0.0378763
-0.0427961
-0.048348
-0.0542938
-0.060254
-0.0657181
-0.0700811
-0.0726908
-0.0729344
-0.0702967
-0.0644455
-0.0553662
-0.0435964
-0.0305574
-0.0186784
-0.0107405
-0.00918596
-0.0173228
-0.0225616
-0.0235333
-0.0238984
-0.0240737
-0.0242432
-0.0245504
-0.0251335
-0.026113
-0.0275981
-0.0296947
-0.0325053
-0.0361178
-0.0405836
-0.0458872
-0.0519108
-0.0584054
-0.064976
-0.0710917
-0.0761243
-0.0794036
-0.0802622
-0.078133
-0.0725692
-0.0633694
-0.0508021
-0.0360169
-0.0214105
-0.0102918
-0.00637597
-0.0148082
-0.0256317
-0.0267698
-0.0270174
-0.0269358
-0.0267867
-0.0267687
-0.0270588
-0.0278004
-0.0291154
-0.0311169
-0.0339112
-0.0375872
-0.0421936
-0.0477097
-0.0540085
-0.0608305
-0.0677693
-0.0742815
-0.0797231
-0.0834063
-0.084648
-0.0828293
-0.0774299
-0.0681027
-0.0548783
-0.0385792
-0.0213747
-0.00684999
-3.21767e-05
-0.00794128
-0.0290048
-0.0303928
-0.0304085
-0.0298887
-0.0292313
-0.0287132
-0.0285569
-0.0289272
-0.0299536
-0.0317501
-0.0344201
-0.0380461
-0.0426673
-0.0482544
-0.0546646
-0.0616265
-0.0687207
-0.0753927
-0.0809872
-0.0847984
-0.0861227
-0.0842928
-0.0787255
-0.0689524
-0.05483
-0.0368781
-0.0169509
0.00132304
0.011663
0.00564378
-0.0329432
-0.0346379
-0.0341973
-0.0329549
-0.0315335
-0.0303077
-0.0295432
-0.0294165
-0.0300544
-0.0315622
-0.0340315
-0.0375314
-0.0420854
-0.0476439
-0.05405
-0.0610149
-0.0681051
-0.0747522
-0.080283
-0.0839638
-0.0850513
-0.0828009
-0.0765603
-0.0657686
-0.0501108
-0.0298761
-0.00659689
0.0162351
0.0311352
0.0291374
-0.0380292
-0.0399203
-0.0385776
-0.03617
-0.0336494
-0.0314836
-0.0299563
-0.0292323
-0.0294168
-0.030592
-0.0328276
-0.0361701
-0.0406198
-0.046103
-0.0524408
-0.0593236
-0.0662998
-0.0727811
-0.0780667
-0.08138
-0.0819196
-0.0788112
-0.0713168
-0.0587333
-0.0406029
-0.0170357
0.0108307
0.0400809
0.0614942
0.0665337
-0.0455644
-0.0469443
-0.0438018
-0.0395574
-0.0355155
-0.0321663
-0.0297477
-0.0283688
-0.0280838
-0.028933
-0.0309501
-0.0341489
-0.0384996
-0.0438989
-0.0501402
-0.0568892
-0.0636711
-0.0698719
-0.0747537
-0.0774769
-0.077131
-0.0727913
-0.0634687
-0.048283
-0.0265663
0.00176897
0.0357346
0.0745895
0.10593
0.122401
-0.0587249
-0.056898
-0.0501277
-0.0430525
-0.0369735
-0.0322011
-0.0288092
-0.0267825
-0.0260804
-0.0266737
-0.0285421
-0.031656
-0.0359475
-0.0412792
-0.0474137
-0.05399
-0.0605078
-0.0663242
-0.0706623
-0.0726264
-0.0712268
-0.0652704
-0.0536497
-0.0351856
-0.00886349
0.0258772
0.0687652
0.118871
0.165666
0.203538
-0.085571
-0.0712429
-0.0577573
-0.046397
-0.0376245
-0.0312306
-0.0268883
-0.0243376
-0.0233777
-0.023872
-0.0257276
-0.0288616
-0.0331649
-0.0384661
-0.0445003
-0.0508827
-0.0570909
-0.0624552
-0.0661555
-0.0672294
-0.0645918
-0.057027
-0.0430341
-0.0210845
0.0103505
0.0526901
0.1067
0.172725
0.241276
0.323614
-0.137776
-0.0866191
-0.0645646
-0.0473218
-0.0354325
-0.0276945
-0.0228994
-0.0203046
-0.0194856
-0.0201945
-0.0222741
-0.0256004
-0.0300364
-0.035392
-0.0413893
-0.0476355
-0.0536031
-0.0586168
-0.0618412
-0.0622657
-0.0586783
-0.0498968
-0.0342063
-0.00965906
0.0259619
0.0755513
0.142213
0.231067
0.338832
0.508532
-0.310548
-0.0964314
-0.0474464
-0.0287774
-0.018263
-0.012703
-0.010318
-0.00983675
-0.0106838
-0.0126667
-0.0157125
-0.0197625
-0.0247296
-0.0304645
-0.0367247
-0.0431494
-0.0492401
-0.0543496
-0.0576762
-0.0582686
-0.0550141
-0.0463777
-0.0307786
-0.00622562
0.0299335
0.0820607
0.156804
0.27188
0.446908
0.790677
)
;

boundaryField
{
    movingWall
    {
        type            zeroGradient;
    }
    fixedWalls
    {
        type            zeroGradient;
    }
    frontAndBack
    {
        type            empty;
    }
}


// ************************************************************************* //
