/*--------------------------------*- C++ -*----------------------------------*\
  =========                 |
  \\      /  F ield         | OpenFOAM: The Open Source CFD Toolbox
   \\    /   O peration     | Website:  https://openfoam.org
    \\  /    A nd           | Version:  7
     \\/     M anipulation  |
\*---------------------------------------------------------------------------*/
FoamFile
{
    version     2.0;
    format      ascii;
    class       volScalarField;
    location    "0.36";
    object      p;
}
// * * * * * * * * * * * * * * * * * * * * * * * * * * * * * * * * * * * * * //

dimensions      [0 2 -2 0 0 0 0];

internalField   nonuniform List<scalar> 
1936
(
1.64369e-06
-2961.91
-6942.5
-7322.11
-6748.55
-6691.65
-6196.5
-5261.21
-4531.15
-4372.79
-4630.08
-6028.12
-8021.35
-7642.4
-5335.63
-4034.55
-3864.8
-4256.71
-6159.81
-8164.88
-7023.66
-4534.18
-3789.45
-3939.47
-5340.47
-7783.54
-7445.26
-4923.26
-3920.69
-3975.89
-5437.2
-7924.31
-7361.62
-4861.52
-3949.72
-3943.21
-5116.08
-7600.76
-7630.23
-5156.09
-3995.64
-3992.09
-5081
-7577.3
-116.283
-2968.06
-6884.11
-7274.83
-6723.72
-6667.37
-6181.95
-5269.07
-4565.1
-4419.32
-4658.01
-6002.39
-7954.59
-7592.53
-5329.74
-4074.07
-3924.83
-4292.82
-6142.2
-8104.34
-6974.46
-4548.32
-3852.72
-3990.59
-5337.14
-7731.57
-7393
-4929.86
-3982.24
-4025.39
-5416.91
-7856.06
-7315
-4869.68
-4004.85
-3997
-5114.09
-7544.02
-7569.15
-5148.48
-4047.24
-4049.43
-5086.37
-7529.48
-468.773
-2999.79
-6675.9
-7139.93
-6663.94
-6593.49
-6137.43
-5296.82
-4659.86
-4532.12
-4738.11
-5949.43
-7750.12
-7441.81
-5342.42
-4183.51
-4065.81
-4405.03
-6110.48
-7908.39
-6837.86
-4611.15
-4004.71
-4126.13
-5356.62
-7565.71
-7234.74
-4974.07
-4132.77
-4154.14
-5387.68
-7643.24
-7177.66
-4922.84
-4139.73
-4133.26
-5136.61
-7371.31
-7384.75
-5155.98
-4176.56
-4191.8
-5129.04
-7379.42
-949.897
-3073.85
-6381.13
-6935.51
-6574.24
-6486.86
-6072.31
-5336.4
-4790.9
-4685.64
-4858.73
-5888.87
-7450.17
-7212.45
-5371.72
-4348.56
-4261.39
-4565
-6058.43
-7606
-6642.78
-4715.98
-4216.97
-4318.28
-5387.1
-7307.65
-6997.69
-5044.34
-4339.11
-4342.09
-5367.23
-7329.21
-6966.43
-5007.06
-4330.13
-4326.23
-5177.84
-7111.46
-7113.46
-5185.14
-4363.22
-4388.32
-5191.95
-7145.71
-1500.5
-3193.39
-6051.09
-6680.93
-6451.76
-6356.69
-5995.3
-5382.2
-4937.44
-4854.61
-4997.98
-5829.43
-7104.96
-6939.72
-5411.91
-4546.69
-4482.18
-4742.56
-5987.89
-7246.92
-6423.89
-4845.2
-4453.45
-4533.7
-5419.49
-7000.79
-6723.32
-5124.49
-4562.26
-4556.24
-5361.5
-6971.6
-6715.76
-5105.57
-4543.63
-4541.82
-5228.56
-6809.39
-6804.51
-5232.36
-4575.36
-4601.88
-5259.16
-6867.76
-2078.86
-3358.27
-5723.69
-6396.12
-6298.05
-6211.24
-5912.28
-5427.53
-5083.61
-5020.96
-5138.48
-5775.96
-6755.89
-6651.97
-5457.21
-4756.82
-4707.02
-4918.52
-5902.87
-6871.46
-6206.74
-4984.56
-4688.17
-4748.02
-5449.78
-6679.28
-6443.8
-5205.68
-4777.16
-4770.58
-5372.14
-6615.66
-6452.87
-5206.07
-4756.54
-4755.35
-5283.06
-6500.79
-6495.43
-5291.64
-4788.07
-4808.74
-5322.8
-6576.57
-2651.83
-3566.29
-5427.81
-6101.32
-6119.7
-6058.08
-5827.47
-5467.4
-5216
-5171.48
-5265.99
-5731.28
-6433.99
-6373.71
-5499.97
-4960.05
-4919.48
-5079.78
-5812.75
-6512.75
-6010.65
-5120.2
-4903.39
-4945.39
-5475.62
-6371.24
-6183.62
-5282.38
-4969.87
-4966.78
-5395.97
-6292.96
-6200.57
-5298.12
-4952.74
-4950.93
-5337.06
-6213.01
-6212.57
-5354.36
-4983.28
-4995.92
-5379.54
-6296.98
-3191.45
-3809.05
-5186.52
-5817.85
-5927.77
-5903.85
-5744.11
-5496.74
-5325.49
-5297.45
-5371.92
-5694.57
-6158.79
-6124.73
-5533.41
-5140.26
-5106.13
-5220.2
-5727.92
-6196.92
-5845.9
-5241.54
-5088.08
-5116.4
-5495.52
-6098.52
-5960.14
-5350.81
-5133.22
-5133.77
-5425.86
-6023.3
-5977.13
-5374.18
-5121.82
-5119.23
-5385.92
-5966.64
-5973.26
-5410.94
-5149.78
-5156.33
-5427.59
-6048.68
-3671.74
-4070.63
-5018.01
-5567.53
-5736.52
-5755.4
-5663.56
-5511.88
-5407.32
-5394.09
-5452.3
-5661.73
-5939.63
-5918.1
-5552.43
-5287.91
-5259.66
-5335.01
-5655.97
-5941.02
-5717.2
-5341.12
-5237.01
-5256.53
-5507.78
-5875.64
-5783.1
-5407.53
-5263.62
-5266.52
-5454.75
-5815.34
-5795.29
-5430.66
-5257.76
-5254.87
-5426.44
-5773.82
-5786
-5455.03
-5281.88
-5286.01
-5464.9
-5845.5
-4072.73
-4327.25
-4931.4
-5370.54
-5562.19
-5619.2
-5587.1
-5511.74
-5460.09
-5460.5
-5505.26
-5629.76
-5776.55
-5760.4
-5557.77
-5398.43
-5375.62
-5420.93
-5600.7
-5752.14
-5624.78
-5414.99
-5349.09
-5363.29
-5512.16
-5709.81
-5655.17
-5448.5
-5361.35
-5365.29
-5476.38
-5668.88
-5661.41
-5466.14
-5359.8
-5356.95
-5455.23
-5638.37
-5652.25
-5482.53
-5380
-5383.01
-5489.12
-5694.87
-4388.64
-4553.69
-4918.3
-5239.05
-5420.63
-5502.34
-5516.57
-5497.74
-5485.81
-5498.23
-5531.99
-5598
-5663.45
-5650.74
-5553.23
-5470.65
-5454.6
-5477.47
-5561.95
-5627.82
-5564.62
-5462.81
-5426.49
-5435.98
-5511.03
-5600.39
-5572.15
-5473.31
-5427.94
-5432.06
-5489.18
-5576.74
-5574.29
-5484.68
-5428.79
-5425.89
-5473.17
-5555.26
-5567.23
-5495.79
-5445.15
-5447.33
-5501.56
-5595.87
-4627.04
-4737.18
-4952.71
-5170.55
-5321.76
-5411.58
-5455.5
-5474.3
-5489.51
-5511.22
-5536.79
-5567.34
-5589.92
-5581.37
-5543.12
-5509.09
-5500.3
-5508.09
-5537.23
-5556.87
-5529.82
-5489.11
-5473.17
-5478.06
-5507.52
-5538.26
-5525.1
-5486.17
-5467.67
-5471.23
-5495.03
-5526.58
-5525.54
-5492.37
-5469
-5466.38
-5483.13
-5512.31
-5520.79
-5499.89
-5481.71
-5483.29
-5505.57
-5539.65
-4801.15
-4878.58
-5009.17
-5148.72
-5265.67
-5350.37
-5407.94
-5447.74
-5479.54
-5505.94
-5525.99
-5539.05
-5544.16
-5540.32
-5530.7
-5522.47
-5519.81
-5519.53
-5522.62
-5522.51
-5512.15
-5500.37
-5496.07
-5497.38
-5503.81
-5508.78
-5502.69
-5491.58
-5487.49
-5490.08
-5496.81
-5503.85
-5502.91
-5494.55
-5488.35
-5486.4
-5488.52
-5494.91
-5500
-5499.59
-5497.6
-5498.95
-5505
-5512.8
-4932.69
-4984.09
-5066.01
-5157.4
-5242.86
-5315.94
-5375.18
-5422.59
-5460.58
-5488.93
-5506.37
-5514.02
-5515.58
-5516.01
-5518.04
-5521.05
-5522.17
-5519.27
-5513.78
-5508.14
-5504.03
-5502.84
-5503.44
-5502.9
-5500.52
-5497.37
-5494.2
-5493.16
-5494.86
-5496.67
-5496.76
-5495.76
-5494.88
-5494.8
-5495.34
-5494.28
-5491.6
-5490.48
-5493.16
-5497.85
-5501.48
-5502.83
-5502.85
-5502.23
-5036.11
-5067.3
-5118.6
-5178.86
-5241.66
-5301.1
-5354.75
-5400.83
-5438.62
-5466.46
-5483.75
-5492.2
-5496.04
-5499.89
-5505.73
-5511.81
-5514.8
-5512.78
-5507.24
-5501.97
-5499.91
-5501.08
-5502.63
-5501.67
-5497.87
-5493.57
-5491.68
-5493.11
-5495.9
-5497.24
-5495.93
-5493.69
-5492.98
-5494.61
-5496.55
-5496.17
-5493.22
-5490.68
-5491.84
-5496.2
-5500.11
-5501.44
-5500.29
-5498.37
-5119.88
-5137.23
-5168.23
-5207.69
-5252.03
-5298.39
-5342.95
-5383.36
-5417.44
-5443.62
-5461.74
-5472.89
-5480.2
-5486.66
-5493.57
-5499.95
-5503.69
-5503.62
-5500.76
-5497.71
-5496.61
-5497.52
-5498.61
-5497.92
-5495.31
-5492.41
-5491.27
-5492.42
-5494.47
-5495.5
-5494.74
-5493.3
-5492.93
-5494.14
-5495.6
-5495.55
-5493.71
-5491.91
-5492.21
-5494.65
-5497.22
-5498.25
-5497.66
-5496.64
-5187.6
-5196.89
-5215
-5240.06
-5270.36
-5303.87
-5338.37
-5371.1
-5400.03
-5423.76
-5441.94
-5455.29
-5465.33
-5473.66
-5481.11
-5487.43
-5491.75
-5493.56
-5493.42
-5492.66
-5492.48
-5493.11
-5493.79
-5493.61
-5492.44
-5491.09
-5490.57
-5491.22
-5492.43
-5493.23
-5493.17
-5492.7
-5492.64
-5493.28
-5494.04
-5494.09
-5493.23
-5492.26
-5492.18
-5493.19
-5494.46
-5495.13
-5495.06
-5494.75
-5241.37
-5246.46
-5257.04
-5272.64
-5292.61
-5315.78
-5340.61
-5365.37
-5388.46
-5408.78
-5425.82
-5439.72
-5451.03
-5460.43
-5468.38
-5474.94
-5479.92
-5483.22
-5485.13
-5486.22
-5487.1
-5488.01
-5488.81
-5489.2
-5489.14
-5488.93
-5488.98
-5489.48
-5490.25
-5490.92
-5491.27
-5491.4
-5491.58
-5491.95
-5492.33
-5492.4
-5492.08
-5491.62
-5491.46
-5491.73
-5492.19
-5492.53
-5492.63
-5492.59
-5283.25
-5286.23
-5292.62
-5302.39
-5315.31
-5330.78
-5347.94
-5365.76
-5383.24
-5399.58
-5414.29
-5427.21
-5438.37
-5447.95
-5456.13
-5463
-5468.59
-5472.95
-5476.23
-5478.71
-5480.65
-5482.26
-5483.58
-5484.61
-5485.36
-5485.95
-5486.53
-5487.18
-5487.9
-5488.58
-5489.14
-5489.57
-5489.94
-5490.28
-5490.55
-5490.67
-5490.6
-5490.44
-5490.31
-5490.32
-5490.42
-5490.54
-5490.6
-5490.62
-5315.25
-5317.12
-5321.18
-5327.44
-5335.84
-5346.08
-5357.72
-5370.2
-5382.96
-5395.49
-5407.4
-5418.44
-5428.48
-5437.46
-5445.4
-5452.31
-5458.24
-5463.23
-5467.38
-5470.81
-5473.66
-5476.04
-5478.05
-5479.74
-5481.17
-5482.38
-5483.45
-5484.43
-5485.34
-5486.17
-5486.9
-5487.53
-5488.06
-5488.49
-5488.82
-5489.04
-5489.15
-5489.17
-5489.16
-5489.15
-5489.15
-5489.17
-5489.18
-5489.18
-5339.06
-5340.32
-5343.01
-5347.16
-5352.75
-5359.63
-5367.57
-5376.29
-5385.48
-5394.85
-5404.13
-5413.11
-5421.62
-5429.56
-5436.86
-5443.47
-5449.39
-5454.64
-5459.25
-5463.28
-5466.78
-5469.82
-5472.47
-5474.78
-5476.8
-5478.56
-5480.11
-5481.48
-5482.7
-5483.79
-5484.74
-5485.58
-5486.29
-5486.89
-5487.37
-5487.75
-5488.02
-5488.21
-5488.33
-5488.4
-5488.45
-5488.47
-5488.48
-5488.47
-5356.03
-5356.93
-5358.81
-5361.69
-5365.57
-5370.35
-5375.92
-5382.14
-5388.85
-5395.88
-5403.06
-5410.23
-5417.27
-5424.07
-5430.55
-5436.65
-5442.32
-5447.54
-5452.32
-5456.66
-5460.58
-5464.1
-5467.27
-5470.1
-5472.62
-5474.88
-5476.89
-5478.67
-5480.26
-5481.67
-5482.91
-5484
-5484.94
-5485.75
-5486.43
-5486.99
-5487.45
-5487.8
-5488.07
-5488.27
-5488.41
-5488.49
-5488.53
-5488.55
-5366.51
-5367.21
-5368.63
-5370.8
-5373.71
-5377.31
-5381.53
-5386.29
-5391.49
-5397.03
-5402.82
-5408.74
-5414.7
-5420.6
-5426.38
-5431.98
-5437.33
-5442.41
-5447.19
-5451.66
-5455.81
-5459.64
-5463.15
-5466.37
-5469.3
-5471.96
-5474.36
-5476.53
-5478.47
-5480.21
-5481.75
-5483.11
-5484.3
-5485.33
-5486.22
-5486.98
-5487.61
-5488.12
-5488.54
-5488.85
-5489.09
-5489.24
-5489.33
-5489.38
-5371.82
-5372.41
-5373.59
-5375.39
-5377.82
-5380.81
-5384.34
-5388.35
-5392.76
-5397.51
-5402.53
-5407.74
-5413.06
-5418.43
-5423.78
-5429.05
-5434.19
-5439.15
-5443.92
-5448.45
-5452.74
-5456.76
-5460.51
-5464
-5467.22
-5470.17
-5472.87
-5475.33
-5477.56
-5479.56
-5481.35
-5482.94
-5484.35
-5485.58
-5486.65
-5487.56
-5488.34
-5488.99
-5489.51
-5489.92
-5490.23
-5490.45
-5490.58
-5490.64
-5374.03
-5374.56
-5375.62
-5377.24
-5379.43
-5382.13
-5385.32
-5388.96
-5392.98
-5397.34
-5401.98
-5406.83
-5411.84
-5416.93
-5422.06
-5427.17
-5432.21
-5437.14
-5441.92
-5446.51
-5450.91
-5455.07
-5459
-5462.68
-5466.11
-5469.28
-5472.2
-5474.88
-5477.31
-5479.51
-5481.49
-5483.26
-5484.83
-5486.21
-5487.42
-5488.45
-5489.34
-5490.08
-5490.69
-5491.17
-5491.53
-5491.78
-5491.94
-5492.02
-5374.52
-5375.03
-5376.03
-5377.57
-5379.64
-5382.21
-5385.25
-5388.72
-5392.57
-5396.76
-5401.23
-5405.92
-5410.79
-5415.77
-5420.82
-5425.88
-5430.91
-5435.85
-5440.68
-5445.35
-5449.85
-5454.14
-5458.21
-5462.04
-5465.63
-5468.97
-5472.06
-5474.9
-5477.49
-5479.85
-5481.97
-5483.87
-5485.56
-5487.06
-5488.36
-5489.49
-5490.45
-5491.25
-5491.91
-5492.44
-5492.84
-5493.11
-5493.28
-5493.37
-5374.1
-5374.59
-5375.57
-5377.08
-5379.11
-5381.64
-5384.62
-5388.03
-5391.83
-5395.95
-5400.37
-5405.02
-5409.86
-5414.83
-5419.88
-5424.96
-5430.02
-5435.03
-5439.93
-5444.69
-5449.29
-5453.69
-5457.88
-5461.84
-5465.56
-5469.03
-5472.24
-5475.21
-5477.92
-5480.39
-5482.62
-5484.63
-5486.41
-5487.98
-5489.35
-5490.54
-5491.55
-5492.4
-5493.1
-5493.65
-5494.07
-5494.36
-5494.54
-5494.63
-5373.23
-5373.72
-5374.68
-5376.19
-5378.22
-5380.75
-5383.73
-5387.15
-5390.94
-5395.08
-5399.52
-5404.2
-5409.07
-5414.08
-5419.18
-5424.31
-5429.44
-5434.52
-5439.5
-5444.35
-5449.04
-5453.55
-5457.84
-5461.9
-5465.72
-5469.29
-5472.61
-5475.67
-5478.47
-5481.01
-5483.32
-5485.38
-5487.22
-5488.85
-5490.27
-5491.5
-5492.54
-5493.42
-5494.14
-5494.71
-5495.14
-5495.44
-5495.61
-5495.7
-5372.22
-5372.7
-5373.67
-5375.19
-5377.25
-5379.8
-5382.82
-5386.27
-5390.11
-5394.3
-5398.79
-5403.52
-5408.45
-5413.52
-5418.69
-5423.9
-5429.1
-5434.26
-5439.32
-5444.25
-5449.02
-5453.6
-5457.97
-5462.11
-5466.01
-5469.65
-5473.03
-5476.14
-5479
-5481.6
-5483.94
-5486.05
-5487.92
-5489.58
-5491.02
-5492.27
-5493.33
-5494.22
-5494.95
-5495.52
-5495.95
-5496.25
-5496.42
-5496.5
-5371.27
-5371.75
-5372.73
-5374.27
-5376.36
-5378.95
-5382.02
-5385.53
-5389.43
-5393.68
-5398.24
-5403.04
-5408.04
-5413.18
-5418.42
-5423.7
-5428.97
-5434.2
-5439.32
-5444.32
-5449.15
-5453.79
-5458.22
-5462.41
-5466.35
-5470.02
-5473.44
-5476.58
-5479.46
-5482.08
-5484.45
-5486.56
-5488.45
-5490.11
-5491.55
-5492.8
-5493.87
-5494.75
-5495.48
-5496.05
-5496.48
-5496.76
-5496.92
-5496.99
-5370.49
-5370.97
-5371.96
-5373.52
-5375.65
-5378.29
-5381.42
-5384.99
-5388.96
-5393.28
-5397.9
-5402.77
-5407.83
-5413.05
-5418.35
-5423.69
-5429.02
-5434.3
-5439.48
-5444.52
-5449.4
-5454.08
-5458.53
-5462.74
-5466.7
-5470.39
-5473.81
-5476.96
-5479.84
-5482.45
-5484.8
-5486.9
-5488.77
-5490.41
-5491.84
-5493.07
-5494.12
-5495
-5495.71
-5496.27
-5496.69
-5496.96
-5497.1
-5497.16
-5369.95
-5370.43
-5371.42
-5373.02
-5375.18
-5377.87
-5381.05
-5384.68
-5388.7
-5393.08
-5397.75
-5402.68
-5407.81
-5413.07
-5418.43
-5423.82
-5429.2
-5434.52
-5439.74
-5444.82
-5449.72
-5454.41
-5458.88
-5463.1
-5467.06
-5470.74
-5474.15
-5477.28
-5480.12
-5482.7
-5485.02
-5487.08
-5488.91
-5490.5
-5491.89
-5493.08
-5494.1
-5494.94
-5495.63
-5496.18
-5496.57
-5496.83
-5496.95
-5496.99
-5369.7
-5370.18
-5371.17
-5372.79
-5374.98
-5377.71
-5380.92
-5384.58
-5388.64
-5393.06
-5397.78
-5402.74
-5407.91
-5413.22
-5418.62
-5424.05
-5429.46
-5434.82
-5440.06
-5445.16
-5450.08
-5454.78
-5459.25
-5463.47
-5467.41
-5471.07
-5474.45
-5477.54
-5480.35
-5482.88
-5485.14
-5487.14
-5488.9
-5490.43
-5491.75
-5492.88
-5493.83
-5494.62
-5495.27
-5495.77
-5496.14
-5496.37
-5496.47
-5496.49
-5369.78
-5370.25
-5371.24
-5372.85
-5375.05
-5377.78
-5381
-5384.67
-5388.74
-5393.17
-5397.91
-5402.9
-5408.09
-5413.43
-5418.86
-5424.32
-5429.77
-5435.14
-5440.41
-5445.52
-5450.45
-5455.16
-5459.62
-5463.82
-5467.75
-5471.38
-5474.72
-5477.77
-5480.52
-5483
-5485.19
-5487.12
-5488.8
-5490.25
-5491.48
-5492.52
-5493.38
-5494.08
-5494.65
-5495.09
-5495.41
-5495.59
-5495.65
-5495.66
-5370.23
-5370.68
-5371.64
-5373.21
-5375.37
-5378.06
-5381.24
-5384.88
-5388.94
-5393.36
-5398.1
-5403.1
-5408.31
-5413.67
-5419.12
-5424.61
-5430.07
-5435.47
-5440.75
-5445.88
-5450.81
-5455.52
-5459.98
-5464.17
-5468.07
-5471.67
-5474.98
-5477.98
-5480.68
-5483.09
-5485.21
-5487.07
-5488.66
-5490.01
-5491.14
-5492.07
-5492.81
-5493.4
-5493.85
-5494.18
-5494.4
-5494.48
-5494.49
-5494.47
-5371.13
-5371.52
-5372.39
-5373.83
-5375.88
-5378.47
-5381.58
-5385.16
-5389.17
-5393.57
-5398.3
-5403.3
-5408.52
-5413.9
-5419.37
-5424.87
-5430.36
-5435.78
-5441.07
-5446.21
-5451.15
-5455.86
-5460.31
-5464.49
-5468.37
-5471.94
-5475.21
-5478.17
-5480.82
-5483.17
-5485.23
-5487.01
-5488.52
-5489.77
-5490.79
-5491.59
-5492.21
-5492.66
-5492.96
-5493.12
-5493.17
-5493.07
-5492.97
-5492.87
-5372.6
-5372.77
-5373.47
-5374.64
-5376.52
-5378.96
-5381.96
-5385.45
-5389.41
-5393.77
-5398.48
-5403.48
-5408.7
-5414.09
-5419.58
-5425.11
-5430.61
-5436.05
-5441.36
-5446.51
-5451.45
-5456.16
-5460.61
-5464.77
-5468.64
-5472.19
-5475.43
-5478.35
-5480.95
-5483.25
-5485.25
-5486.96
-5488.39
-5489.55
-5490.47
-5491.15
-5491.63
-5491.92
-5492.04
-5491.99
-5491.81
-5491.41
-5491.11
-5490.78
-5374.77
-5374.4
-5374.79
-5375.56
-5377.2
-5379.45
-5382.32
-5385.72
-5389.62
-5393.94
-5398.63
-5403.62
-5408.85
-5414.25
-5419.76
-5425.3
-5430.82
-5436.27
-5441.6
-5446.76
-5451.71
-5456.42
-5460.87
-5465.02
-5468.87
-5472.41
-5475.62
-5478.51
-5481.07
-5483.33
-5485.28
-5486.93
-5488.29
-5489.37
-5490.19
-5490.77
-5491.11
-5491.25
-5491.19
-5490.89
-5490.43
-5489.58
-5488.95
-5488.05
-5377.76
-5376.31
-5376.23
-5376.48
-5377.84
-5379.89
-5382.62
-5385.94
-5389.78
-5394.06
-5398.74
-5403.73
-5408.96
-5414.37
-5419.89
-5425.45
-5430.99
-5436.45
-5441.79
-5446.96
-5451.92
-5456.64
-5461.08
-5465.23
-5469.07
-5472.59
-5475.78
-5478.64
-5481.18
-5483.4
-5485.31
-5486.91
-5488.22
-5489.24
-5489.98
-5490.46
-5490.7
-5490.69
-5490.45
-5489.92
-5489.14
-5487.72
-5486.62
-5484.58
-5381.66
-5378.3
-5377.62
-5377.29
-5378.38
-5380.23
-5382.86
-5386.1
-5389.89
-5394.15
-5398.81
-5403.79
-5409.04
-5414.46
-5419.98
-5425.56
-5431.11
-5436.59
-5441.94
-5447.12
-5452.08
-5456.8
-5461.25
-5465.39
-5469.22
-5472.73
-5475.91
-5478.76
-5481.27
-5483.47
-5485.35
-5486.91
-5488.18
-5489.15
-5489.83
-5490.24
-5490.38
-5490.26
-5489.88
-5489.12
-5488.05
-5486.01
-5484.29
-5480.28
-5386.38
-5380.16
-5378.81
-5377.92
-5378.78
-5380.48
-5383.02
-5386.2
-5389.96
-5394.2
-5398.85
-5403.83
-5409.08
-5414.51
-5420.05
-5425.63
-5431.19
-5436.68
-5442.04
-5447.22
-5452.19
-5456.92
-5461.36
-5465.51
-5469.34
-5472.84
-5476.01
-5478.84
-5481.34
-5483.52
-5485.38
-5486.92
-5488.16
-5489.1
-5489.73
-5490.09
-5490.17
-5489.97
-5489.47
-5488.54
-5487.22
-5484.6
-5482.21
-5475.27
-5391.56
-5381.67
-5379.66
-5378.34
-5379.03
-5380.63
-5383.11
-5386.26
-5389.99
-5394.22
-5398.87
-5403.85
-5409.1
-5414.54
-5420.08
-5425.67
-5431.24
-5436.73
-5442.1
-5447.29
-5452.26
-5456.99
-5461.43
-5465.58
-5469.4
-5472.9
-5476.07
-5478.89
-5481.39
-5483.55
-5485.4
-5486.93
-5488.15
-5489.07
-5489.68
-5490
-5490.04
-5489.79
-5489.22
-5488.18
-5486.68
-5483.62
-5480.57
-5469.91
-5396.48
-5382.62
-5380.12
-5378.57
-5379.16
-5380.71
-5383.16
-5386.29
-5390.01
-5394.23
-5398.88
-5403.86
-5409.11
-5414.55
-5420.09
-5425.69
-5431.26
-5436.75
-5442.12
-5447.32
-5452.29
-5457.02
-5461.46
-5465.61
-5469.43
-5472.93
-5476.09
-5478.92
-5481.41
-5483.57
-5485.41
-5486.93
-5488.15
-5489.05
-5489.65
-5489.96
-5489.99
-5489.71
-5489.1
-5488
-5486.4
-5483.1
-5479.55
-5464.9
-5400.42
-5383.04
-5380.28
-5378.65
-5379.2
-5380.73
-5383.17
-5386.3
-5390.02
-5394.24
-5398.88
-5403.87
-5409.12
-5414.55
-5420.1
-5425.69
-5431.26
-5436.76
-5442.13
-5447.32
-5452.3
-5457.03
-5461.47
-5465.62
-5469.44
-5472.94
-5476.1
-5478.92
-5481.41
-5483.57
-5485.41
-5486.94
-5488.15
-5489.05
-5489.65
-5489.95
-5489.97
-5489.68
-5489.06
-5487.94
-5486.31
-5482.93
-5479.11
-5460.93
)
;

boundaryField
{
    movingWall
    {
        type            zeroGradient;
    }
    fixedWalls
    {
        type            zeroGradient;
    }
    frontAndBack
    {
        type            empty;
    }
    defaultFaces
    {
        type            empty;
    }
}


// ************************************************************************* //
