/*--------------------------------*- C++ -*----------------------------------*\
  =========                 |
  \\      /  F ield         | OpenFOAM: The Open Source CFD Toolbox
   \\    /   O peration     | Website:  https://openfoam.org
    \\  /    A nd           | Version:  7
     \\/     M anipulation  |
\*---------------------------------------------------------------------------*/
FoamFile
{
    version     2.0;
    format      ascii;
    class       volScalarField;
    location    "0.99";
    object      p;
}
// * * * * * * * * * * * * * * * * * * * * * * * * * * * * * * * * * * * * * //

dimensions      [0 2 -2 0 0 0 0];

internalField   nonuniform List<scalar> 
1936
(
7.01534e-05
-3033.87
-7021.55
-6862.9
-5929.93
-5730.09
-5121.64
-4473.5
-4204.8
-4333.98
-5503.64
-7466.05
-7147.54
-4780.99
-3596.96
-3494.77
-4003.05
-6064.69
-7707.25
-6217.82
-3927.24
-3330.33
-3460.04
-4986.05
-7425.74
-7101.71
-4704.31
-3543.78
-3406.27
-4277.05
-7017.02
-7814.09
-5277.28
-3632.48
-3459.57
-3843.31
-5833.51
-7704.08
-6419.97
-4008.16
-3322.89
-3434.95
-4757.24
-7480.6
-103.338
-3036.32
-6960.01
-6814.04
-5909.63
-5717.59
-5123.48
-4496.89
-4244.21
-4362.96
-5484.06
-7403.86
-7098.77
-4775.87
-3638.59
-3554.59
-4035.36
-6044
-7648.57
-6178.21
-3950.81
-3396.07
-3508.09
-4970.21
-7365.06
-7058.1
-4713.29
-3599.8
-3465.71
-4275.98
-6946.85
-7742.88
-5255.27
-3668.31
-3519.55
-3879.93
-5815.15
-7643.57
-6372.76
-4022.72
-3385.69
-3488.08
-4752.75
-7423.6
-419.913
-3056.02
-6737
-6682.06
-5865.56
-5673.81
-5129.78
-4562
-4339.09
-4442.9
-5449.64
-7213.56
-6950.67
-4793.39
-3749.18
-3695.11
-4142.32
-5996.66
-7457.36
-6073.93
-4035.33
-3551.85
-3637.93
-4953.24
-7175.1
-6923.08
-4765.43
-3743.84
-3609.44
-4301.01
-6747.11
-7518.67
-5226.84
-3771.08
-3657.53
-3995.63
-5778.17
-7447.31
-6244.74
-4086.73
-3534.53
-3625.93
-4772.94
-7245.3
-857.265
-3106.07
-6411.94
-6482.46
-5804.07
-5612.92
-5138.23
-4652.77
-4469.01
-4560.08
-5412.46
-6932.65
-6726.11
-4833.84
-3915.66
-3888.59
-4292.75
-5916.68
-7161.37
-5925.77
-4164.08
-3765
-3827.5
-4945.28
-6890.61
-6708.86
-4835.1
-3938.83
-3812.88
-4364.83
-6468.76
-7182.1
-5199.45
-3929.68
-3848.08
-4157.78
-5715.36
-7144.28
-6063.16
-4192.91
-3741.59
-3821.64
-4810.84
-6971.86
-1360.17
-3189.05
-6041.74
-6235.37
-5721.32
-5541.05
-5147.86
-4755.12
-4611.41
-4691.06
-5375.14
-6608.44
-6462
-4891.56
-4115.27
-4104.41
-4456.27
-5810.43
-6809.12
-5759.28
-4313.35
-3999.18
-4045.53
-4948.74
-6561.59
-6447.77
-4901.61
-4147.82
-4041.49
-4460.16
-6164.43
-6791.95
-5176.64
-4120.18
-4060.77
-4333.81
-5629.52
-6784
-5860.34
-4323.62
-3972.56
-4041
-4856.3
-6649.09
-1889.65
-3306.96
-5668.81
-5961.33
-5616.81
-5462.89
-5156.25
-4857.21
-4749.91
-4818.34
-5338.93
-6279.56
-6186.33
-4959.78
-4327.41
-4322.28
-4614.15
-5683.92
-6440.19
-5593.36
-4468.07
-4230.22
-4266.71
-4963.58
-6227.16
-6166.77
-4955.05
-4348.29
-4269.61
-4575.43
-5872.96
-6394.55
-5159.91
-4320.77
-4275.42
-4503.62
-5524.82
-6406.75
-5659.93
-4465.55
-4202.9
-4258.92
-4903.66
-6313.12
-2416.59
-3459.66
-5324.94
-5681.05
-5494.16
-5381.65
-5161.35
-4948.56
-4872.63
-4928.7
-5305.36
-5975.13
-5922.17
-5027.57
-4534.35
-4527.91
-4754.05
-5548.45
-6086.8
-5443.9
-4616.29
-4442.95
-4472.32
-4987.36
-5915.32
-5889.29
-4994.75
-4528.63
-4478.28
-4695.56
-5620.59
-6024.95
-5146.59
-4513.43
-4477.14
-4654.25
-5411.62
-6045.59
-5480.11
-4605.77
-4415.98
-4459.58
-4949.1
-5991.44
-2919.08
-3641.6
-5033.82
-5414.73
-5360.43
-5299.18
-5159.55
-5021.78
-4972.04
-5015.37
-5274.02
-5714.05
-5687
-5084.75
-4720.09
-4709.35
-4871.46
-5417.44
-5774.05
-5320.55
-4749.83
-4627.87
-4650.71
-5014.38
-5645.46
-5636.82
-5023.16
-4683.1
-4656.22
-4806.96
-5419.1
-5708.16
-5132.92
-4683.26
-4653.53
-4780.75
-5303.42
-5726.48
-5330.18
-4734.34
-4601.44
-4633.66
-4988.76
-5705.29
-3375.74
-3843.98
-4812.99
-5180.63
-5224.94
-5216.91
-5148.03
-5072.31
-5044.19
-5076.52
-5242.76
-5505.47
-5492.01
-5123.26
-4873.94
-4858.92
-4963.05
-5304.05
-5518.71
-5226.26
-4863.45
-4779.15
-4796.46
-5038.08
-5428.31
-5425.53
-5041.33
-4810.55
-4798.34
-4899.48
-5270.39
-5457.87
-5115.88
-4821.93
-4797.39
-4880.95
-5210.79
-5467.64
-5214.27
-4843.21
-4753.04
-4776.9
-5019.04
-5468.46
-3764.86
-4052.48
-4674.15
-4994.49
-5098.75
-5137.01
-5125.55
-5098.49
-5088.89
-5112.46
-5210.3
-5350.03
-5342.77
-5142.09
-4988.76
-4971.35
-5028.54
-5216.2
-5328.83
-5159.94
-4951.49
-4895.31
-4908.13
-5053.44
-5267.49
-5265.01
-5050.34
-4909.44
-4903.64
-4968.53
-5170.19
-5277.67
-5097.15
-4925.04
-4905.26
-4954.51
-5139.94
-5276.83
-5132.41
-4925.98
-4869.89
-4887.53
-5037.09
-5288.24
-4073.59
-4247.15
-4615.7
-4867.22
-4993.59
-5063.58
-5093.57
-5102.07
-5108.19
-5126.06
-5177.36
-5241.82
-5238.28
-5145.12
-5063.4
-5045.47
-5069.4
-5155.18
-5202.59
-5117.5
-5011.88
-4977.43
-4985.2
-5060.31
-5160.3
-5156.92
-5052.77
-4978.47
-4975.58
-5013.56
-5109.7
-5161.84
-5080.43
-4993.47
-4977.85
-5002.69
-5091.49
-5151.92
-5080.84
-4981.78
-4952.28
-4964.73
-5044.63
-5165.14
-4304.23
-4410.72
-4618.78
-4798.91
-4919.02
-5002.76
-5057.07
-5088.5
-5106.79
-5121.88
-5145.65
-5170.99
-5171.05
-5137.43
-5101.49
-5086.31
-5089.75
-5117.37
-5129.78
-5092.99
-5047.32
-5028.65
-5031.13
-5061.41
-5097.91
-5094.16
-5051.96
-5020.04
-5019.38
-5038.6
-5077.25
-5097.73
-5068.21
-5031.77
-5020.97
-5029.62
-5062.56
-5082.1
-5053
-5014.66
-5003.4
-5011.11
-5045.64
-5092.03
-4468.24
-4537.88
-4656.71
-4777.21
-4877.26
-4959.65
-5022.83
-5066.11
-5091.69
-5106.1
-5116.95
-5126.45
-5129.91
-5123.86
-5112.45
-5101.89
-5095.6
-5096.46
-5094.31
-5080.32
-5064.13
-5055.31
-5053.55
-5059.96
-5067.3
-5063.76
-5050.28
-5040.93
-5042.04
-5049.96
-5062.04
-5068.25
-5060.67
-5048.84
-5042.35
-5041.9
-5048.3
-5050.66
-5041.22
-5031.39
-5030.12
-5033.85
-5043.96
-5055.78
-4586.77
-4631.93
-4703.8
-4784.18
-4862.13
-4934.18
-4994.98
-5040.15
-5068.72
-5084.04
-5092.18
-5098.29
-5104.25
-5108.28
-5107.57
-5101.89
-5093.16
-5085.51
-5079.59
-5074.24
-5069.6
-5065.56
-5061.5
-5058
-5055.31
-5052.34
-5049.74
-5049.38
-5051.22
-5053.68
-5055.97
-5057.26
-5056.54
-5053.93
-5050.26
-5046.26
-5043.19
-5040.68
-5038.38
-5038.67
-5040.98
-5042.02
-5042.09
-5041.75
-4676.92
-4704.28
-4749.34
-4803.66
-4862.92
-4921.48
-4973.99
-5015.55
-5044.03
-5061.1
-5071.11
-5078.71
-5086.29
-5092.89
-5095.66
-5093.1
-5086.41
-5079.02
-5073.68
-5070.98
-5069.47
-5066.92
-5062.42
-5056.78
-5051.92
-5049.63
-5050.06
-5051.83
-5053.55
-5054.11
-5053.87
-5053.9
-5054.33
-5053.99
-5051.66
-5047.46
-5042.91
-5039.78
-5039.43
-5041.4
-5043.63
-5043.4
-5040.83
-5038.06
-4748.29
-4763.68
-4791.58
-4828.29
-4871.06
-4916.44
-4958.92
-4994.58
-5021.36
-5039.92
-5052.67
-5062.59
-5071.23
-5078.19
-5081.98
-5081.69
-5078.15
-5073.59
-5070.09
-5068.23
-5066.97
-5064.76
-5060.83
-5056.1
-5052.22
-5050.47
-5050.78
-5052.17
-5053.28
-5053.36
-5052.94
-5052.75
-5052.9
-5052.57
-5050.85
-5047.69
-5044.25
-5041.89
-5041.44
-5042.44
-5043.36
-5042.61
-5040.41
-5038.39
-4805
-4813.49
-4830.43
-4854.51
-4884.21
-4916.95
-4949.59
-4978.76
-5002.73
-5021.39
-5035.79
-5047.29
-5056.68
-5063.87
-5068.38
-5069.99
-5069.31
-5067.58
-5065.92
-5064.7
-5063.45
-5061.5
-5058.65
-5055.46
-5052.88
-5051.57
-5051.48
-5051.94
-5052.36
-5052.35
-5052.1
-5051.88
-5051.67
-5051.09
-5049.75
-5047.67
-5045.46
-5043.8
-5043.03
-5042.91
-5042.73
-5041.86
-5040.53
-5039.42
-4849.43
-4854.35
-4864.71
-4880.21
-4900.09
-4922.83
-4946.48
-4969.06
-4989.19
-5006.33
-5020.65
-5032.53
-5042.26
-5049.83
-5055.19
-5058.43
-5059.97
-5060.44
-5060.39
-5060.04
-5059.31
-5058.06
-5056.34
-5054.5
-5052.97
-5052.05
-5051.7
-5051.65
-5051.61
-5051.47
-5051.24
-5050.98
-5050.61
-5049.97
-5048.96
-5047.62
-5046.2
-5044.98
-5044.08
-5043.41
-5042.74
-5041.93
-5041.09
-5040.48
-4883.74
-4886.82
-4893.37
-4903.38
-4916.48
-4931.86
-4948.46
-4965.17
-4980.99
-4995.44
-5008.27
-5019.42
-5028.88
-5036.62
-5042.66
-5047.1
-5050.21
-5052.28
-5053.59
-5054.32
-5054.51
-5054.24
-5053.62
-5052.86
-5052.17
-5051.67
-5051.37
-5051.16
-5050.97
-5050.76
-5050.52
-5050.23
-5049.84
-5049.29
-5048.55
-5047.65
-5046.7
-5045.78
-5044.95
-5044.18
-5043.45
-5042.76
-5042.18
-5041.81
-4909.88
-4911.93
-4916.23
-4922.8
-4931.46
-4941.8
-4953.24
-4965.19
-4977.17
-4988.61
-4999.29
-5009.01
-5017.64
-5025.09
-5031.35
-5036.46
-5040.53
-5043.69
-5046.1
-5047.86
-5049.07
-5049.82
-5050.22
-5050.38
-5050.43
-5050.44
-5050.42
-5050.38
-5050.29
-5050.16
-5049.99
-5049.76
-5049.45
-5049.05
-5048.54
-5047.95
-5047.3
-5046.64
-5045.98
-5045.35
-5044.76
-5044.24
-5043.83
-5043.59
-4929.41
-4930.81
-4933.71
-4938.12
-4943.94
-4950.95
-4958.86
-4967.36
-4976.13
-4984.93
-4993.45
-5001.53
-5009.01
-5015.81
-5021.85
-5027.11
-5031.63
-5035.45
-5038.62
-5041.22
-5043.31
-5044.96
-5046.23
-5047.21
-5047.97
-5048.54
-5048.98
-5049.29
-5049.49
-5049.6
-5049.63
-5049.58
-5049.46
-5049.26
-5048.98
-5048.63
-5048.24
-5047.82
-5047.39
-5046.97
-5046.57
-5046.23
-5045.97
-5045.82
-4943.52
-4944.51
-4946.52
-4949.56
-4953.57
-4958.45
-4964.03
-4970.15
-4976.62
-4983.29
-4989.98
-4996.55
-5002.87
-5008.85
-5014.4
-5019.49
-5024.09
-5028.2
-5031.83
-5034.99
-5037.73
-5040.07
-5042.05
-5043.72
-5045.12
-5046.27
-5047.22
-5047.99
-5048.59
-5049.06
-5049.4
-5049.63
-5049.77
-5049.82
-5049.8
-5049.71
-5049.56
-5049.38
-5049.17
-5048.95
-5048.74
-5048.55
-5048.41
-5048.34
-4952.54
-4953.28
-4954.76
-4957.01
-4959.98
-4963.61
-4967.81
-4972.47
-4977.5
-4982.78
-4988.2
-4993.65
-4999.05
-5004.32
-5009.37
-5014.16
-5018.65
-5022.8
-5026.62
-5030.09
-5033.21
-5036
-5038.46
-5040.63
-5042.53
-5044.16
-5045.57
-5046.76
-5047.76
-5048.58
-5049.25
-5049.79
-5050.21
-5050.52
-5050.74
-5050.88
-5050.95
-5050.97
-5050.95
-5050.9
-5050.83
-5050.77
-5050.71
-5050.69
-4957.45
-4958.06
-4959.26
-4961.09
-4963.52
-4966.5
-4969.97
-4973.86
-4978.09
-4982.59
-4987.28
-4992.08
-4996.91
-5001.71
-5006.41
-5010.96
-5015.32
-5019.45
-5023.33
-5026.93
-5030.26
-5033.3
-5036.05
-5038.54
-5040.75
-5042.71
-5044.43
-5045.92
-5047.21
-5048.31
-5049.23
-5050
-5050.63
-5051.14
-5051.54
-5051.85
-5052.07
-5052.23
-5052.34
-5052.4
-5052.43
-5052.44
-5052.44
-5052.44
-4959.83
-4960.37
-4961.43
-4963.05
-4965.2
-4967.86
-4970.95
-4974.45
-4978.27
-4982.37
-4986.68
-4991.12
-4995.65
-5000.19
-5004.7
-5009.11
-5013.39
-5017.5
-5021.41
-5025.1
-5028.54
-5031.73
-5034.66
-5037.33
-5039.75
-5041.91
-5043.83
-5045.52
-5047
-5048.27
-5049.36
-5050.29
-5051.06
-5051.69
-5052.21
-5052.62
-5052.94
-5053.19
-5053.37
-5053.49
-5053.58
-5053.63
-5053.65
-5053.66
-4960.76
-4961.26
-4962.24
-4963.76
-4965.78
-4968.27
-4971.2
-4974.5
-4978.13
-4982.03
-4986.15
-4990.43
-4994.81
-4999.23
-5003.65
-5008.01
-5012.27
-5016.39
-5020.34
-5024.09
-5027.62
-5030.91
-5033.96
-5036.75
-5039.29
-5041.59
-5043.64
-5045.45
-5047.05
-5048.44
-5049.63
-5050.65
-5051.51
-5052.22
-5052.81
-5053.28
-5053.65
-5053.94
-5054.16
-5054.32
-5054.43
-5054.5
-5054.54
-5054.56
-4960.84
-4961.32
-4962.28
-4963.75
-4965.71
-4968.14
-4970.99
-4974.21
-4977.76
-4981.59
-4985.64
-4989.86
-4994.19
-4998.59
-5002.99
-5007.35
-5011.63
-5015.78
-5019.78
-5023.59
-5027.19
-5030.56
-5033.69
-5036.57
-5039.2
-5041.58
-5043.72
-5045.62
-5047.29
-5048.74
-5050
-5051.07
-5051.98
-5052.73
-5053.35
-5053.85
-5054.25
-5054.56
-5054.8
-5054.97
-5055.09
-5055.16
-5055.2
-5055.22
-4960.49
-4960.96
-4961.91
-4963.36
-4965.32
-4967.72
-4970.55
-4973.76
-4977.3
-4981.12
-4985.17
-4989.39
-4993.74
-4998.15
-5002.58
-5006.98
-5011.29
-5015.5
-5019.55
-5023.41
-5027.07
-5030.5
-5033.69
-5036.64
-5039.33
-5041.76
-5043.95
-5045.89
-5047.6
-5049.09
-5050.38
-5051.48
-5052.41
-5053.18
-5053.81
-5054.32
-5054.72
-5055.04
-5055.27
-5055.45
-5055.57
-5055.64
-5055.68
-5055.7
-4959.96
-4960.44
-4961.38
-4962.84
-4964.8
-4967.22
-4970.07
-4973.3
-4976.86
-4980.71
-4984.79
-4989.06
-4993.44
-4997.9
-5002.38
-5006.82
-5011.19
-5015.44
-5019.54
-5023.45
-5027.16
-5030.63
-5033.86
-5036.84
-5039.56
-5042.03
-5044.24
-5046.2
-5047.92
-5049.42
-5050.72
-5051.82
-5052.74
-5053.51
-5054.14
-5054.64
-5055.04
-5055.34
-5055.57
-5055.74
-5055.85
-5055.92
-5055.95
-5055.97
-4959.44
-4959.92
-4960.86
-4962.34
-4964.32
-4966.77
-4969.65
-4972.92
-4976.53
-4980.43
-4984.57
-4988.88
-4993.32
-4997.83
-5002.36
-5006.85
-5011.27
-5015.56
-5019.7
-5023.65
-5027.38
-5030.88
-5034.13
-5037.12
-5039.85
-5042.32
-5044.52
-5046.48
-5048.19
-5049.68
-5050.95
-5052.03
-5052.94
-5053.69
-5054.29
-5054.78
-5055.16
-5055.45
-5055.66
-5055.82
-5055.92
-5055.98
-5056
-5056.01
-4959.03
-4959.51
-4960.46
-4961.95
-4963.96
-4966.45
-4969.38
-4972.7
-4976.36
-4980.32
-4984.51
-4988.88
-4993.37
-4997.93
-5002.51
-5007.04
-5011.49
-5015.82
-5019.98
-5023.95
-5027.7
-5031.21
-5034.46
-5037.44
-5040.16
-5042.6
-5044.78
-5046.71
-5048.39
-5049.84
-5051.07
-5052.11
-5052.98
-5053.68
-5054.25
-5054.7
-5055.05
-5055.32
-5055.51
-5055.65
-5055.74
-5055.79
-5055.8
-5055.81
-4958.82
-4959.29
-4960.25
-4961.76
-4963.8
-4966.33
-4969.31
-4972.67
-4976.38
-4980.38
-4984.62
-4989.03
-4993.57
-4998.17
-5002.78
-5007.35
-5011.82
-5016.17
-5020.35
-5024.33
-5028.07
-5031.57
-5034.81
-5037.77
-5040.46
-5042.87
-5045.01
-5046.89
-5048.51
-5049.91
-5051.08
-5052.06
-5052.87
-5053.51
-5054.02
-5054.42
-5054.72
-5054.94
-5055.11
-5055.22
-5055.3
-5055.33
-5055.34
-5055.34
-4958.85
-4959.32
-4960.28
-4961.81
-4963.88
-4966.44
-4969.44
-4972.83
-4976.57
-4980.59
-4984.86
-4989.3
-4993.87
-4998.5
-5003.13
-5007.72
-5012.21
-5016.57
-5020.76
-5024.73
-5028.47
-5031.96
-5035.17
-5038.11
-5040.75
-5043.12
-5045.21
-5047.03
-5048.59
-5049.91
-5051.02
-5051.92
-5052.64
-5053.21
-5053.64
-5053.96
-5054.19
-5054.35
-5054.46
-5054.53
-5054.58
-5054.6
-5054.6
-5054.6
-4959.18
-4959.65
-4960.6
-4962.13
-4964.2
-4966.76
-4969.75
-4973.14
-4976.88
-4980.91
-4985.19
-4989.64
-4994.22
-4998.87
-5003.51
-5008.12
-5012.62
-5016.99
-5021.17
-5025.14
-5028.87
-5032.34
-5035.53
-5038.43
-5041.03
-5043.35
-5045.38
-5047.14
-5048.63
-5049.88
-5050.9
-5051.72
-5052.35
-5052.82
-5053.15
-5053.37
-5053.5
-5053.57
-5053.6
-5053.6
-5053.6
-5053.59
-5053.57
-5053.57
-4959.87
-4960.31
-4961.24
-4962.72
-4964.75
-4967.26
-4970.21
-4973.56
-4977.27
-4981.29
-4985.55
-4990.01
-4994.59
-4999.24
-5003.9
-5008.51
-5013.02
-5017.39
-5021.57
-5025.53
-5029.25
-5032.7
-5035.86
-5038.73
-5041.3
-5043.56
-5045.54
-5047.24
-5048.66
-5049.83
-5050.77
-5051.5
-5052.04
-5052.4
-5052.63
-5052.73
-5052.73
-5052.68
-5052.58
-5052.47
-5052.38
-5052.28
-5052.24
-5052.24
-4960.98
-4961.36
-4962.2
-4963.55
-4965.47
-4967.87
-4970.74
-4974.03
-4977.69
-4981.66
-4985.91
-4990.35
-4994.94
-4999.59
-5004.25
-5008.86
-5013.38
-5017.75
-5021.93
-5025.89
-5029.6
-5033.03
-5036.17
-5039.01
-5041.54
-5043.76
-5045.69
-5047.33
-5048.69
-5049.79
-5050.65
-5051.29
-5051.74
-5052
-5052.11
-5052.08
-5051.95
-5051.74
-5051.49
-5051.22
-5050.96
-5050.7
-5050.58
-5050.53
-4962.63
-4962.79
-4963.45
-4964.54
-4966.28
-4968.53
-4971.29
-4974.48
-4978.07
-4982.01
-4986.23
-4990.66
-4995.24
-4999.89
-5004.56
-5009.18
-5013.7
-5018.07
-5022.25
-5026.21
-5029.91
-5033.32
-5036.44
-5039.26
-5041.76
-5043.95
-5045.83
-5047.42
-5048.72
-5049.76
-5050.55
-5051.12
-5051.48
-5051.65
-5051.65
-5051.49
-5051.22
-5050.85
-5050.41
-5049.92
-5049.44
-5048.89
-5048.6
-5048.34
-4964.94
-4964.56
-4964.92
-4965.6
-4967.1
-4969.17
-4971.79
-4974.88
-4978.41
-4982.3
-4986.49
-4990.91
-4995.48
-5000.14
-5004.81
-5009.44
-5013.96
-5018.34
-5022.53
-5026.48
-5030.17
-5033.58
-5036.68
-5039.48
-5041.95
-5044.11
-5045.96
-5047.51
-5048.76
-5049.75
-5050.48
-5050.98
-5051.27
-5051.35
-5051.26
-5050.99
-5050.58
-5050.04
-5049.42
-5048.69
-5047.92
-5046.94
-5046.34
-5045.56
-4968.05
-4966.57
-4966.47
-4966.63
-4967.86
-4969.72
-4972.2
-4975.21
-4978.67
-4982.52
-4986.69
-4991.1
-4995.67
-5000.33
-5005.01
-5009.64
-5014.17
-5018.56
-5022.75
-5026.7
-5030.39
-5033.79
-5036.88
-5039.66
-5042.12
-5044.25
-5046.07
-5047.59
-5048.81
-5049.75
-5050.44
-5050.89
-5051.11
-5051.13
-5050.95
-5050.58
-5050.05
-5049.37
-5048.57
-5047.59
-5046.51
-5044.98
-5043.94
-5042.05
-4972.03
-4968.64
-4967.94
-4967.53
-4968.48
-4970.15
-4972.52
-4975.44
-4978.85
-4982.67
-4986.83
-4991.23
-4995.8
-5000.47
-5005.15
-5009.79
-5014.33
-5018.72
-5022.91
-5026.87
-5030.56
-5033.95
-5037.04
-5039.81
-5042.25
-5044.37
-5046.17
-5047.66
-5048.85
-5049.76
-5050.42
-5050.82
-5051.01
-5050.97
-5050.73
-5050.29
-5049.66
-5048.86
-5047.91
-5046.7
-5045.33
-5043.18
-5041.56
-5037.73
-4976.8
-4970.56
-4969.18
-4968.21
-4968.93
-4970.45
-4972.74
-4975.6
-4978.97
-4982.77
-4986.91
-4991.32
-4995.89
-5000.56
-5005.25
-5009.89
-5014.44
-5018.83
-5023.03
-5026.99
-5030.68
-5034.07
-5037.15
-5039.91
-5042.34
-5044.45
-5046.24
-5047.71
-5048.89
-5049.78
-5050.41
-5050.79
-5050.94
-5050.87
-5050.58
-5050.09
-5049.39
-5048.51
-5047.44
-5046.06
-5044.43
-5041.72
-5039.44
-5032.71
-4982.01
-4972.09
-4970.06
-4968.67
-4969.22
-4970.64
-4972.87
-4975.69
-4979.04
-4982.83
-4986.96
-4991.36
-4995.94
-5000.61
-5005.3
-5009.95
-5014.5
-5018.9
-5023.1
-5027.06
-5030.75
-5034.14
-5037.22
-5039.98
-5042.4
-5044.51
-5046.28
-5047.75
-5048.91
-5049.79
-5050.4
-5050.77
-5050.9
-5050.81
-5050.5
-5049.97
-5049.23
-5048.29
-5047.16
-5045.66
-5043.85
-5040.71
-5037.78
-5027.33
-4986.94
-4973.06
-4970.54
-4968.91
-4969.37
-4970.73
-4972.93
-4975.74
-4979.07
-4982.85
-4986.99
-4991.38
-4995.96
-5000.63
-5005.33
-5009.98
-5014.53
-5018.93
-5023.13
-5027.09
-5030.78
-5034.17
-5037.25
-5040.01
-5042.43
-5044.53
-5046.3
-5047.76
-5048.92
-5049.8
-5050.4
-5050.76
-5050.89
-5050.79
-5050.46
-5049.92
-5049.16
-5048.19
-5047.02
-5045.46
-5043.56
-5040.17
-5036.76
-5022.32
-4990.89
-4973.49
-4970.71
-4968.99
-4969.41
-4970.76
-4972.95
-4975.75
-4979.08
-4982.86
-4986.99
-4991.39
-4995.97
-5000.64
-5005.34
-5009.99
-5014.54
-5018.94
-5023.14
-5027.1
-5030.79
-5034.18
-5037.26
-5040.01
-5042.44
-5044.54
-5046.31
-5047.77
-5048.93
-5049.8
-5050.4
-5050.76
-5050.88
-5050.78
-5050.45
-5049.9
-5049.14
-5048.16
-5046.98
-5045.4
-5043.46
-5039.99
-5036.31
-5018.35
)
;

boundaryField
{
    movingWall
    {
        type            zeroGradient;
    }
    fixedWalls
    {
        type            zeroGradient;
    }
    frontAndBack
    {
        type            empty;
    }
    defaultFaces
    {
        type            empty;
    }
}


// ************************************************************************* //
