/*--------------------------------*- C++ -*----------------------------------*\
  =========                 |
  \\      /  F ield         | OpenFOAM: The Open Source CFD Toolbox
   \\    /   O peration     | Website:  https://openfoam.org
    \\  /    A nd           | Version:  7
     \\/     M anipulation  |
\*---------------------------------------------------------------------------*/
FoamFile
{
    version     2.0;
    format      ascii;
    class       surfaceScalarField;
    location    "1.54";
    object      phi;
}
// * * * * * * * * * * * * * * * * * * * * * * * * * * * * * * * * * * * * * //

dimensions      [0 3 -1 0 0 0 0];

internalField   nonuniform List<scalar> 
3784
(
-0.00193746
0.00193746
-0.000837484
-0.00109997
0.00055811
-0.00139559
0.000643711
-8.55995e-05
0.000160213
0.000483497
-0.000750593
0.000910807
-0.00172972
0.000979127
-0.0018107
8.09755e-05
-0.000677391
-0.00113331
0.00101131
-0.0016887
0.00206854
-0.00105723
0.00186454
0.000203997
0.000723619
0.00114092
-0.000525521
0.00124914
-0.00106798
0.000542455
-0.000577158
-0.000490819
0.000532411
-0.00110957
0.00109324
-0.000560824
0.000500149
0.000593087
-0.000822517
0.00132267
-0.00195386
0.00113135
-0.00196156
7.69994e-06
-0.000597566
-0.001364
0.00115809
-0.00175566
0.00212211
-0.000964021
0.00192685
0.000195258
0.000792585
0.00113427
-0.00050837
0.00130095
-0.00114002
0.000631651
-0.000783671
-0.000356351
0.000351187
-0.00113486
0.00109788
-0.000746688
0.000582874
0.000515001
-0.000797771
0.00138064
-0.0019467
0.00114892
-0.00181742
-0.000129277
-0.000309706
-0.00150772
0.00138372
-0.00169342
0.00211772
-0.000734006
0.00156632
0.000551402
0.000223314
0.00134301
-0.000975434
0.00119875
-0.00103225
5.68154e-05
-0.00103225
-0.00288788
0.00482534
-0.00170386
-0.002284
0.000869667
-0.00396912
0.000912307
-0.000128243
7.49916e-05
0.00132081
-0.000748247
0.00173405
-0.00157958
0.00181045
-0.00205027
0.000551673
-0.000984359
-0.00219922
0.00133987
-0.00401293
0.00224732
-0.00196468
0.00166756
0.000783759
0.000762796
0.00204569
-0.000405881
0.00241781
-0.00135229
0.00148887
-0.000866008
-0.000977102
0.000799701
-0.00277528
0.00133825
-0.00109937
0.00036216
0.00156918
-0.000813911
0.00249874
-0.00175531
0.00207275
-0.00219663
0.000449013
-0.000846586
-0.00271404
0.00157185
-0.0041741
0.00235279
-0.00174496
0.00172228
0.000825765
0.000798988
0.00205757
-0.000380688
0.00248063
-0.00142779
0.00167875
-0.00116186
-0.000622277
0.000551099
-0.00284782
0.00136085
-0.00155644
0.000437632
0.00143821
-0.000771789
0.00259007
-0.00175739
0.00213452
-0.00212021
0.000233554
-0.000457794
-0.00317014
0.00188233
-0.00403355
0.00223374
-0.00108541
0.00136282
0.00142232
0.00036597
0.00233986
-0.000942624
0.00250734
-0.00148513
0.000599325
-0.00251738
-0.00277417
0.00759951
-0.00239648
-0.00266169
0.000313597
-0.00667919
0.00121549
-0.00103013
0.000737621
0.00179868
-0.000111847
0.00258351
-0.00124827
0.00294688
-0.00209611
0.00139951
-0.00102221
-0.00327311
0.00151089
-0.00654603
0.00239147
-0.00284527
0.00142291
0.00175232
0.000157014
0.00331158
-0.00105532
0.00363014
-0.00181347
0.00224702
-0.000982849
-0.00180772
0.00104533
-0.00480347
0.00183614
-0.00189018
0.00098898
0.00241634
-0.000255184
0.0037429
-0.00154653
0.00336409
-0.00236155
0.00126403
-0.00104363
-0.00403196
0.00164349
-0.00686122
0.00252264
-0.00262411
0.00153201
0.0018164
0.000196271
0.0033933
-0.00106473
0.00374163
-0.00192792
0.00254194
-0.0012719
-0.0012783
0.000831426
-0.00495114
0.00186411
-0.00258912
0.0010496
0.00225273
-0.000250581
0.00389024
-0.00160275
0.00348669
-0.00229952
0.000930321
-0.000605094
-0.00486456
0.00201882
-0.00665746
0.00240979
-0.00147638
0.00115397
0.00267814
-0.000237226
0.00373105
-0.00159205
0.00386216
-0.0018807
0.000887983
-0.00439809
-0.00204128
0.00964079
-0.00259651
-0.00210646
-0.000669053
-0.00860665
0.000653391
-0.00235258
0.000748785
0.00170329
0.000328218
0.00300408
-0.000479209
0.0037543
-0.00127743
0.00219774
-0.000650971
-0.00389957
0.00106027
-0.00825726
0.00151217
-0.00329717
0.00057118
0.00269331
-0.000451762
0.00433452
-0.00116754
0.00434592
-0.00146246
0.00254193
-0.000698275
-0.0025719
0.000834791
-0.00633653
0.00150021
-0.0025556
0.00111716
0.00279939
0.000377531
0.00448253
-0.000638762
0.00438038
-0.00147244
0.00209771
-0.000758064
-0.00474633
0.00110388
-0.00872316
0.00166364
-0.00318387
0.000712967
0.00276708
-0.000418845
0.00452511
-0.00121131
0.00453409
-0.00158653
0.00291717
-0.000894785
-0.00197005
0.000706148
-0.00655207
0.00149141
-0.00337439
0.00111537
0.00262878
0.000352369
0.00465324
-0.000689839
0.0045289
-0.00142579
0.00166627
-0.000434982
-0.00585537
0.00137612
-0.00846856
0.00156877
-0.00166903
0.000457787
0.00378912
-0.00064876
0.0048376
-0.00144049
0.0046539
-0.00142028
0.000867773
-0.00581837
-0.0013313
0.0109721
-0.00267494
-0.000762822
-0.00180337
-0.00947822
-0.000257018
-0.00389893
0.000322716
0.00112355
0.00032219
0.00300461
-3.83754e-05
0.00411487
-0.000533442
0.0026928
-0.000285535
-0.00414748
0.000551851
-0.00909465
0.000629695
-0.00337502
-0.000115385
0.00343839
-0.000807417
0.00502656
-0.00113418
0.00467268
-0.00107142
0.00247918
-0.000390023
-0.0032533
0.000607894
-0.00733445
0.00114792
-0.00309562
0.00112013
0.00282718
0.000771542
0.00483112
0.000109538
0.00504239
-0.000583697
0.00279095
-0.000435882
-0.00489415
0.000500805
-0.00965985
0.00077874
-0.00346181
2.92258e-05
0.00351659
-0.000761003
0.00531534
-0.00117821
0.0049513
-0.0011911
0.00293006
-0.000484616
-0.00267653
0.000563654
-0.00760034
0.00109974
-0.00391047
0.00104355
0.00268497
0.00071883
0.00497795
8.03655e-05
0.00516736
-0.00055416
0.0023008
-0.000251607
-0.00615792
0.000671496
-0.00939166
0.000702788
-0.00170033
-9.66474e-05
0.00458855
-0.000838456
0.00557941
-0.00117191
0.00498735
-0.000927188
0.000623056
-0.00674556
-0.000585053
0.0115571
-0.00239773
0.00104985
-0.00276319
-0.00911276
-0.00142634
-0.00523579
-0.00049571
0.000192925
-0.000170206
0.0026791
3.70182e-05
0.00390765
4.5328e-05
0.00268449
1.77073e-05
-0.00411985
7.2495e-06
-0.00908419
-0.000213112
-0.00315465
-0.000566889
0.00379216
-0.000811265
0.00527093
-0.000785374
0.00464679
-0.000538177
0.00223198
-5.04768e-05
-0.003741
0.000367556
-0.00775248
0.000681613
-0.00340967
0.000822864
0.00268592
0.000809335
0.00484465
0.000609576
0.00524215
0.000232739
0.00316778
-0.000107089
-0.00455432
-0.000103061
-0.00966388
-8.99786e-05
-0.00347489
-0.000429155
0.00385577
-0.000753916
0.0056401
-0.000823104
0.00502048
-0.000622953
0.00272991
-4.50646e-05
-0.00325442
0.000390658
-0.00803607
0.000606893
-0.00412671
0.000709091
0.00258277
0.000735062
0.00495198
0.000596324
0.0053061
0.000237482
0.00265964
-6.89011e-05
-0.00585154
-4.31463e-05
-0.00941742
-0.000128269
-0.0016152
-0.000454316
0.0049146
-0.000698382
0.00582347
-0.000629132
0.0049181
-0.000390938
0.000384863
-0.0071365
0.000140916
0.0114162
-0.00171933
0.0029101
-0.00322459
-0.0076075
-0.00254087
-0.00591951
-0.00151323
-0.000834719
-0.000860546
0.00202642
-0.000134084
0.00318119
0.000375404
0.002175
0.000202411
-0.00394686
-0.000547785
-0.00833399
-0.000921506
-0.00278093
-0.000816385
0.00368704
-0.000543704
0.00499825
-0.000240269
0.00434336
9.10716e-05
0.00190064
0.000304603
-0.00395453
9.85177e-05
-0.0075464
7.56982e-05
-0.00338686
0.000309669
0.00245195
0.000590328
0.00456399
0.000871828
0.00496065
0.000871907
0.0031677
0.000231274
-0.00391369
-0.000631786
-0.00880082
-0.000834016
-0.00327266
-0.000716794
0.00373854
-0.000489433
0.00541274
-0.000249369
0.00478042
6.08336e-05
0.00241971
0.000386713
-0.0035803
0.000170477
-0.00781983
-9.36785e-06
-0.00394686
0.000188143
0.00238526
0.000521134
0.00461899
0.000876534
0.0049507
0.000864753
0.00267142
0.000134244
-0.00512103
-0.000682281
-0.00860089
-0.000816809
-0.00148068
-0.000637703
0.0047355
-0.000344436
0.00553021
4.11718e-05
0.00453249
0.000192284
0.000233752
-0.00694421
0.000821288
0.0105949
-0.000684722
0.00441611
-0.00295958
-0.00533265
-0.00317618
-0.0057029
-0.00229038
-0.00172052
-0.00135913
0.00109517
-0.000297384
0.00211944
0.000539808
0.00133781
0.000213632
-0.00362069
-0.0010995
-0.00702086
-0.00153225
-0.00234819
-0.000972433
0.00312722
-0.000228001
0.00425383
0.000332653
0.0037827
0.000773147
0.00146014
0.000600559
-0.00378194
-0.000213236
-0.00673261
-0.000555268
-0.00304482
-0.000219458
0.00211614
0.00030469
0.00403984
0.00100297
0.00426237
0.00137379
0.00279688
0.000556643
-0.00309655
-0.000991093
-0.00725308
-0.00143883
-0.00282493
-0.000900877
0.00320059
-0.000176702
0.00468857
0.000345687
0.00425803
0.000810963
0.00195443
0.000732755
-0.00350209
-0.000126281
-0.0069608
-0.000632157
-0.00344099
-0.000317398
0.0020705
0.000262268
0.00403932
0.00102267
0.0041903
0.00135735
0.00233674
0.000344346
-0.00410802
-0.00113994
-0.0071166
-0.00134717
-0.00127345
-0.000710592
0.00409892
2.55364e-05
0.00479408
0.00059909
0.00395893
0.000732154
0.000100687
-0.00621206
0.00140735
0.00918759
0.00058465
0.00523881
-0.00191797
-0.00283003
-0.00296637
-0.0046545
-0.00245189
-0.002235
-0.00145637
9.96558e-05
-0.000355991
0.00101906
0.000563769
0.000418051
8.66623e-05
-0.00314358
-0.00152559
-0.00540861
-0.00196735
-0.00190642
-0.00106386
0.00222373
-2.28433e-05
0.00321281
0.000811933
0.00294792
0.00130714
0.000964931
0.000763244
-0.00323804
-0.000539908
-0.00542945
-0.00113927
-0.00244546
-0.00070171
0.00167858
8.01965e-05
0.00325794
0.00101496
0.00332761
0.0016836
0.00212824
0.000806363
-0.0022193
-0.00114216
-0.00530456
-0.00180517
-0.00216191
-0.000968175
0.0023636
4.93112e-05
0.00367109
0.000881272
0.00342607
0.00142044
0.00141526
0.000930122
-0.00301177
-0.000438356
-0.00559232
-0.00117294
-0.0027064
-0.000731879
0.00162944
8.78042e-05
0.00321964
0.00105397
0.00322414
0.00165841
0.00173229
0.000520224
-0.00296983
-0.00136173
-0.00523465
-0.0016622
-0.000972977
-0.000742099
0.00317882
0.000272742
0.00377924
0.00102964
0.00320204
0.00118048
-5.01591e-05
-0.00503158
0.00180208
0.00738551
0.00182012
0.00522076
-0.00034848
-0.000661428
-0.00189717
-0.00310582
-0.00193159
-0.00220057
-0.00119461
-0.00063733
-0.000266893
9.13492e-05
0.000503884
-0.000352727
-7.56749e-05
-0.00256403
-0.00168915
-0.00379513
-0.00208967
-0.0015059
-0.00109734
0.0012314
4.01911e-05
0.00207527
0.00102788
0.00196024
0.00151034
0.000482475
0.000736506
-0.00246421
-0.000796818
-0.00389613
-0.00149021
-0.00175207
-0.00097552
0.00116389
-4.1556e-05
0.00232397
0.00096007
0.00232598
0.00169517
0.00139314
0.000872166
-0.0013963
-0.00108386
-0.00334853
-0.00182587
-0.0014199
-0.000969856
0.00150759
0.000157272
0.00254396
0.0011655
0.00241784
0.00170252
0.000878243
0.000951085
-0.00226033
-0.000658754
-0.00398248
-0.00145588
-0.00190927
-0.000937118
0.00111067
2.20847e-05
0.00226043
0.00101587
0.00223036
0.00166451
0.00108365
0.000581945
-0.00188727
-0.0013353
-0.00331741
-0.00168366
-0.00062461
-0.000665764
0.00216092
0.000411808
0.00270167
0.00131339
0.00230046
0.00142638
-0.00016315
-0.0036052
0.00183892
0.00554659
0.0025525
0.00450717
0.00115826
0.000732807
-0.000381684
-0.00156587
-0.000931837
-0.00165042
-0.000652875
-0.000916293
-2.95501e-05
-0.000531978
0.000454227
-0.000836502
-0.000158721
-0.00195108
-0.0015162
-0.00243765
-0.001852
-0.0011701
-0.00101679
0.000396187
2.62404e-05
0.00103225
0.000961499
0.00102498
0.0013531
9.08739e-05
0.000547986
-0.0016591
-0.00090755
-0.0024406
-0.00153091
-0.00112871
-0.00102063
0.000653613
-0.00011403
0.00141737
0.000788505
0.00142345
0.00139686
0.000784789
0.000731447
-0.00073089
-0.000869697
-0.00174739
-0.00152394
-0.000765655
-0.00083632
0.000819965
0.000193753
0.00151389
0.00116038
0.00145121
0.00160348
0.000435142
0.000808981
-0.00146583
-0.000724093
-0.00244941
-0.00143168
-0.00120168
-0.000938998
0.00061799
-4.5666e-05
0.0013671
0.000851183
0.00133351
0.00136827
0.000566559
0.000495383
-0.00101438
-0.00109246
-0.00172957
-0.00141777
-0.000299299
-0.000539878
0.00128303
0.000468721
0.00169307
0.00136475
0.00140443
0.00139603
-0.00019443
-0.00220916
0.00159847
0.00394812
0.00263914
0.0034665
0.00203737
0.00133458
0.000919037
-0.000447534
0.000189773
-0.000921152
8.33961e-05
-0.000809916
0.00031233
-0.000760914
0.000452314
-0.000976486
-0.000115003
-0.00138376
-0.0010779
-0.00147475
-0.00134633
-0.000901672
-0.000794031
-0.000156113
-7.95982e-06
0.000246177
0.00071889
0.000298129
0.000966814
-0.000157054
0.000300231
-0.000992513
-0.000820923
-0.00131944
-0.00129154
-0.000658097
-0.000897425
0.0002595
-0.000188395
0.000708338
0.000506163
0.000728889
0.000908614
0.000382338
0.000457881
-0.000280156
-0.000592848
-0.000696657
-0.00104292
-0.000315579
-0.000586819
0.000363859
0.000194539
0.000732528
0.000940101
0.000705648
0.00122832
0.00014692
0.000565596
-0.000803103
-0.000621947
-0.00126186
-0.0011634
-0.000660226
-0.00080128
0.000255867
-0.000116071
0.000681887
0.000562796
0.000654636
0.000885219
0.000244137
0.000298052
-0.000427219
-0.000749677
-0.000681846
-0.000982524
-6.64505e-05
-0.000358519
0.000659027
0.000439179
0.000895371
0.00114531
0.000698299
0.00110235
-0.000151471
-0.00110681
0.00108516
0.00286296
0.00210162
0.00245005
0.00215018
0.00128602
0.00150677
0.000195882
0.000937572
-0.000351962
0.00068733
-0.000559676
0.000625993
-0.000699575
0.000482576
-0.000833067
2.3532e-05
-0.000924719
-0.000558102
-0.000893116
-0.000761898
-0.000697873
-0.00049257
-0.000425442
-1.64414e-05
-0.000229955
0.000437126
-0.000155436
0.000551636
-0.000271562
0.000101789
-0.000542669
-0.000593446
-0.000624208
-0.000904505
-0.000347039
-0.000679924
3.49165e-05
-0.000226244
0.000254658
0.00021972
0.000282926
0.00043799
0.000164069
0.000196003
-3.81673e-05
-0.000334866
-0.000165785
-0.000572555
-7.789e-05
-0.000325077
0.000116378
0.000158715
0.000248733
0.000622805
0.000241558
0.000757796
1.19307e-05
0.000306844
-0.000352147
-0.000432541
-0.000522475
-0.000791601
-0.000301167
-0.000594986
5.92527e-05
-0.000161347
0.000248247
0.000257235
0.000236052
0.000415235
8.61368e-05
9.71385e-05
-0.000109123
-0.000431137
-0.00015357
-0.000551129
5.35428e-05
-0.000185276
0.000293176
0.00033436
0.000375736
0.000764696
0.000267961
0.000689969
-7.67449e-05
-0.000416843
0.000771696
0.00209126
0.00144076
0.00178099
0.00165771
0.00106906
0.00142137
0.00043223
0.00110443
-3.50249e-05
0.00087247
-0.000327723
0.000687702
-0.000514808
0.000458236
-0.000603595
0.000151987
-0.000618469
-0.000142221
-0.000598913
-0.000273071
-0.000567024
-0.000187588
-0.000510922
1.5276e-05
-0.000432819
0.000207794
-0.000347954
0.000238972
-0.000302739
-1.83238e-06
-0.000301866
-0.000355295
-0.000270749
-0.000529691
-0.000172645
-0.000438139
-5.66341e-05
-0.000204633
2.11535e-05
2.4406e-05
5.38891e-05
0.000128744
5.9734e-05
4.42296e-05
4.63488e-05
-0.000143283
2.17265e-05
-0.000231229
1.00529e-05
-0.000125387
1.05335e-05
0.000108009
1.53362e-05
0.000328286
2.12826e-05
0.000363206
-2.29873e-05
0.000116516
-0.000105454
-0.000257321
-0.000148638
-0.000457841
-0.000100649
-0.000383519
-1.50691e-05
-0.000166837
3.15661e-05
3.63208e-05
3.28931e-05
9.89894e-05
2.34684e-05
-2.33582e-05
1.32239e-05
-0.000211315
3.43872e-05
-0.000240804
8.30319e-05
-6.10746e-05
0.000113447
0.000205545
0.000109119
0.000402338
7.11685e-05
0.000336871
-1.12806e-05
-7.99723e-05
0.000578153
0.00151311
0.000996196
0.00136296
0.00116196
0.000903294
0.00111302
0.000481173
0.000943213
0.000134789
0.00075999
-0.000144496
0.000571176
-0.000325997
0.00038396
-0.000416379
0.00021395
-0.000448456
8.35717e-05
-0.000468539
1.0445e-05
-0.000493899
1.63357e-06
-0.000502106
3.62263e-05
-0.000467409
7.27793e-05
-0.00038451
5.25368e-05
-0.000282499
-5.28928e-05
-0.000196435
-0.000187217
-0.000136425
-0.000258854
-0.000101008
-0.000234737
-8.07501e-05
-0.000148138
-6.54434e-05
-5.80057e-05
-3.62424e-05
-5.9389e-06
7.66699e-06
-4.92638e-06
4.5336e-05
-3.20607e-05
4.88593e-05
-4.04004e-05
1.83899e-05
-3.33496e-06
-2.65332e-05
6.3345e-05
-5.13427e-05
0.000128358
-4.37287e-05
0.000120566
-1.51958e-05
1.73631e-05
-2.2514e-06
-0.00012537
-5.9028e-06
-0.000211911
-1.41071e-05
-0.000201361
-2.56188e-05
-0.000131142
-3.86524e-05
-6.75397e-05
-3.07102e-05
-4.07745e-05
-3.29709e-06
-6.26734e-05
3.51224e-05
-8.71032e-05
5.88154e-05
-6.34409e-05
5.93715e-05
8.66849e-06
4.13399e-05
0.000101154
1.66348e-05
0.000157085
1.52391e-05
0.000118802
2.70026e-05
3.88275e-05
0.000443318
0.00106979
0.000763206
0.00104307
0.000895559
0.000770945
0.000889501
0.000487229
0.000799212
0.000225079
0.000641472
1.32475e-05
0.000481871
-0.000166397
0.000340782
-0.000275294
0.000235787
-0.000343462
0.00016116
-0.000393909
0.000100952
-0.00043369
5.01578e-05
-0.000451312
7.93899e-06
-0.000425189
-2.34542e-05
-0.000353117
-5.00752e-05
-0.000255878
-7.90491e-05
-0.000167459
-0.000104849
-0.000110623
-0.000116679
-8.91777e-05
-0.000109537
-8.78923e-05
-9.11153e-05
-8.38643e-05
-6.76494e-05
-5.97085e-05
-3.97458e-05
-2.02391e-05
-7.33996e-06
1.29288e-05
1.9969e-05
2.15506e-05
3.67331e-05
1.62531e-06
4.08203e-05
-3.06221e-05
3.6961e-05
-4.74837e-05
2.83096e-05
-3.50764e-05
1.64108e-05
-3.29716e-06
-9.75741e-06
2.39164e-05
-4.6317e-05
3.06587e-05
-7.24355e-05
1.20133e-05
-8.05361e-05
-1.75181e-05
-8.01094e-05
-3.90797e-05
-7.34608e-05
-3.73609e-05
-6.43351e-05
-1.24234e-05
-4.82015e-05
1.89909e-05
-2.63948e-05
3.70084e-05
-3.86342e-07
3.33638e-05
2.47823e-05
1.61742e-05
3.67671e-05
4.65154e-06
3.65132e-05
1.5492e-05
2.07658e-05
4.27506e-05
5.9593e-05
0.000328802
0.000740988
0.000602828
0.00076905
0.000747837
0.000625939
0.000782698
0.00045237
0.000735394
0.000272381
0.000642781
0.00010586
0.000509025
-3.26402e-05
0.000386866
-0.000153138
0.000284248
-0.000240844
0.000197866
-0.000307525
0.000117501
-0.000353325
3.7159e-05
-0.000370972
-3.40603e-05
-0.00035397
-8.3731e-05
-0.00030344
-0.000104868
-0.000234735
-0.000102681
-0.000169644
-8.85035e-05
-0.000124802
-7.40351e-05
-0.000103646
-6.60573e-05
-9.58704e-05
-6.31397e-05
-8.67832e-05
-5.56221e-05
-6.72274e-05
-3.59323e-05
-3.99291e-05
-6.65898e-06
-1.63447e-05
2.30593e-05
-8.16812e-06
3.95598e-05
-1.48759e-05
3.74003e-05
-2.84639e-05
2.21935e-05
-3.22781e-05
7.09629e-06
-1.99786e-05
8.0932e-07
2.99115e-06
1.67999e-06
2.30465e-05
4.92209e-06
2.74177e-05
2.83676e-06
1.40991e-05
-7.32994e-06
-7.35236e-06
-2.32763e-05
-2.3134e-05
-3.66152e-05
-2.40226e-05
-3.76037e-05
-1.14355e-05
-2.36284e-05
5.01788e-06
-2.85135e-06
1.62335e-05
1.30686e-05
1.74435e-05
1.6036e-05
1.32059e-05
6.80407e-06
1.38856e-05
-3.61861e-06
2.59141e-05
-5.99309e-06
4.51233e-05
5.36004e-05
0.000235391
0.000505601
0.00045932
0.000545121
0.000611994
0.000473264
0.000688022
0.000376342
0.000695367
0.000265036
0.000650369
0.000150856
0.000574542
4.31873e-05
0.00047399
-5.2584e-05
0.00036976
-0.000136615
0.000265472
-0.000203239
0.000162274
-0.000250127
6.45112e-05
-0.000273206
-1.87467e-05
-0.000270708
-7.61137e-05
-0.000246067
-0.000102795
-0.00020805
-0.000103498
-0.000168943
-9.02129e-05
-0.000138091
-7.58406e-05
-0.000118017
-6.72564e-05
-0.000104454
-6.30658e-05
-9.09763e-05
-5.64437e-05
-7.38506e-05
-4.17203e-05
-5.46501e-05
-1.96227e-05
-3.84416e-05
1.72136e-06
-2.95152e-05
1.41851e-05
-2.73413e-05
1.31814e-05
-2.74594e-05
4.23977e-06
-2.33362e-05
-2.99801e-06
-1.27402e-05
-6.81246e-07
6.75786e-07
1.03951e-05
1.19702e-05
2.33113e-05
1.45012e-05
2.95528e-05
7.85782e-06
2.3973e-05
-1.77289e-06
1.06838e-05
-9.84459e-06
-2.3659e-06
-1.09722e-05
-7.85667e-06
-5.94519e-06
-4.97053e-06
2.13003e-06
2.27157e-06
8.99232e-06
6.50624e-06
1.32117e-05
3.30392e-06
1.64068e-05
-4.77779e-06
2.19672e-05
-1.06192e-05
3.1757e-05
-8.5576e-06
4.30604e-05
4.50418e-05
0.000165273
0.000340329
0.000335658
0.000374734
0.000470797
0.000338123
0.000561524
0.000285615
0.000605315
0.000221246
0.000606041
0.000150129
0.000571889
7.73375e-05
0.000511762
7.54252e-06
0.000431133
-5.59859e-05
0.000338397
-0.000110503
0.000240325
-0.000152055
0.000145132
-0.000178009
6.2034e-05
-0.000187605
-1.10078e-06
-0.000182932
-4.03976e-05
-0.000168755
-5.87727e-05
-0.00015057
-6.38392e-05
-0.000133025
-6.37285e-05
-0.000118128
-6.31728e-05
-0.00010501
-6.23303e-05
-9.18199e-05
-5.8553e-05
-7.76267e-05
-4.99001e-05
-6.33017e-05
-3.75676e-05
-5.07761e-05
-2.56658e-05
-4.14199e-05
-1.82457e-05
-3.4761e-05
-1.64396e-05
-2.92639e-05
-1.72275e-05
-2.25485e-05
-1.58602e-05
-1.41076e-05
-9.79071e-06
-5.39267e-06
1.24661e-06
9.32468e-07
1.26293e-05
3.11793e-06
1.83384e-05
2.14985e-06
1.7195e-05
-6.28558e-07
1.02033e-05
-2.85405e-06
1.98194e-06
-2.75294e-06
-4.02162e-06
5.85081e-08
-6.42414e-06
4.53025e-06
-6.76836e-06
9.33345e-06
-7.60674e-06
1.40542e-05
-1.02591e-05
1.90632e-05
-1.32767e-05
2.49846e-05
-1.32998e-05
3.17798e-05
-8.39879e-06
3.8159e-05
3.66422e-05
0.000114703
0.000225625
0.000238006
0.00025143
0.000343998
0.000232131
0.000426089
0.000203524
0.000480234
0.000167101
0.00050524
0.000125121
0.000502612
7.99626e-05
0.000476006
3.41479e-05
0.000427614
-7.59196e-06
0.000365446
-4.83325e-05
0.000293847
-8.04539e-05
0.000219897
-0.000104056
0.000150745
-0.000118451
9.21431e-05
-0.000124331
4.69877e-05
-0.000123602
1.49406e-05
-0.000118522
-6.84984e-06
-0.000111231
-2.20966e-05
-0.000102881
-3.32881e-05
-9.38212e-05
-4.11126e-05
-8.39937e-05
-4.52013e-05
-7.35349e-05
-4.54878e-05
-6.30164e-05
-4.3023e-05
-5.32442e-05
-3.97061e-05
-4.47365e-05
-3.70495e-05
-3.7415e-05
-3.56199e-05
-3.06934e-05
-3.4081e-05
-2.40885e-05
-3.07283e-05
-1.74597e-05
-2.47959e-05
-1.13239e-05
-1.73592e-05
-6.50373e-06
-1.07988e-05
-3.442e-06
-6.78528e-06
-1.86361e-06
-6.20168e-06
-1.21114e-06
-8.75414e-06
-3.02009e-07
-1.28563e-05
1.3438e-06
-1.66932e-05
3.89404e-06
-1.92812e-05
7.12068e-06
-2.0699e-05
1.07494e-05
-2.13202e-05
1.46752e-05
-2.11258e-05
1.88727e-05
-1.94039e-05
2.32647e-05
-1.51607e-05
2.75355e-05
-8.0328e-06
3.10296e-05
2.8609e-05
7.93986e-05
0.000146227
0.000166656
0.00016417
0.000245056
0.000153729
0.000310553
0.000138025
0.000360015
0.000117635
0.00039156
9.35731e-05
0.000404497
6.70235e-05
0.000399339
3.93047e-05
0.000379834
1.19135e-05
0.000345191
-1.36876e-05
0.000301261
-3.65244e-05
0.000252217
-5.50146e-05
0.000202515
-6.87505e-05
0.000155936
-7.77518e-05
0.000114869
-8.25352e-05
8.02381e-05
-8.38908e-05
5.16452e-05
-8.26382e-05
2.81906e-05
-7.94286e-05
9.07524e-06
-7.47072e-05
-6.10252e-06
-6.88142e-05
-1.75251e-05
-6.21118e-05
-2.55429e-05
-5.50022e-05
-3.08162e-05
-4.79729e-05
-3.42554e-05
-4.12947e-05
-3.66036e-05
-3.50663e-05
-3.80683e-05
-2.92319e-05
-3.84456e-05
-2.37115e-05
-3.73835e-05
-1.85197e-05
-3.48989e-05
-1.38089e-05
-3.1626e-05
-9.77591e-06
-2.85604e-05
-6.50539e-06
-2.65277e-05
-3.89851e-06
-2.60326e-05
-1.70827e-06
-2.6763e-05
4.30409e-07
-2.80922e-05
2.67013e-06
-2.93152e-05
5.11299e-06
-2.99289e-05
7.73691e-06
-2.9665e-05
1.04877e-05
-2.8313e-05
1.33214e-05
-2.56234e-05
1.6182e-05
-2.13118e-05
1.89533e-05
-1.52127e-05
2.14363e-05
-7.52141e-06
2.33381e-05
2.10882e-05
5.56091e-05
9.06173e-05
0.000117578
0.000102199
0.000174786
9.65212e-05
0.000224839
8.79708e-05
0.000265673
7.67978e-05
0.000295788
6.34559e-05
0.000314312
4.85012e-05
0.000321042
3.2577e-05
0.000316584
1.63735e-05
0.000301519
1.37845e-06
0.000278706
-1.37107e-05
0.000250013
-2.63222e-05
0.000217972
-3.67101e-05
0.000184907
-4.46859e-05
0.000152642
-5.02681e-05
0.000122384
-5.36311e-05
9.4777e-05
-5.50316e-05
7.00988e-05
-5.47503e-05
4.84569e-05
-5.30642e-05
2.9893e-05
-5.0249e-05
1.43697e-05
-4.65896e-05
1.77083e-06
-4.24056e-05
-8.29164e-06
-3.79091e-05
-1.62413e-05
-3.3342e-05
-2.24552e-05
-2.88539e-05
-2.7181e-05
-2.45089e-05
-3.05305e-05
-2.03594e-05
-3.25984e-05
-1.64486e-05
-3.35745e-05
-1.28346e-05
-3.37875e-05
-9.56242e-06
-3.36436e-05
-6.64472e-06
-3.34992e-05
-4.04405e-06
-3.35263e-05
-1.68509e-06
-3.36253e-05
5.31403e-07
-3.36062e-05
2.65275e-06
-3.32252e-05
4.7294e-06
-3.22525e-05
6.76363e-06
-3.05058e-05
8.74329e-06
-2.78318e-05
1.06481e-05
-2.40948e-05
1.24439e-05
-1.9215e-05
1.40727e-05
-1.32296e-05
1.54508e-05
-6.35259e-06
1.64617e-05
1.47363e-05
3.59279e-05
5.46867e-05
7.635e-05
6.1772e-05
0.000114284
5.85851e-05
0.00014844
5.38119e-05
0.000177651
4.75807e-05
0.00020099
4.01139e-05
0.000217805
3.16865e-05
0.000227757
2.2625e-05
0.000230851
1.32777e-05
0.000228278
3.95038e-06
0.000219349
-4.78266e-06
0.000205798
-1.27722e-05
0.000188789
-1.97025e-05
0.000169506
-2.54029e-05
0.000149029
-2.9792e-05
0.000128267
-3.28693e-05
0.000107931
-3.46968e-05
8.85599e-05
-3.53795e-05
7.05487e-05
-3.50528e-05
5.41716e-05
-3.38729e-05
3.95896e-05
-3.201e-05
2.68273e-05
-2.96446e-05
1.58514e-05
-2.69316e-05
6.53274e-06
-2.40223e-05
-1.30204e-06
-2.1022e-05
-7.78254e-06
-1.80305e-05
-1.30321e-05
-1.51068e-05
-1.71701e-05
-1.23081e-05
-2.0349e-05
-9.65797e-06
-2.2723e-05
-7.18885e-06
-2.44526e-05
-4.91104e-06
-2.56909e-05
-2.80503e-06
-2.64926e-05
-8.86459e-07
-2.68504e-05
8.894e-07
-2.6742e-05
2.54644e-06
-2.61168e-05
4.10379e-06
-2.49174e-05
5.56283e-06
-2.30945e-05
6.92056e-06
-2.06136e-05
8.16808e-06
-1.74588e-05
9.28957e-06
-1.36468e-05
1.02607e-05
-9.24514e-06
1.1049e-05
-4.39267e-06
1.16091e-05
1.03429e-05
2.24208e-05
3.22639e-05
4.78071e-05
3.63853e-05
7.18799e-05
3.45136e-05
9.3957e-05
3.17345e-05
0.000113418
2.81186e-05
0.00012975
2.37831e-05
0.000142563
1.88758e-05
0.000151612
1.35779e-05
0.000156811
8.07833e-06
0.000158269
2.49207e-06
0.00015622
-2.73287e-06
0.000151081
-7.63125e-06
0.000143359
-1.19789e-05
0.000133611
-1.56544e-05
0.000122401
-1.85821e-05
0.000110261
-2.07302e-05
9.7671e-05
-2.21058e-05
8.50416e-05
-2.27486e-05
7.2714e-05
-2.27239e-05
6.09576e-05
-2.21168e-05
4.99715e-05
-2.10251e-05
3.98801e-05
-1.95529e-05
3.07525e-05
-1.78018e-05
2.25977e-05
-1.58664e-05
1.54078e-05
-1.38339e-05
9.14161e-06
-1.17653e-05
3.75539e-06
-9.71788e-06
-8.22466e-07
-7.72799e-06
-4.64362e-06
-5.83802e-06
-7.77171e-06
-4.06115e-06
-1.02731e-05
-2.4068e-06
-1.22229e-05
-8.53451e-07
-1.3628e-05
5.17525e-07
-1.45363e-05
1.79724e-06
-1.49628e-05
2.97411e-06
-1.49118e-05
4.05326e-06
-1.4389e-05
5.0392e-06
-1.34022e-05
5.93323e-06
-1.19673e-05
6.73322e-06
-1.01108e-05
7.43338e-06
-7.87452e-06
8.0243e-06
-5.31924e-06
8.49324e-06
-2.53128e-06
8.82015e-06
7.80994e-06
1.52955e-05
1.69658e-05
3.26781e-05
1.90011e-05
4.92778e-05
1.79123e-05
6.46886e-05
1.63209e-05
7.85395e-05
1.42657e-05
9.05129e-05
1.18099e-05
0.000100353
9.03597e-06
0.000107905
6.02541e-06
0.000113071
2.9106e-06
0.000115766
-2.03974e-07
0.00011627
-3.23655e-06
0.000114678
-6.03895e-06
0.000111218
-8.51868e-06
0.000106169
-1.06067e-05
9.98395e-05
-1.22535e-05
9.25413e-05
-1.34333e-05
8.45784e-05
-1.41429e-05
7.62315e-05
-1.44003e-05
6.77478e-05
-1.4239e-05
5.93398e-05
-1.3709e-05
5.11821e-05
-1.28684e-05
4.34109e-05
-1.17816e-05
3.61233e-05
-1.05127e-05
2.93814e-05
-9.12421e-06
2.32199e-05
-7.67421e-06
1.76636e-05
-6.21031e-06
1.27221e-05
-4.77514e-06
8.38822e-06
-3.39275e-06
4.62383e-06
-2.07463e-06
1.40958e-06
-8.47788e-07
-1.23042e-06
2.34577e-07
-3.37073e-06
1.28828e-06
-5.08594e-06
2.23241e-06
-6.35515e-06
3.0659e-06
-7.19331e-06
3.81269e-06
-7.6198e-06
4.48023e-06
-7.65625e-06
5.07532e-06
-7.32718e-06
5.6033e-06
-6.66192e-06
6.06697e-06
-5.69605e-06
6.4664e-06
-4.47236e-06
6.79918e-06
-3.04146e-06
7.06051e-06
-1.46566e-06
7.24222e-06
6.34291e-06
1.06531e-05
6.31277e-06
2.27359e-05
6.92e-06
3.43249e-05
6.32325e-06
4.51659e-05
5.47925e-06
5.50222e-05
4.41004e-06
6.36757e-05
3.15796e-06
7.08917e-05
1.82041e-06
7.66988e-05
2.18295e-07
8.0804e-05
-1.19435e-06
8.34382e-05
-2.83808e-06
8.45502e-05
-4.34846e-06
8.4186e-05
-5.67417e-06
8.24614e-05
-6.79321e-06
7.953e-05
-7.67493e-06
7.5573e-05
-8.29686e-06
7.0787e-05
-8.6475e-06
6.53719e-05
-8.72696e-06
5.95232e-05
-8.54952e-06
5.3417e-05
-8.13081e-06
4.72174e-05
-7.50894e-06
4.10651e-05
-6.71667e-06
3.50796e-05
-5.79591e-06
2.93566e-05
-4.78869e-06
2.39648e-05
-3.73226e-06
1.89552e-05
-2.6661e-06
1.43725e-05
-1.62888e-06
1.0285e-05
-6.87064e-07
6.70717e-06
1.8594e-07
3.56562e-06
1.06632e-06
8.55592e-07
1.86133e-06
-1.44892e-06
2.53954e-06
-3.31489e-06
3.1552e-06
-4.74977e-06
3.66739e-06
-5.78419e-06
4.10002e-06
-6.43554e-06
4.46419e-06
-6.72506e-06
4.77014e-06
-6.67776e-06
5.02801e-06
-6.3224e-06
5.24727e-06
-5.69158e-06
5.43491e-06
-4.82196e-06
5.5951e-06
-3.75409e-06
5.72927e-06
-2.53208e-06
5.83619e-06
-1.20567e-06
5.91351e-06
5.13663e-06
6.89177e-06
-5.79604e-07
1.46033e-05
-7.9034e-07
2.20284e-05
-1.10286e-06
2.89775e-05
-1.4704e-06
3.52814e-05
-1.89329e-06
4.08067e-05
-2.36708e-06
4.55013e-05
-2.87504e-06
4.91198e-05
-3.40038e-06
5.18036e-05
-3.87786e-06
5.32979e-05
-4.33285e-06
5.36555e-05
-4.70675e-06
5.29595e-05
-4.97806e-06
5.12954e-05
-5.12831e-06
4.87679e-05
-5.14673e-06
4.55008e-05
-5.02981e-06
4.16306e-05
-4.77761e-06
3.72994e-05
-4.3953e-06
3.2638e-05
-3.8868e-06
2.78002e-05
-3.29169e-06
2.29319e-05
-2.6406e-06
1.81382e-05
-1.92383e-06
1.35083e-05
-1.16657e-06
9.13421e-06
-4.1437e-07
5.07587e-06
3.26036e-07
1.38047e-06
1.02816e-06
-1.92715e-06
1.67768e-06
-4.8633e-06
2.24937e-06
-7.41742e-06
2.74078e-06
-9.51406e-06
3.16261e-06
-1.11617e-05
3.50799e-06
-1.2394e-05
3.77143e-06
-1.31857e-05
3.94706e-06
-1.35869e-05
4.06838e-06
-1.36181e-05
4.1309e-06
-1.33014e-05
4.14736e-06
-1.26621e-05
4.13112e-06
-1.17273e-05
4.09356e-06
-1.0527e-05
4.04691e-06
-9.09299e-06
4.00047e-06
-7.46007e-06
3.96123e-06
-5.66547e-06
3.93332e-06
-3.74872e-06
3.91784e-06
-1.75066e-06
3.91387e-06
3.38576e-06
3.51111e-06
-4.09049e-06
7.50482e-06
-4.78192e-06
1.12709e-05
-4.869e-06
1.4695e-05
-4.89383e-06
1.76747e-05
-4.87185e-06
2.01081e-05
-4.80053e-06
2.18953e-05
-4.66291e-06
2.29614e-05
-4.46589e-06
2.32883e-05
-4.20413e-06
2.2836e-05
-3.88098e-06
2.16234e-05
-3.49468e-06
1.96972e-05
-3.05174e-06
1.71426e-05
-2.57287e-06
1.40574e-05
-2.06087e-06
1.05329e-05
-1.50544e-06
6.66728e-06
-9.1269e-07
2.56189e-06
-2.90436e-07
-1.67701e-06
3.52329e-07
-5.94778e-06
9.79527e-07
-1.00195e-05
1.43078e-06
-1.38835e-05
1.93908e-06
-1.74778e-05
2.42691e-06
-2.07485e-05
2.85658e-06
-2.36335e-05
3.21135e-06
-2.6088e-05
3.4826e-06
-2.80791e-05
3.6686e-06
-2.95974e-05
3.76844e-06
-3.06378e-05
3.78229e-06
-3.11957e-05
3.72064e-06
-3.12787e-05
3.59032e-06
-3.09032e-05
3.3954e-06
-3.01025e-05
3.14626e-06
-2.88912e-05
2.85704e-06
-2.73164e-05
2.55595e-06
-2.5419e-05
2.25005e-06
-2.32381e-05