/*--------------------------------*- C++ -*----------------------------------*\
  =========                 |
  \\      /  F ield         | OpenFOAM: The Open Source CFD Toolbox
   \\    /   O peration     | Website:  https://openfoam.org
    \\  /    A nd           | Version:  7
     \\/     M anipulation  |
\*---------------------------------------------------------------------------*/
FoamFile
{
    version     2.0;
    format      ascii;
    class       surfaceScalarField;
    location    "7.2";
    object      phi;
}
// * * * * * * * * * * * * * * * * * * * * * * * * * * * * * * * * * * * * * //

dimensions      [0 3 -1 0 0 0 0];

internalField   nonuniform List<scalar> 
1740
(
5.06968e-07
-5.07771e-07
-5.59249e-07
1.06622e-06
-3.31031e-06
2.75106e-06
-7.38276e-06
4.07244e-06
-1.23466e-05
4.96382e-06
-1.78326e-05
5.48606e-06
-2.3559e-05
5.7264e-06
-2.93148e-05
5.75574e-06
-3.49313e-05
5.61654e-06
-4.02564e-05
5.32509e-06
-4.51346e-05
4.87815e-06
-4.93955e-05
4.26091e-06
-5.2851e-05
3.45549e-06
-5.53006e-05
2.44967e-06
-5.65461e-05
1.24546e-06
-5.64122e-05
-1.33944e-07
-5.47725e-05
-1.63962e-06
-5.15825e-05
-3.19001e-06
-4.69052e-05
-4.67728e-06
-4.09305e-05
-5.97469e-06
-3.39803e-05
-6.95025e-06
-2.64948e-05
-7.48548e-06
-1.8999e-05
-7.49578e-06
-1.20508e-05
-6.94823e-06
-6.17803e-06
-5.87276e-06
-1.8111e-06
-4.36693e-06
7.92709e-07
-2.60381e-06
1.62991e-06
-8.3719e-07
1.0115e-06
6.18416e-07
1.01151e-06
-1.06771e-06
5.59941e-07
-5.61868e-06
5.61719e-06
-1.36325e-05
1.07649e-05
-2.44289e-05
1.48688e-05
-3.72183e-05
1.77533e-05
-5.12551e-05
1.95228e-05
-6.58992e-05
2.03705e-05
-8.06158e-05
2.04724e-05
-9.49433e-05
1.99441e-05
-0.000108455
1.88364e-05
-0.000120725
1.71484e-05
-0.000131312
1.48481e-05
-0.000139754
1.18977e-05
-0.000145585
8.28006e-06
-0.000148362
4.02257e-06
-0.000147727
-7.68465e-07
-0.000143431
-5.93611e-06
-0.000135429
-1.11915e-05
-0.000123916
-1.61905e-05
-0.00010936
-2.05307e-05
-9.2511e-05
-2.37992e-05
-7.43665e-05
-2.563e-05
-5.60977e-05
-2.57646e-05
-3.89377e-05
-2.41082e-05
-2.40443e-05
-2.07662e-05
-1.23511e-05
-1.60601e-05
-4.4227e-06
-1.05322e-05
-3.08811e-07
-4.95109e-06
6.79068e-07
-3.69484e-07
1.69059e-06
-2.93425e-06
3.49419e-06
-1.13522e-05
1.40351e-05
-2.447e-05
2.38827e-05
-4.12987e-05
3.16976e-05
-6.07859e-05
3.72405e-05
-8.19455e-05
4.06823e-05
-0.000103906
4.23306e-05
-0.000125906
4.24729e-05
-0.000147267
4.13048e-05
-0.000167347
3.89166e-05
-0.000185511
3.53121e-05
-0.000201107
3.04444e-05
-0.00021347
2.4261e-05
-0.000221942
1.6752e-05
-0.000225917
7.99773e-06
-0.0002249
-1.7854e-06
-0.000218576
-1.22604e-05
-0.0002069
-2.28674e-05
-0.000190157
-3.29339e-05
-0.000169005
-4.16827e-05
-0.000144485
-4.83187e-05
-0.00011798
-5.21357e-05
-9.11108e-05
-5.26336e-05
-6.55933e-05
-4.96258e-05
-4.30441e-05
-4.33154e-05
-2.47769e-05
-3.43273e-05
-1.16037e-05
-2.37054e-05
-3.66214e-06
-1.28927e-05
-3.09766e-07
-3.72187e-06
1.38082e-06
-4.67573e-06
8.16992e-06
-1.67822e-05
2.61416e-05
-3.47326e-05
4.18331e-05
-5.70859e-05
5.40508e-05
-8.25217e-05
6.26763e-05
-0.000109862
6.80225e-05
-0.000138073
7.05419e-05
-0.000166243
7.06429e-05
-0.000193541
6.86027e-05
-0.000219174
6.45493e-05
-0.000242351
5.8489e-05
-0.000262264
5.03579e-05
-0.000278092
4.0089e-05
-0.000289025
2.76844e-05
-0.000294314
1.32867e-05
-0.000293345
-2.75442e-06
-0.000285713
-1.98921e-05
-0.000271333
-3.7247e-05
-0.000250512
-5.37548e-05
-0.000224012
-6.81833e-05
-0.000193067
-7.92628e-05
-0.000159351
-8.58525e-05
-0.000124857
-8.71271e-05
-9.17272e-05
-8.27557e-05
-6.20106e-05
-7.30319e-05
-3.74062e-05
-5.89317e-05
-1.90176e-05
-4.2094e-05
-7.16594e-06
-2.47443e-05
-1.29303e-06
-9.59479e-06
8.77869e-08
-6.20234e-06
1.43723e-05
-2.16877e-05
4.16269e-05
-4.40957e-05
6.42411e-05
-7.15082e-05
8.14633e-05
-0.000102321
9.34894e-05
-0.000135182
0.000100883
-0.000168936
0.000104295
-0.000202568
0.000104276
-0.000235155
0.000101189
-0.000265803
9.51976e-05
-0.000293618
8.63035e-05
-0.000317676
7.44161e-05
-0.000337029
5.94427e-05
-0.00035073
4.13853e-05
-0.000357883
2.04393e-05
-0.000357728
-2.90913e-06
-0.000349706
-2.79148e-05
-0.000333613
-5.33398e-05
-0.000309684
-7.76838e-05
-0.000278685
-9.91822e-05
-0.000241963
-0.000115985
-0.000201425
-0.00012639
-0.00015943
-0.000129122
-0.000118583
-0.000123603
-8.14417e-05
-0.000110173
-5.01927e-05
-9.01808e-05
-2.63343e-05
-6.59524e-05
-1.04513e-05
-4.06273e-05
-2.12075e-06
-1.79253e-05
-2.03297e-06
-7.52445e-06
2.18967e-05
-2.6045e-05
6.01475e-05
-5.25121e-05
9.07082e-05
-8.4551e-05
0.000113502
-0.000120281
0.000129219
-0.000158188
0.000138791
-0.000197025
0.000143132
-0.000235717
0.000142968
-0.00027329
0.000138762
-0.000308804
0.000130711
-0.0003413
0.0001188
-0.000369777
0.000102893
-0.00039318
8.2845e-05
-0.00041042
5.86254e-05
-0.000420422
3.04418e-05
-0.000422241
-1.09024e-06
-0.000415045
-3.51104e-05
-0.000398418
-6.99672e-05
-0.000372387
-0.000103715
-0.000337599
-0.00013397
-0.000295415
-0.000158169
-0.000247934
-0.000173871
-0.000197904
-0.000179152
-0.000148493
-0.000173015
-0.000102932
-0.000155733
-6.40838e-05
-0.000129029
-3.4016e-05
-9.60202e-05
-1.36884e-05
-6.09548e-05
-2.82692e-06
-2.87868e-05
-4.85989e-06
-8.67683e-06
3.05736e-05
-2.99068e-05
8.13774e-05
-6.00479e-05
0.000120849
-9.63159e-05
0.00014977
-0.000136577
0.00016948
-0.00017918
0.000181394
-0.000222811
0.000186763
-0.000266375
0.000186532
-0.000308891
0.000181279
-0.000349416
0.000171236
-0.000386974
0.000156358
-0.000420514
0.000136433
-0.000448892
0.000111223
-0.000470872
8.06055e-05
-0.00048517
4.47395e-05
-0.000490509
4.24923e-06
-0.000485784
-3.9836e-05
-0.000470145
-8.56062e-05
-0.000443259
-0.000130601
-0.000405488
-0.000171741
-0.000358075
-0.000205583
-0.00030324
-0.000228706
-0.000244147
-0.000238245
-0.000184663
-0.000232499
-0.000128924
-0.000211472
-8.07553e-05
-0.000177198
-4.3061e-05
-0.000133715
-1.7355e-05
-8.66608e-05
-3.55105e-06
-4.25908e-05
-8.41094e-06
-9.68976e-06
4.02633e-05
-3.33344e-05
0.000105022
-6.67908e-05
0.000154306
-0.000106922
0.000189902
-0.00015138
0.000213938
-0.000198402
0.000228416
-0.000246645
0.000235005
-0.000295028
0.000234915
-0.000342613
0.000228864
-0.000388498
0.000217121
-0.000431735
0.000199594
-0.000471262
0.00017596
-0.000505863
0.000145824
-0.000534148
0.00010889
-0.000554573
6.51645e-05
-0.000565489
1.51651e-05
-0.000565321
-4.00041e-05
-0.000552652
-9.82746e-05
-0.000526576
-0.000156677
-0.000486953
-0.000211364
-0.00043471
-0.000257826
-0.000372065
-0.00029135
-0.000302579
-0.000307731
-0.000230952
-0.000304126
-0.00016251
-0.000279913
-0.000102429
-0.000237279
-5.48454e-05
-0.000181298
-2.21236e-05
-0.000119383
-4.48667e-06
-6.02277e-05
-1.28976e-05
-1.05809e-05
5.08442e-05
-3.63695e-05
0.000130811
-7.28031e-05
0.000190739
-0.000116452
0.000233551
-0.000164791
0.000262277
-0.000215989
0.000279614
-0.000268703
0.000287719
-0.000321911
0.000288123
-0.000374763
0.000281716
-0.000426453
0.000268811
-0.000476108
0.000249249
-0.0005227
0.000222553
-0.00056497
0.000188094
-0.000601377
0.000145297
-0.000630084
9.38719e-05
-0.000648998
3.40792e-05
-0.000655942
-3.30598e-05
-0.000648742
-0.000105475
-0.000625689
-0.00017973
-0.000585876
-0.000251178
-0.000529647
-0.000314055
-0.000458993
-0.000362004
-0.000377767
-0.000388958
-0.000291573
-0.00039032
-0.000207224
-0.000364263
-0.00013173
-0.000312773
-7.10274e-05
-0.000242001
-2.88053e-05
-0.000161605
-5.85993e-06
-8.31731e-05
-1.87575e-05
-1.1356e-05
6.22002e-05
-3.90271e-05
0.000158482
-7.81055e-05
0.000229818
-0.000124922
0.000280367
-0.000176821
0.000314176
-0.000231931
0.000334723
-0.000288951
0.00034474
-0.000346961
0.000346133
-0.000405245
0.000340001
-0.000463146
0.000326712
-0.000519927
0.00030603
-0.000574644
0.00027727
-0.000626035
0.000239485
-0.00067243
0.000191691
-0.000711691
0.000133133
-0.00074122
6.36081e-05
-0.000758155
-1.61245e-05
-0.000759373
-0.000104257
-0.000742148
-0.000196955
-0.000704507
-0.000288819
-0.000645872
-0.000372689
-0.000567668
-0.000440209
-0.000473774
-0.000482852
-0.000370629
-0.000493464
-0.000266753
-0.00046814
-0.000171539
-0.000407986
-9.34801e-05
-0.00032006
-3.83239e-05
-0.000216761
-7.92331e-06
-0.000113574
-2.66808e-05
-1.20115e-05
7.42118e-05
-4.12988e-05
0.000187769
-8.26774e-05
0.000271196
-0.000132288
0.000329978
-0.000187377
0.000369265
-0.000246068
0.000393414
-0.000307135
0.000405807
-0.000369795
0.000408793
-0.000433516
0.000403721
-0.000497841
0.000391038
-0.000562226
0.000370415
-0.000625871
0.000340915
-0.000687568
0.000301182
-0.000745557
0.000249681
-0.000797426
0.000185003
-0.000840075
0.000106257
-0.000869851
1.3651e-05
-0.000882677
-9.14308e-05
-0.000874575
-0.000205056
-0.000842242
-0.000321152
-0.000783797
-0.000431134
-0.000699632
-0.000524374
-0.000593185
-0.000589299
-0.000471397
-0.000615251
-0.000344502
-0.000595034
-0.00022478
-0.000527709
-0.000124218
-0.000420621
-5.17011e-05
-0.000289278
-1.09565e-05
-0.000154318
-3.76373e-05
-1.25387e-05
8.67504e-05
-4.31612e-05
0.000218391
-8.64699e-05
0.000314505
-0.000138453
0.000381962
-0.000196285
0.000427097
-0.000258106
0.000455235
-0.000322789
0.000470489
-0.000389717
0.000475721
-0.00045858
0.000472583
-0.000529166
0.000461624
-0.000601173
0.000442422
-0.000674005
0.000413746
-0.000746568
0.000373745
-0.000817084
0.000320197
-0.000882935
0.000250853
-0.000940591
0.000163913
-0.000985586
5.86467e-05
-0.00101302
-6.40017e-05
-0.00101752
-0.000200551
-0.000994301
-0.000344372
-0.000939824
-0.000485611
-0.0008529
-0.000611298
-0.000735814
-0.000706385
-0.000595308
-0.000755757
-0.000442931
-0.000747411
-0.00029409
-0.000676549
-0.000165293
-0.000549419
-7.00463e-05
-0.000384525
-1.5273e-05
-0.000209092
-5.29103e-05
-1.29282e-05
9.96787e-05
-4.45898e-05
0.000250053
-8.94278e-05
0.000359343
-0.000143301
0.000435835
-0.000203323
0.000487119
-0.000267657
0.000519569
-0.000335284
0.000538116
-0.000405771
0.000546208
-0.000479043
0.000545856
-0.000555163
0.000537744
-0.000634105
0.000521365
-0.000715523
0.000495163
-0.000798503
0.000456725
-0.000881335
0.000403028
-0.000961307
0.000330826
-0.00103459
0.000237196
-0.00109622
0.000120272
-0.00114038
-1.98357e-05
-0.00116064
-0.000180297
-0.00115066
-0.000354344
-0.00110505
-0.000531221
-0.00102049
-0.000695861
-0.000897213
-0.000829663
-0.000740631
-0.000912339
-0.000562593
-0.00092545
-0.000381295
-0.000857847
-0.000218602
-0.000712111
-9.45337e-05
-0.000508593
-2.12311e-05
-0.000282394
-7.41414e-05
-1.31775e-05
0.000112856
-4.55788e-05
0.000282454
-9.15239e-05
0.000405288
-0.000146744
0.000491055
-0.000208282
0.000548658
-0.000274315
0.000585601
-0.000343922
0.000607723
-0.000416845
0.000619131
-0.000493241
0.000622252
-0.000573446
0.000617949
-0.00065772
0.000605638
-0.000745991
0.000583434
-0.000837583
0.000548318
-0.000930952
0.000496398
-0.00102346
0.00042333
-0.0011112
0.000324944
-0.00118903
0.000198097
-0.00125056
4.16976e-05
-0.00128868
-0.000142179
-0.00129578
-0.000347241
-0.00126462
-0.000562381
-0.00118938
-0.000771106
-0.00106731
-0.000951729
-0.000901016
-0.00107864
-0.00070088
-0.00112559
-0.000486596
-0.00107213
-0.000285554
-0.000913154
-0.000126336
-0.000667811
-2.92434e-05
-0.000379487
-0.000103385
-1.32986e-05
0.000126155
-4.61656e-05
0.000315321
-9.28021e-05
0.000451924
-0.000148784
0.000547037
-0.000211051
0.000610925
-0.000277761
0.000652311
-0.000348063
0.000678026
-0.000421843
0.000692911
-0.000499461
0.00069987
-0.000581488
0.000699977
-0.000668451
0.000692601
-0.000760552
0.000675535
-0.000857391
0.000645157
-0.000957695
0.000596702
-0.00105908
0.000524719
-0.00115791
0.000423769
-0.0012492
0.000289385
-0.00132666
0.000119164
-0.00138285
-8.59871e-05
-0.00140968
-0.000320411
-0.00139836
-0.000573701
-0.00134053
-0.000828941
-0.00122977
-0.00106249
-0.00106429
-0.00124412
-0.000850631
-0.00133925
-0.000607451
-0.00131531
-0.000366475
-0.00115413
-0.000166467
-0.00086782
-3.97715e-05
-0.000506182
-0.000143156
-1.3329e-05
0.000139484
-4.64622e-05
0.000348455
-9.34318e-05
0.000498894
-0.000149589
0.000603194
-0.000211709
0.000673046
-0.000277885
0.000718487
-0.00034729
0.00074743
-0.000419903
0.000765524
-0.000496229
0.000776196
-0.000577024
0.000780771
-0.000663022
0.0007786
-0.000754676
0.000767189
-0.000851884
0.000742364
-0.000953742
0.00069856
-0.00105834
0.000629313
-0.00116259
0.000528024
-0.0012622
0.000388996
-0.00135167
0.000208626
-0.00142366
-1.39901e-05
-0.00147082
-0.000273254
-0.0014833
-0.00056122
-0.00145073
-0.000861516
-0.00136287
-0.00115035
-0.0012123
-0.00139468
-0.000999141
-0.00155241
-0.000737339
-0.00157711
-0.000459775
-0.00143169
-0.00021549
-0.0011121
-5.32956e-05
-0.000668376
-0.000196452
-1.33451e-05
0.000152829
-4.6693e-05
0.000381803
-9.37701e-05
0.000545971
-0.000149577
0.000659001
-0.000210641
0.00073411
-0.000274928
0.000782773
-0.000341584
0.000814087
-0.000410631
0.000834571
-0.000482652
0.000848217
-0.00055851
0.000856629
-0.000639088
0.000859178
-0.000725044
0.000853145
-0.000816583
0.000833904
-0.000913258
0.000795235
-0.0010138
0.000729858
-0.00111603
0.000630252
-0.00121675
0.000489715
-0.00131164
0.000303521
-0.00139539
6.97585e-05
-0.00146042
-0.000208232
-0.00149799
-0.00052364
-0.00149653
-0.00086298
-0.00144254
-0.00120434
-0.00132263
-0.00151459
-0.0011284
-0.00174664
-0.000864943
-0.00184057
-0.000560995
-0.00173564
-0.000273098
-0.0014
-7.02593e-05
-0.000871214
-0.000266711
-1.34794e-05
0.000166308
-4.72421e-05
0.000415565
-9.44353e-05
0.000593164
-0.000149511
0.000714076
-0.000208638
0.000793237
-0.000269602
0.000843737
-0.00033149
0.000875975
-0.000394322
0.000897403
-0.000458705
0.0009126
-0.000525549
0.000923473
-0.000595825
0.000929453
-0.000670361
0.000927681
-0.000749679
0.000913222
-0.000833858
0.000879414
-0.000922442
0.000818441
-0.00101437
0.00072218
-0.00110791
0.000583256
-0.00120054
0.000396147
-0.0012888
0.000158024
-0.00136694
-0.00013009
-0.00142766
-0.000462921
-0.00145959
-0.000831049
-0.00144739
-0.00121654
-0.00137252
-0.00158946
-0.00121737
-0.00190179
-0.000974593
-0.00208334
-0.000662197
-0.00204804
-0.000337633
-0.00172457
-9.10117e-05
-0.00111784
-0.000357723
-1.39471e-05
0.000180255
-4.87166e-05
0.000450335
-9.63926e-05
0.00064084
-0.000150586
0.00076827
-0.00020699
0.000849641
-0.000263188
0.000899935
-0.000318212
0.000930999
-0.000372082
0.000951273
-0.000425415
0.000965933
-0.000479136
0.000977194
-0.000534273
0.00098459
-0.000591816
0.000985223
-0.00065262
0.000974026
-0.000717355
0.00094415
-0.000786475
0.000887561
-0.000860192
0.000795897
-0.000938418
0.000661482
-0.00102061
0.000478338
-0.00110552
0.000242936
-0.00118983
-4.57804e-05
-0.00126848
-0.00038427
-0.00133168
-0.000767856
-0.00136413
-0.00118409
-0.00134419
-0.0016094
-0.00124609
-0.00199989
-0.00104843
-0.002281
-0.000752143
-0.00234433
-0.000405698
-0.00207101
-0.000115785
-0.00140775
-0.000473508
-1.50908e-05
0.000195346
-5.20398e-05
0.000487284
-0.000101062
0.000689863
-0.000154524
0.000821731
-0.000207545
0.000902662
-0.000257553
0.000949943
-0.000303613
0.000977059
-0.000345815
0.000993475
-0.000384829
0.00100495
-0.000421618
0.00101398
-0.000457284
0.00102026
-0.000492997
0.00102094
-0.000529983
0.00101101
-0.000569545
0.000983712
-0.000613093
0.000931109
-0.000662145
0.000844949
-0.000718255
0.000717592
-0.000782834
0.000542917
-0.000856753
0.000316855
-0.000939784
3.72503e-05
-0.00102873
-0.000295321
-0.00111694
-0.000679644
-0.00119108
-0.00110995
-0.00122919
-0.00157129
-0.0012003
-0.00202879
-0.00106991
-0.00241138
-0.000817777
-0.00259646
-0.000472097
-0.00241669
-0.000144732
-0.00173511
-0.00061824
-1.74641e-05
0.00021281
-5.86001e-05
0.00052842
-0.000110461
0.000741724
-0.000163652
0.000874923
-0.000212704
0.000951713
-0.000255071
0.00099231
-0.000290056
0.00101204
-0.000317987
0.00102141
-0.000339703
0.00102666
-0.000356286
0.00103057
-0.000368974
0.00103294
-0.000379169
0.00103113
-0.000388503
0.00102035
-0.000398931
0.000994139
-0.000412799
0.000944977
-0.000432863
0.000865012
-0.000462169
0.000746898
-0.000503857
0.000584605
-0.000560747
0.000373745
-0.000634893
0.000111397
-0.000725842
-0.000204372
-0.000830088
-0.000575398
-0.000937854
-0.00100218
-0.00102988
-0.00147927
-0.00107418
-0.00198448
-0.00102699
-0.00245857
-0.000846328
-0.00277713
-0.000530159
-0.00273286
-0.000177968
-0.0020873
-0.000796207
-2.19955e-05
0.000234806
-7.04967e-05
0.000576921
-0.000127383
0.00079861
-0.000180938
0.000928477
-0.000225289
0.000996065
-0.000258325
0.00102535
-0.000279961
0.00103368
-0.000291039
0.00103248
-0.000292758
0.00102838
-0.000286453
0.00102426
-0.000273587
0.00102008
-0.000255849
0.00101339
-0.000235299
0.000999797
-0.000214509
0.000973349
-0.000196659
0.000927127
-0.000185612
0.000853965
-0.000185603
0.000746889
-0.000201155
0.000600157
-0.000236625
0.000409215
-0.000295696
0.000170467
-0.000380509
-0.000119559
-0.000490689
-0.000465219
-0.000620679
-0.000872191
-0.000756455
-0.00134349
-0.000869685
-0.00187125
-0.000913209
-0.00241505
-0.000826825
-0.00286351
-0.000572144
-0.00298754
-0.000215401
-0.00244405
-0.00101161
-3.03127e-05
0.000265118
-9.0935e-05
0.000637543
-0.000155589
0.000863264
-0.000209849
0.000982737
-0.000248074
0.00103429
-0.000269343
0.00104661
-0.000274769
0.00103911
-0.000266104
0.00102382
-0.000245154
0.00100743
-0.00021366
0.000992769
-0.000173403
0.000979821
-0.00012639
0.00096638
-7.50777e-05
0.000948485
-2.25918e-05
0.000920863
2.72127e-05
0.000877323
6.98892e-05
0.000811289
0.000100131
0.000716648
0.000112436
0.000587852
0.000101359
0.000420292
6.19271e-05
0.000209899
-9.91982e-06
-4.77118e-05
-0.000115651
-0.000359488
-0.000255159
-0.000732683
-0.00042095
-0.0011777
-0.000592288
-0.00169991
-0.00072565
-0.00228169
-0.00074973
-0.00283943
-0.00058897
-0.0031483
-0.000256001
-0.00277702
-0.00126761
-4.53663e-05
0.000310485
-0.000124781
0.000716958
-0.000199774
0.000938258
-0.000253609
0.00103657
-0.00028237
0.00106305
-0.000287599
0.00105184
-0.000272444
0.00102395
-0.00024005
0.000991426
-0.000193111
0.000960491
-0.000133917
0.000933575
-6.4612e-05
0.000910516
1.25028e-05
0.000889265
9.46794e-05
0.000866308
0.000178529
0.000837013
0.000259841
0.000796011
0.000333535
0.000737595
0.000393962
0.000656221
0.000435039
0.000546776
0.000450655
0.000404676
0.000435045
0.000225508
0.000382569
4.76467e-06
0.000289108
-0.000266027
0.000151485
-0.00059506
-2.9813e-05
-0.000996405
-0.000244733
-0.00148499
-0.000460523
-0.00206589
-0.000604434
-0.00269552
-0.000568513
-0.00318422
-0.000295978
-0.00304955
-0.00156359
-7.25532e-05
0.000383038
-0.000179011
0.000823416
-0.000264423
0.00102367
-0.000312426
0.00108458
-0.000323851
0.00107448
-0.000304683
0.00103268
-0.00026118
0.000980448
-0.000198431
0.000928677
-0.000120262
0.000882322
-2.95875e-05
0.000842901
7.11034e-05
0.000809825
0.000179367
0.000781002
0.00029241
0.000753265
0.000406807
0.000722616
0.000518342
0.000684476
0.000621966
0.00063397
0.00071192
0.000566266
0.000781948
0.000476748
0.000825564
0.00036106
0.000836242
0.00021483
0.000807834
3.31725e-05
0.000733375
-0.000191567
0.00060673
-0.000468416
0.000422054
-0.000811729
0.000178619
-0.00124156
-0.000106591
-0.00178069
-0.000374644
-0.00242747
-0.000492178
-0.00306669
-0.00032587
-0.00321586
-0.00188946
-0.000121499
0.000504537
-0.000261605
0.000963522
-0.000348282
0.00111035
-0.000374189
0.00111048
-0.000350422
0.00105071
-0.000290186
0.00097244
-0.000204048
0.000894311
-9.94549e-05
0.000824084
1.86206e-05
0.000764247
0.000146774
0.000714748
0.000282494
0.000674104
0.000423512
0.000639983
0.000567365
0.000609412
0.000711059
0.000578922
0.000850847
0.000544688
0.000982137
0.000502681
0.00109954
0.000448863
0.001197
0.000379286
0.00126796
0.000290105
0.00130541
0.000177374
0.00130184
3.67458e-05
0.00124908
-0.000138805
0.0011378
-0.000357135
0.000957181
-0.000631112
0.000696639
-0.000981014
0.000355886
-0.00143993
-2.44123e-05
-0.00204717
-0.000329479
-0.00276162
-0.000331829
-0.00321351
-0.00222129
-0.000208156
0.000712693
-0.000371415
0.00112678
-0.000422299
0.00116123
-0.000384755
0.00107294
-0.000288708
0.000954661
-0.00015731
0.000841042
-5.60143e-06
0.000742603
0.000157361
0.000661122
0.000326361
0.000595246
0.000498504
0.000542605
0.000672043
0.000500566
0.00084564
0.000466386
0.00101782
0.000437229
0.0011866
0.00041014
0.00134923
0.000382063
0.00150203
0.000349878
0.00164042
0.00031048
0.00175889
0.000260813
0.00185113
0.000197861
0.0019099
0.000118609
0.00192644
2.02015e-05
0.00189172
-0.000104085
0.00179374
-0.000259151
0.00161801
-0.000455382
0.00134685
-0.000709862
0.000962923
-0.001056
0.000470257
-0.00155451
-2.56903e-05
-0.00226568
-0.000271989
-0.00296721
-0.00249328
-0.000343837
0.00105653
-0.000436274
0.00121922
-0.000346998
0.00107195
-0.00016137
0.00088731
6.5585e-05
0.000727706
0.00030549
0.000601137
0.000544237
0.000503855
0.000775637
0.000429722
0.00099765
0.000373233
0.00121021
0.000330047
0.001414
0.00029677
0.00160977
0.000270617
0.00179784
0.000249161
0.00197781
0.000230168
0.00214836
0.000211516
0.00230709
0.000191149
0.00245048
0.000167087
0.00257388
0.000137413
0.00267156
0.000100185
0.00273669
5.34738e-05
0.00276015
-3.25506e-06
0.00273241
-7.63495e-05
0.00263975
-0.000166489
0.0024657
-0.000281326
0.00218822
-0.000432384
0.00177852
-0.000646303
0.0012063
-0.000982282
0.00051566
-0.00157504
-2.39419e-05
-0.00242761
-0.00251722
-0.0003038
0.00136033
-5.24989e-05
0.000967916
0.000375063
0.000644392
0.000795019
0.000467354
0.00117682
0.000345904
0.00151651
0.000261452
0.00181674
0.000203625
0.00208276
0.000163696
0.00232045
0.000135549
0.00253516
0.000115333
0.00273138
0.000100553
0.00291254
8.94551e-05
0.003081
8.06997e-05
0.00323798
7.31918e-05
0.00338351
6.59828e-05
0.00351644
5.82172e-05
0.00363442
4.91149e-05
0.00373386
3.79649e-05
0.00380988
2.41747e-05
0.003856
7.3475e-06
0.00386734
-1.45925e-05
0.00383199
-4.09989e-05
0.00373853
-7.30278e-05
0.00357129
-0.000114091
0.00330727
-0.000168366
0.00291084
-0.000249868
0.00232299
-0.000394435
0.00148776
-0.000739806
0.000505509
-0.00144536
-0.00201171
0.00136033
0.00232825
0.00297264
0.00343999
0.0037859
0.00404735
0.00425097
0.00441467
0.00455022
0.00466555
0.0047661
0.00485556
0.00493626
0.00500945
0.00507543
0.00513365
0.00518276
0.00522073
0.0052449
0.00525225
0.00523766
0.00519666
0.00512363
0.00500954
0.00484118
0.00459131
0.00419687
0.00345707
0.00201171
)
;

boundaryField
{
    movingWall
    {
        type            calculated;
        value           uniform 0;
    }
    fixedWalls
    {
        type            calculated;
        value           uniform 0;
    }
    frontAndBack
    {
        type            empty;
        value           nonuniform 0();
    }
}


// ************************************************************************* //
