/*--------------------------------*- C++ -*----------------------------------*\
  =========                 |
  \\      /  F ield         | OpenFOAM: The Open Source CFD Toolbox
   \\    /   O peration     | Website:  https://openfoam.org
    \\  /    A nd           | Version:  7
     \\/     M anipulation  |
\*---------------------------------------------------------------------------*/
FoamFile
{
    version     2.0;
    format      ascii;
    class       volVectorField;
    location    "3";
    object      U;
}
// * * * * * * * * * * * * * * * * * * * * * * * * * * * * * * * * * * * * * //

dimensions      [0 1 -1 0 0 0 0];

internalField   nonuniform List<vector> 
900
(
(5.75303e-05 -5.68638e-05 0)
(1.4861e-05 1.71352e-05 0)
(-0.000295397 0.000100164 0)
(-0.000793626 0.000156745 0)
(-0.00141628 0.000187809 0)
(-0.00210494 0.000200153 0)
(-0.00281438 0.000200598 0)
(-0.00351364 0.000194044 0)
(-0.0041822 0.000183314 0)
(-0.00480568 0.000169698 0)
(-0.00537271 0.000153542 0)
(-0.00587291 0.000134692 0)
(-0.00629586 0.000112797 0)
(-0.00663071 8.74999e-05 0)
(-0.00686623 5.85545e-05 0)
(-0.00699126 2.59105e-05 0)
(-0.00699531 -1.02144e-05 0)
(-0.00686945 -4.9317e-05 0)
(-0.00660738 -9.04556e-05 0)
(-0.00620672 -0.000132226 0)
(-0.00567059 -0.000172684 0)
(-0.00500923 -0.000209265 0)
(-0.00424193 -0.000238727 0)
(-0.00339883 -0.00025709 0)
(-0.00252269 -0.000259574 0)
(-0.00167004 -0.000240646 0)
(-0.000910527 -0.000194783 0)
(-0.0003204 -0.000118793 0)
(2.9113e-05 -1.75925e-05 0)
(6.77517e-05 6.62891e-05 0)
(-1.55561e-05 -1.60714e-05 0)
(-0.000380149 0.000378514 0)
(-0.00129752 0.000771443 0)
(-0.00259276 0.00105725 0)
(-0.0041473 0.00122977 0)
(-0.00584919 0.00130861 0)
(-0.00760194 0.00131872 0)
(-0.00933252 0.0012812 0)
(-0.0109878 0.00121048 0)
(-0.012528 0.00111487 0)
(-0.0139213 0.000998291 0)
(-0.0151399 0.000861901 0)
(-0.0161573 0.000705551 0)
(-0.0169479 0.000528776 0)
(-0.0174861 0.000331514 0)
(-0.0177479 0.000114624 0)
(-0.0177117 -0.000119726 0)
(-0.0173601 -0.000367493 0)
(-0.0166825 -0.000622532 0)
(-0.0156777 -0.000876143 0)
(-0.0143573 -0.0011167 0)
(-0.0127493 -0.00132938 0)
(-0.0109014 -0.00149608 0)
(-0.00888519 -0.00159568 0)
(-0.0067976 -0.00160492 0)
(-0.00476167 -0.00150044 0)
(-0.00292127 -0.00126392 0)
(-0.00142293 -0.000892019 0)
(-0.000397767 -0.000415223 0)
(-9.3379e-06 3.07621e-05 0)
(-0.000102438 0.00029657 0)
(-0.000800763 0.00130254 0)
(-0.00228024 0.00221771 0)
(-0.00424809 0.00289188 0)
(-0.00654492 0.0033103 0)
(-0.00902856 0.00350758 0)
(-0.0115724 0.00353315 0)
(-0.0140771 0.00343246 0)
(-0.0164675 0.00323924 0)
(-0.0186858 0.00297488 0)
(-0.020685 0.00265094 0)
(-0.0224243 0.0022725 0)
(-0.0238661 0.00184122 0)
(-0.0249744 0.00135774 0)
(-0.0257146 0.000823439 0)
(-0.0260548 0.00024182 0)
(-0.0259668 -0.000380417 0)
(-0.0254289 -0.00103216 0)
(-0.0244289 -0.00169712 0)
(-0.0229681 -0.00235276 0)
(-0.0210649 -0.00296947 0)
(-0.0187604 -0.00351007 0)
(-0.0161225 -0.00392999 0)
(-0.0132498 -0.00417859 0)
(-0.0102741 -0.00420239 0)
(-0.00735869 -0.00395169 0)
(-0.00469096 -0.00339268 0)
(-0.00245687 -0.00252721 0)
(-0.000832304 -0.00142295 0)
(-9.71973e-05 -0.000293397 0)
(-0.000169348 0.000822124 0)
(-0.00115056 0.00266037 0)
(-0.00311555 0.00421921 0)
(-0.00564786 0.00535073 0)
(-0.00854728 0.00605065 0)
(-0.0116484 0.00637683 0)
(-0.0148047 0.00640746 0)
(-0.0179005 0.00621534 0)
(-0.0208472 0.00585614 0)
(-0.0235752 0.00536656 0)
(-0.0260278 0.0047677 0)
(-0.0281553 0.00407001 0)
(-0.0299125 0.00327811 0)
(-0.0312563 0.00239471 0)
(-0.0321458 0.0014236 0)
(-0.0325434 0.000372038 0)
(-0.032416 -0.00074726 0)
(-0.0317385 -0.00191435 0)
(-0.0304968 -0.00310018 0)
(-0.028693 -0.00426499 0)
(-0.0263497 -0.00535695 0)
(-0.0235165 -0.00631154 0)
(-0.020275 -0.00705223 0)
(-0.0167428 -0.00749339 0)
(-0.0130758 -0.00754674 0)
(-0.0094663 -0.00713275 0)
(-0.00613336 -0.00619951 0)
(-0.00329492 -0.00474978 0)
(-0.00117072 -0.00287602 0)
(-0.000158129 -0.000828325 0)
(-0.000216462 0.00151659 0)
(-0.00142279 0.00438058 0)
(-0.00379027 0.00668567 0)
(-0.00679095 0.00832362 0)
(-0.0101848 0.00932273 0)
(-0.0137849 0.00977566 0)
(-0.0174294 0.00979524 0)
(-0.0209915 0.00948463 0)
(-0.0243746 0.00892319 0)
(-0.0275023 0.00816421 0)
(-0.0303119 0.00723921 0)
(-0.0327484 0.00616472 0)
(-0.0347611 0.00494882 0)
(-0.036302 0.0035967 0)
(-0.0373249 0.0021149 0)
(-0.037787 0.000514844 0)
(-0.0376499 -0.00118423 0)
(-0.0368836 -0.0029524 0)
(-0.0354702 -0.00474627 0)
(-0.0334092 -0.00650642 0)
(-0.0307241 -0.00815551 0)
(-0.0274689 -0.00959747 0)
(-0.0237346 -0.0107191 0)
(-0.0196542 -0.0113948 0)
(-0.0154045 -0.0114971 0)
(-0.0112044 -0.0109126 0)
(-0.00730391 -0.00956714 0)
(-0.00395426 -0.00745741 0)
(-0.00141854 -0.00468683 0)
(-0.000194962 -0.00151776 0)
(-0.000249288 0.00233964 0)
(-0.00163335 0.00639701 0)
(-0.00433311 0.00954314 0)
(-0.00772646 0.0117324 0)
(-0.0115365 0.0130444 0)
(-0.0155553 0.0136193 0)
(-0.0196076 0.0136114 0)
(-0.0235585 0.0131584 0)
(-0.0273062 0.0123652 0)
(-0.0307711 0.0113028 0)
(-0.0338871 0.0100133 0)
(-0.036596 0.00851946 0)
(-0.0388436 0.00683265 0)
(-0.0405775 0.00496014 0)
(-0.0417466 0.0029108 0)
(-0.0423018 0.0006997 0)
(-0.0421978 -0.00164762 0)
(-0.041397 -0.00409108 0)
(-0.0398737 -0.00657197 0)
(-0.0376213 -0.00900924 0)
(-0.0346594 -0.0112966 0)
(-0.0310426 -0.0133019 0)
(-0.026869 -0.0148691 0)
(-0.022286 -0.0158266 0)
(-0.017493 -0.0160009 0)
(-0.0127392 -0.0152391 0)
(-0.00831096 -0.0134396 0)
(-0.00449792 -0.0105875 0)
(-0.00160632 -0.00679027 0)
(-0.000216367 -0.00231783 0)
(-0.000273754 0.0032619 0)
(-0.0018042 0.00865612 0)
(-0.00478776 0.0127301 0)
(-0.00852324 0.0155137 0)
(-0.0127 0.0171529 0)
(-0.0170901 0.0178461 0)
(-0.0215056 0.0177974 0)
(-0.025805 0.017183 0)
(-0.0298835 0.0161362 0)
(-0.0336598 0.014746 0)
(-0.0370667 0.0130657 0)
(-0.0400445 0.0111234 0)
(-0.0425362 0.00893314 0)
(-0.0444855 0.00650303 0)
(-0.0458356 0.00384288 0)
(-0.0465298 0.00097004 0)
(-0.0465133 -0.00208494 0)
(-0.0457368 -0.00527264 0)
(-0.0441626 -0.00851877 0)
(-0.0417721 -0.0117188 0)
(-0.038576 -0.014734 0)
(-0.0346254 -0.0173897 0)
(-0.0300229 -0.0194795 0)
(-0.0249314 -0.020776 0)
(-0.0195775 -0.0210507 0)
(-0.0142486 -0.0201033 0)
(-0.00927724 -0.0177992 0)
(-0.00499972 -0.0141102 0)
(-0.00176753 -0.0091489 0)
(-0.000230209 -0.00320269 0)
(-0.000294576 0.00426706 0)
(-0.0019558 0.0111259 0)
(-0.00519813 0.0162094 0)
(-0.0092505 0.0196308 0)
(-0.013771 0.0216134 0)
(-0.0185124 0.0224247 0)
(-0.0232746 0.0223258 0)
(-0.0279106 0.0215368 0)
(-0.0323139 0.0202213 0)
(-0.0364032 0.0184879 0)
(-0.0401113 0.0164005 0)
(-0.0433783 0.0139922 0)
(-0.0461454 0.0112776 0)
(-0.0483525 0.00826411 0)
(-0.0499364 0.00496013 0)
(-0.0508307 0.0013827 0)
(-0.0509682 -0.00243509 0)
(-0.0502835 -0.00643641 0)
(-0.0487207 -0.010532 0)
(-0.0462428 -0.0145926 0)
(-0.0428446 -0.0184422 0)
(-0.0385676 -0.0218565 0)
(-0.0335162 -0.0245673 0)
(-0.0278694 -0.0262782 0)
(-0.0218876 -0.0266921 0)
(-0.0159081 -0.0255503 0)
(-0.0103234 -0.0226797 0)
(-0.00552991 -0.0180405 0)
(-0.0019308 -0.0117605 0)
(-0.000241811 -0.00416453 0)
(-0.000315011 0.00534952 0)
(-0.0021044 0.0137945 0)
(-0.00560132 0.0199679 0)
(-0.00996765 0.0240718 0)
(-0.0148311 0.0264169 0)
(-0.0199255 0.0273493 0)
(-0.0250392 0.0271949 0)
(-0.0300205 0.0262227 0)
(-0.0347622 0.0246299 0)
(-0.0391842 0.0225453 0)
(-0.0432215 0.0200435 0)
(-0.0468147 0.017161 0)
(-0.0499043 0.0139117 0)
(-0.0524269 0.0102992 0)
(-0.0543123 0.00632715 0)
(-0.0554832 0.00200854 0)
(-0.0558563 -0.00262495 0)
(-0.0553454 -0.00751268 0)
(-0.0538693 -0.0125524 0)
(-0.0513639 -0.0175893 0)
(-0.0477986 -0.0224059 0)
(-0.0431966 -0.0267181 0)
(-0.0376576 -0.0301812 0)
(-0.031377 -0.0324109 0)
(-0.0246555 -0.0330216 0)
(-0.017895 -0.0316803 0)
(-0.0115693 -0.0281685 0)
(-0.00615447 -0.0224401 0)
(-0.0021196 -0.0146562 0)
(-0.000254184 -0.00520958 0)
(-0.000337169 0.00651145 0)
(-0.00226194 0.0166663 0)
(-0.00602598 0.0240118 0)
(-0.0107213 0.0288449 0)
(-0.0159443 0.0315736 0)
(-0.0214095 0.0326322 0)
(-0.0268942 0.0324198 0)
(-0.0322427 0.0312599 0)
(-0.0373484 0.0293861 0)
(-0.0421344 0.0269491 0)
(-0.046539 0.0240336 0)
(-0.0505057 0.0206786 0)
(-0.0539759 0.0168945 0)
(-0.0568837 0.012678 0)
(-0.0591525 0.00802355 0)
(-0.0606931 0.00293487 0)
(-0.0614035 -0.00256366 0)
(-0.0611713 -0.00841348 0)
(-0.059882 -0.0145035 0)
(-0.0574334 -0.0206545 0)
(-0.0537562 -0.0266034 0)
(-0.0488414 -0.0319953 0)
(-0.042773 -0.0363894 0)
(-0.0357574 -0.0392871 0)
(-0.0281416 -0.0401854 0)
(-0.0204109 -0.0386519 0)
(-0.013149 -0.0344116 0)
(-0.00694413 -0.0274203 0)
(-0.00235628 -0.0179002 0)
(-0.000268983 -0.00635503 0)
(-0.000362401 0.00776047 0)
(-0.00243695 0.0197575 0)
(-0.00649338 0.0283621 0)
(-0.0115463 0.0339735 0)
(-0.017158 0.0371076 0)
(-0.0230228 0.0382984 0)
(-0.0289069 0.0380267 0)
(-0.0346516 0.0366766 0)
(-0.0401528 0.0345223 0)
(-0.0453387 0.0317375 0)
(-0.0501536 0.0284173 0)
(-0.0545462 0.0246014 0)
(-0.0584615 0.0202945 0)
(-0.0618336 0.0154822 0)
(-0.0645812 0.0101447 0)
(-0.0666035 0.00426913 0)
(-0.0677788 -0.00213536 0)
(-0.0679636 -0.00902128 0)
(-0.0670008 -0.0162764 0)
(-0.0647371 -0.0237018 0)
(-0.0610461 -0.0309874 0)
(-0.0558655 -0.0376954 0)
(-0.0492429 -0.0432657 0)
(-0.041382 -0.0470491 0)
(-0.0326772 -0.0483816 0)
(-0.023718 -0.046692 0)
(-0.0152393 -0.0416273 0)
(-0.00799126 -0.0331541 0)
(-0.00266876 -0.0215958 0)
(-0.000287667 -0.00762928 0)
(-0.000391634 0.009108 0)
(-0.00263583 0.0230936 0)
(-0.0070197 0.0330511 0)
(-0.0124689 0.0394917 0)
(-0.0185071 0.0430527 0)
(-0.0248068 0.04438 0)
(-0.0311227 0.0440468 0)
(-0.0372947 0.042505 0)
(-0.0432233 0.0400733 0)
(-0.0488445 0.0369509 0)
(-0.0541117 0.0332431 0)
(-0.0589827 0.0289896 0)
(-0.0634097 0.0241864 0)
(-0.0673314 0.0188042 0)
(-0.0706654 0.0128023 0)
(-0.0733021 0.0061427 0)
(-0.0751012 -0.00119225 0)
(-0.0758852 -0.00917563 0)
(-0.0754457 -0.0177107 0)
(-0.0735629 -0.0265894 0)
(-0.0700292 -0.0354575 0)
(-0.0646973 -0.0437864 0)
(-0.0575436 -0.0508689 0)
(-0.0487404 -0.0558582 0)
(-0.0387181 -0.0578649 0)
(-0.0281907 -0.0561139 0)
(-0.0180996 -0.0501318 0)
(-0.00943458 -0.0399007 0)
(-0.00310004 -0.0259015 0)
(-0.000312927 -0.0090765 0)
(-0.000425662 0.0105685 0)
(-0.00286413 0.0267071 0)
(-0.00761879 0.0381197 0)
(-0.0135108 0.0454417 0)
(-0.0200193 0.049448 0)
(-0.0267918 0.0509124 0)
(-0.0335721 0.0505121 0)
(-0.0402 0.0487757 0)
(-0.0465831 0.0460714 0)
(-0.0526689 0.042626 0)
(-0.058424 0.0385565 0)
(-0.0638201 0.0339016 0)
(-0.0688224 0.0286469 0)
(-0.0733801 0.0227439 0)
(-0.0774172 0.0161245 0)
(-0.0808217 0.00871577 0)
(-0.0834363 0.000459602 0)
(-0.0850529 -0.00865712 0)
(-0.0854088 -0.0185726 0)
(-0.0841976 -0.0290897 0)
(-0.0811013 -0.0398249 0)
(-0.0758439 -0.0501581 0)
(-0.0682762 -0.0592096 0)
(-0.0584845 -0.0658751 0)
(-0.0469014 -0.0689475 0)
(-0.0343751 -0.0673407 0)
(-0.0221232 -0.0603791 0)
(-0.0114921 -0.0480484 0)
(-0.00372112 -0.0310619 0)
(-0.000350562 -0.0107671 0)
(-0.000465418 0.0121592 0)
(-0.0031279 0.0306373 0)
(-0.0083051 0.0436162 0)
(-0.0146937 0.0518713 0)
(-0.0217199 0.0563361 0)
(-0.0290036 0.0579306 0)
(-0.0362772 0.0574515 0)
(-0.0433824 0.0555135 0)
(-0.0502376 0.0525405 0)
(-0.0568057 0.0487906 0)
(-0.0630716 0.0443939 0)
(-0.0690265 0.0393884 0)
(-0.0746561 0.0337484 0)
(-0.0799291 0.0274032 0)
(-0.0847854 0.0202513 0)
(-0.0891218 0.0121744 0)
(-0.092776 0.00305801 0)
(-0.0955155 -0.00717819 0)
(-0.0970211 -0.0185337 0)
(-0.0968878 -0.0308572 0)
(-0.0946544 -0.043768 0)
(-0.0898595 -0.0565711 0)
(-0.0821491 -0.0681987 0)
(-0.071434 -0.0772214 0)
(-0.0580753 -0.0819871 0)
(-0.043038 -0.0809283 0)
(-0.0278898 -0.0730134 0)
(-0.0144995 -0.0581764 0)
(-0.0046469 -0.0374563 0)
(-0.000411873 -0.012816 0)
(-0.000512267 0.0139012 0)
(-0.00343518 0.0349313 0)
(-0.00909684 0.0495968 0)
(-0.0160434 0.0588338 0)
(-0.0236379 0.0637602 0)
(-0.0314689 0.0654666 0)
(-0.0392575 0.0648864 0)
(-0.0468502 0.0627325 0)
(-0.0541799 0.0594915 0)
(-0.0612297 0.055457 0)
(-0.0680082 0.0507748 0)
(-0.0745332 0.0454842 0)
(-0.080819 0.0395486 0)
(-0.0868648 0.0328742 0)
(-0.0926403 0.0253217 0)
(-0.0980672 0.016718 0)
(-0.102997 0.00687322 0)
(-0.107187 -0.00438674 0)
(-0.110272 -0.0171627 0)
(-0.111741 -0.0314045 0)
(-0.110962 -0.0467906 0)
(-0.107222 -0.0625974 0)
(-0.099861 -0.0775772 0)
(-0.0884831 -0.0899126 0)
(-0.0732476 -0.0973432 0)
(-0.0551617 -0.0975656 0)
(-0.036194 -0.0889185 0)
(-0.0189438 -0.0711338 0)
(-0.00605296 -0.045667 0)
(-0.000516383 -0.0154097 0)
(-0.000568383 0.0158205 0)
(-0.0037978 0.0396467 0)
(-0.0100196 0.0561278 0)
(-0.0175951 0.0663878 0)
(-0.0258111 0.0717637 0)
(-0.0342208 0.073546 0)
(-0.042535 0.0728268 0)
(-0.0506085 0.0704307 0)
(-0.0583936 0.0669151 0)
(-0.0658983 0.0626139 0)
(-0.0731604 0.057692 0)
(-0.0802309 0.0521937 0)
(-0.0871619 0.0460747 0)
(-0.0939947 0.03922 0)
(-0.100745 0.031452 0)
(-0.107381 0.0225356 0)
(-0.113793 0.0121893 0)
(-0.119753 0.0001147 0)
(-0.12487 -0.013943 0)
(-0.128545 -0.0301072 0)
(-0.12995 -0.0482057 0)
(-0.128066 -0.0675744 0)
(-0.121814 -0.0868386 0)
(-0.110327 -0.103756 0)
(-0.0933652 -0.115279 0)
(-0.0718119 -0.118017 0)
(-0.0480036 -0.109231 0)
(-0.0254757 -0.0881126 0)
(-0.0081904 -0.0565613 0)
(-0.000695073 -0.0188425 0)
(-0.000637318 0.0179511 0)
(-0.00423379 0.0448561 0)
(-0.0111111 0.0632884 0)
(-0.0193988 0.0745985 0)
(-0.0282915 0.0803878 0)
(-0.0373035 0.0821848 0)
(-0.0461375 0.0812665 0)
(-0.0546619 0.078584 0)
(-0.0628533 0.0747742 0)
(-0.0707496 0.0702161 0)
(-0.0784224 0.0650985 0)
(-0.0859612 0.0594753 0)
(-0.0934632 0.0533008 0)
(-0.101023 0.046445 0)
(-0.108718 0.0386962 0)
(-0.116585 0.0297565 0)
(-0.124582 0.0192418 0)
(-0.132531 0.00669816 0)
(-0.140058 -0.00834606 0)
(-0.1465 -0.0262722 0)
(-0.150848 -0.0471819 0)
(-0.151749 -0.0706104 0)
(-0.147616 -0.0951723 0)
(-0.136944 -0.118227 0)
(-0.118846 -0.135782 0)
(-0.0937941 -0.142949 0)
(-0.0642858 -0.13525 0)
(-0.0348734 -0.110672 0)
(-0.011398 -0.0713718 0)
(-0.000996156 -0.0235602 0)
(-0.000724953 0.0203392 0)
(-0.00477109 0.0506542 0)
(-0.0124271 0.0711767 0)
(-0.0215261 0.0835388 0)
(-0.0311512 0.0896697 0)
(-0.0407756 0.0913845 0)
(-0.0500995 0.0901755 0)
(-0.0590116 0.0871372 0)
(-0.0675191 0.0829932 0)
(-0.075694 0.0781721 0)
(-0.0836445 0.0728907 0)
(-0.0915007 0.0672187 0)
(-0.0994082 0.0611171 0)
(-0.107521 0.0544518 0)
(-0.115989 0.0469874 0)
(-0.124935 0.0383701 0)
(-0.134413 0.0281095 0)
(-0.144339 0.0155724 0)
(-0.154396 1.54697e-05 0)
(-0.163919 -0.0193022 0)
(-0.171778 -0.042899 0)
(-0.176318 -0.0706933 0)
(-0.175434 -0.101481 0)
(-0.166873 -0.132347 0)
(-0.14886 -0.158306 0)
(-0.121054 -0.17259 0)
(-0.0856379 -0.168151 0)
(-0.0479255 -0.140634 0)
(-0.0161157 -0.0917462 0)
(-0.00149937 -0.0302139 0)
(-0.000841244 0.0230505 0)
(-0.00545342 0.0571686 0)
(-0.014051 0.0799152 0)
(-0.024079 0.0932899 0)
(-0.0344873 0.0996374 0)
(-0.0447105 0.101123 0)
(-0.0544564 0.0994897 0)
(-0.063645 0.0959916 0)
(-0.0723212 0.0914442 0)
(-0.0805944 0.0863273 0)
(-0.0886088 0.0808881 0)
(-0.0965334 0.0752178 0)
(-0.104559 0.0692939 0)
(-0.112894 0.0629913 0)
(-0.121764 0.056067 0)
(-0.131381 0.0481266 0)
(-0.141912 0.0385811 0)
(-0.153396 0.0266096 0)
(-0.165636 0.0111606 0)
(-0.178041 -0.00895826 0)
(-0.189469 -0.0348271 0)
(-0.198105 -0.0669319 0)
(-0.201445 -0.104515 0)
(-0.196525 -0.144644 0)
(-0.180539 -0.181488 0)
(-0.151893 -0.206231 0)
(-0.111692 -0.208431 0)
(-0.0651784 -0.179745 0)
(-0.0228979 -0.119716 0)
(-0.00234806 -0.039734 0)
(-0.00100365 0.026182 0)
(-0.0063504 0.0645752 0)
(-0.0161065 0.0896589 0)
(-0.0271993 0.103937 0)
(-0.0384239 0.110299 0)
(-0.0491884 0.111339 0)
(-0.0592274 0.109093 0)
(-0.0685085 0.104987 0)
(-0.0771237 0.099927 0)
(-0.085222 0.0944424 0)
(-0.0929809 0.0888091 0)
(-0.1006 0.0831427 0)
(-0.108304 0.0774452 0)
(-0.116344 0.071614 0)
(-0.124999 0.065417 0)
(-0.134562 0.0584416 0)
(-0.145302 0.0500218 0)
(-0.157399 0.0391632 0)
(-0.170821 0.0245 0)
(-0.185154 0.00434763 0)
(-0.19939 -0.0230442 0)
(-0.211807 -0.0588801 0)
(-0.219807 -0.103136 0)
(-0.219959 -0.153243 0)
(-0.208496 -0.202959 0)
(-0.18226 -0.241677 0)
(-0.140356 -0.255104 0)
(-0.0864595 -0.228974 0)
(-0.032383 -0.157487 0)
(-0.00380361 -0.0534279 0)
(-0.00124431 0.029882 0)
(-0.00757566 0.0731208 0)
(-0.0187784 0.100601 0)
(-0.0310801 0.115561 0)
(-0.0431076 0.121618 0)
(-0.0542733 0.121904 0)
(-0.0643736 0.118786 0)
(-0.0734484 0.113867 0)
(-0.08165 0.108138 0)
(-0.0891702 0.102164 0)
(-0.0962153 0.0962431 0)
(-0.103004 0.0905131 0)
(-0.109777 0.0850031 0)
(-0.116801 0.0796418 0)
(-0.124381 0.0742249 0)
(-0.13285 0.0683463 0)
(-0.142553 0.061298 0)
(-0.153786 0.0519546 0)
(-0.166714 0.0386843 0)
(-0.181199 0.0193618 0)
(-0.196526 -0.00841774 0)
(-0.211396 -0.0468357 0)
(-0.223571 -0.0966504 0)
(-0.229613 -0.15615 0)
(-0.225184 -0.219427 0)
(-0.205579 -0.274924 0)
(-0.167156 -0.304831 0)
(-0.110141 -0.287415 0)
(-0.0451014 -0.206886 0)
(-0.00630423 -0.0730727 0)
(-0.00162564 0.0343884 0)
(-0.00932085 0.0831547 0)
(-0.0223434 0.112972 0)
(-0.0359738 0.128203 0)
(-0.0486831 0.13347 0)
(-0.0599558 0.132569 0)
(-0.0697082 0.128234 0)
(-0.0780915 0.122234 0)
(-0.0853382 0.115623 0)
(-0.0916896 0.108983 0)
(-0.0973785 0.102618 0)
(-0.102633 0.096678 0)
(-0.10769 0.0912131 0)
(-0.112805 0.0861835 0)
(-0.118266 0.0814207 0)
(-0.124399 0.0765469 0)
(-0.131565 0.0708536 0)
(-0.140137 0.0631532 0)
(-0.15044 0.0516461 0)
(-0.162657 0.0338872 0)
(-0.1767 0.00694266 0)
(-0.191832 -0.0321744 0)
(-0.206524 -0.085249 0)
(-0.21814 -0.151829 0)
(-0.222428 -0.227257 0)
(-0.21365 -0.30044 0)
(-0.185257 -0.35149 0)
(-0.132423 -0.351027 0)
(-0.0609699 -0.268267 0)
(-0.0104666 -0.100895 0)
(-0.00227489 0.0400991 0)
(-0.0119202 0.0951716 0)
(-0.0272152 0.127017 0)
(-0.042185 0.141803 0)
(-0.0552242 0.145551 0)
(-0.0660214 0.14287 0)
(-0.07471 0.136869 0)
(-0.0816097 0.129455 0)
(-0.0870646 0.1217 0)
(-0.0913817 0.114173 0)
(-0.0948261 0.10716 0)
(-0.0976335 0.100803 0)
(-0.100025 0.0951574 0)
(-0.102222 0.0902035 0)
(-0.104461 0.0858045 0)
(-0.107016 0.081623 0)
(-0.110207 0.0769898 0)
(-0.114421 0.0707379 0)
(-0.120103 0.0610385 0)
(-0.127743 0.0453171 0)
(-0.137794 0.0203625 0)
(-0.150392 -0.0172244 0)
(-0.165175 -0.0703576 0)
(-0.180728 -0.14003 0)
(-0.1938 -0.223678 0)
(-0.198672 -0.312413 0)
(-0.18665 -0.386844 0)
(-0.147275 -0.411997 0)
(-0.0784726 -0.33897 0)
(-0.0169062 -0.139231 0)
(-0.00345955 0.0477141 0)
(-0.015971 0.109857 0)
(-0.0339942 0.142914 0)
(-0.0500026 0.156042 0)
(-0.0625426 0.157207 0)
(-0.0717505 0.151956 0)
(-0.0781294 0.143739 0)
(-0.0822526 0.134524 0)
(-0.0846238 0.125342 0)
(-0.0856446 0.116701 0)
(-0.0856302 0.108838 0)
(-0.0848325 0.101857 0)
(-0.0834585 0.0957954 0)
(-0.0816879 0.0906287 0)
(-0.0796922 0.0862362 0)
(-0.07766 0.0823196 0)
(-0.0758324 0.0782775 0)
(-0.0745496 0.0730412 0)
(-0.0743025 0.0649018 0)
(-0.0757799 0.0513994 0)
(-0.0798828 0.0293776 0)
(-0.087609 -0.00473096 0)
(-0.0998332 -0.0545347 0)
(-0.116683 -0.122339 0)
(-0.136712 -0.208107 0)
(-0.1556 -0.306715 0)
(-0.16424 -0.402531 0)
(-0.147468 -0.459558 0)
(-0.0938996 -0.411934 0)
(-0.0257136 -0.189619 0)
(-0.00574327 0.0585273 0)
(-0.0225369 0.128103 0)
(-0.0434547 0.160547 0)
(-0.0594131 0.170031 0)
(-0.0696556 0.167105 0)
(-0.0751903 0.158289 0)
(-0.0771194 0.147238 0)
(-0.0763887 0.135845 0)
(-0.073726 0.12501 0)
(-0.0696638 0.115116 0)
(-0.0645879 0.106304 0)
(-0.0587771 0.0986078 0)
(-0.05243 0.092011 0)
(-0.0456862 0.0864564 0)
(-0.0386505 0.0818145 0)
(-0.0314238 0.077813 0)
(-0.0241505 0.0739289 0)
(-0.0170888 0.0692439 0)
(-0.0106969 0.0622861 0)
(-0.0057256 0.0509047 0)
(-0.00331884 0.0322547 0)
(-0.00515873 0.00294944 0)
(-0.013062 -0.0406757 0)
(-0.028603 -0.101812 0)
(-0.0525521 -0.18263 0)
(-0.0832381 -0.282494 0)
(-0.113562 -0.392555 0)
(-0.126119 -0.482212 0)
(-0.101316 -0.475494 0)
(-0.0355773 -0.251397 0)
(-0.0102762 0.0750705 0)
(-0.0334088 0.150874 0)
(-0.0561351 0.178942 0)
(-0.0690191 0.181652 0)
(-0.073214 0.172639 0)
(-0.0712751 0.159155 0)
(-0.0652108 0.144738 0)
(-0.0564653 0.130983 0)
(-0.0460349 0.118512 0)
(-0.0345847 0.107492 0)
(-0.0225521 0.0979116 0)
(-0.01022 0.0896871 0)
(0.00224299 0.0827165 0)
(0.0147514 0.0768811 0)
(0.0272724 0.0720185 0)
(0.0397906 0.0678662 0)
(0.0522574 0.0639747 0)
(0.0645123 0.0595941 0)
(0.0761763 0.053545 0)
(0.0865225 0.0441009 0)
(0.0943253 0.0289279 0)
(0.0976575 0.00513462 0)
(0.0941815 -0.0305023 0)
(0.0812102 -0.0813768 0)
(0.0560702 -0.150918 0)
(0.0172464 -0.242307 0)
(-0.0324904 -0.354912 0)
(-0.0772048 -0.470327 0)
(-0.0934326 -0.515009 0)
(-0.0430112 -0.320806 0)
(-0.0191567 0.10206 0)
(-0.050884 0.178054 0)
(-0.0699186 0.194814 0)
(-0.0720429 0.186249 0)
(-0.0627353 0.168928 0)
(-0.0468965 0.150026 0)
(-0.0276182 0.13229 0)
(-0.00677532 0.11662 0)
(0.0145073 0.10314 0)
(0.0355902 0.0916879 0)
(0.0561316 0.0820247 0)
(0.0759644 0.0739159 0)
(0.0950417 0.0671517 0)
(0.113395 0.0615401 0)
(0.131099 0.0568784 0)
(0.148239 0.0529085 0)
(0.16486 0.0492508 0)
(0.180892 0.045321 0)
(0.196048 0.0402344 0)
(0.209689 0.0327145 0)
(0.220656 0.0210375 0)
(0.226959 0.00302775 0)
(0.226154 -0.0237399 0)
(0.214978 -0.0622543 0)
(0.189525 -0.116071 0)
(0.145851 -0.190326 0)
(0.0813343 -0.291544 0)
(0.00611494 -0.41826 0)
(-0.0621718 -0.515983 0)
(-0.0419761 -0.390026 0)
(-0.0342406 0.145345 0)
(-0.0722804 0.202249 0)
(-0.0677052 0.196795 0)
(-0.0422801 0.172525 0)
(-0.00732297 0.146416 0)
(0.0305463 0.123405 0)
(0.0680752 0.104297 0)
(0.103813 0.0887382 0)
(0.137166 0.0761291 0)
(0.167997 0.065909 0)
(0.196398 0.057608 0)
(0.222561 0.0508546 0)
(0.246724 0.045357 0)
(0.269143 0.0408772 0)
(0.290064 0.0371993 0)
(0.309703 0.0340914 0)
(0.3282 0.03126 0)
(0.34556 0.0282946 0)
(0.361566 0.0246069 0)
(0.37566 0.0193675 0)
(0.386781 0.0114566 0)
(0.393163 -0.000561357 0)
(0.392391 -0.0181363 0)
(0.380933 -0.0433698 0)
(0.354343 -0.0790221 0)
(0.307534 -0.130025 0)
(0.233568 -0.2063 0)
(0.134882 -0.324083 0)
(0.00528461 -0.464353 0)
(-0.0198061 -0.438922 0)
(-0.0373162 0.236431 0)
(-0.0463022 0.205038 0)
(0.0303275 0.154795 0)
(0.103075 0.118701 0)
(0.170645 0.0915508 0)
(0.230754 0.0713581 0)
(0.283039 0.0565854 0)
(0.328246 0.0456992 0)
(0.367397 0.0375348 0)
(0.401476 0.0313153 0)
(0.431336 0.0265218 0)
(0.457701 0.0227955 0)
(0.481178 0.0198792 0)
(0.502274 0.0175807 0)
(0.521406 0.0157416 0)
(0.538895 0.0142103 0)
(0.554949 0.0128141 0)
(0.569616 0.0113306 0)
(0.582718 0.00946105 0)
(0.593751 0.00680903 0)
(0.601732 0.00286445 0)
(0.605269 -0.0029689 0)
(0.602195 -0.011505 0)
(0.589265 -0.0237653 0)
(0.561918 -0.0410567 0)
(0.515317 -0.0664834 0)
(0.438907 -0.107511 0)
(0.330968 -0.189907 0)
(0.141362 -0.33751 0)
(0.0598174 -0.41397 0)
(0.231274 0.158503 0)
(0.291781 0.117351 0)
(0.442102 0.076251 0)
(0.541742 0.050937 0)
(0.609377 0.0345276 0)
(0.65914 0.0236367 0)
(0.697122 0.0164951 0)
(0.726671 0.0118181 0)
(0.750139 0.00870889 0)
(0.769192 0.0066014 0)
(0.784976 0.00514831 0)
(0.798296 0.00413218 0)
(0.809734 0.00341292 0)
(0.819721 0.00289696 0)
(0.828573 0.00251706 0)
(0.836508 0.00221766 0)
(0.843645 0.00194333 0)
(0.849985 0.00162935 0)
(0.855372 0.00119347 0)
(0.859459 0.000539014 0)
(0.861633 -0.000449556 0)
(0.860957 -0.00183062 0)
(0.855939 -0.0038747 0)
(0.844912 -0.00687019 0)
(0.824841 -0.0110182 0)
(0.79335 -0.017229 0)
(0.738269 -0.027425 0)
(0.659916 -0.0499359 0)
(0.45609 -0.110996 0)
(0.313655 -0.178143 0)
)
;

boundaryField
{
    movingWall
    {
        type            fixedValue;
        value           uniform (1 0 0);
    }
    fixedWalls
    {
        type            noSlip;
    }
    frontAndBack
    {
        type            empty;
    }
}


// ************************************************************************* //
