/*--------------------------------*- C++ -*----------------------------------*\
  =========                 |
  \\      /  F ield         | OpenFOAM: The Open Source CFD Toolbox
   \\    /   O peration     | Website:  https://openfoam.org
    \\  /    A nd           | Version:  7
     \\/     M anipulation  |
\*---------------------------------------------------------------------------*/
FoamFile
{
    version     2.0;
    format      ascii;
    class       volScalarField;
    location    "0.14";
    object      p;
}
// * * * * * * * * * * * * * * * * * * * * * * * * * * * * * * * * * * * * * //

dimensions      [0 2 -2 0 0 0 0];

internalField   nonuniform List<scalar> 
1936
(
-0.000189548
-3189.65
-6891.56
-6583.8
-5864.53
-5829.34
-5391.95
-4697.03
-4198.25
-4150.01
-4638.59
-6183.3
-7487.96
-6140.87
-3944.45
-3346.01
-3530.74
-5248.79
-7639.12
-6742.68
-4189.46
-3318.66
-3297.42
-4310.21
-6840.12
-7465.96
-5097.85
-3452.09
-3245.99
-3829.27
-6336.69
-7831.79
-5769.35
-3693.5
-3304.28
-3538.12
-5446.84
-7675.37
-6613.65
-4086.32
-3282.33
-3346.25
-4622.49
-7389.53
-103.433
-3179.9
-6828.72
-6546.44
-5848.55
-5810.28
-5381.66
-4707.48
-4232.01
-4186.75
-4654.06
-6162.47
-7434.89
-6103.55
-3969.57
-3412.37
-3574.15
-5220.7
-7568.2
-6694.69
-4195.12
-3373.38
-3357.93
-4320.87
-6793.98
-7410.13
-5087.66
-3500.59
-3312.23
-3848.44
-6283.67
-7763.42
-5743.47
-3724.96
-3367.74
-3579.66
-5423.41
-7610.3
-6566.44
-4098.7
-3342.69
-3399.84
-4616.64
-7329.14
-423.971
-3162.75
-6603.59
-6445.25
-5813.18
-5752.43
-5353.97
-4737.16
-4316.07
-4279.56
-4714.09
-6114.72
-7262.62
-6002.14
-4055.41
-3570.57
-3694.58
-5168.72
-7343.79
-6558.59
-4243.36
-3506.26
-3508.53
-4377.54
-6656.25
-7229.28
-5084.63
-3635.53
-3468.24
-3921.96
-6142.92
-7541.49
-5690.96
-3828.02
-3515.27
-3700.76
-5379.58
-7401.05
-6433.28
-4160.32
-3487.87
-3536.93
-4634.2
-7141.51
-864.064
-3167.85
-6277.37
-6287.4
-5762.2
-5672.44
-5316.66
-4783.87
-4434.82
-4409.12
-4800.93
-6035.3
-6996.65
-5859.76
-4185.63
-3786.64
-3872.19
-5111.86
-7009.29
-6354.77
-4329.32
-3696.8
-3715.63
-4462.48
-6445.81
-6949.13
-5081.97
-3826.41
-3684.14
-4044.02
-5949.43
-7202.94
-5613.67
-3983.06
-3720.36
-3877.58
-5321.54
-7082.37
-6236.68
-4259.4
-3690.29
-3732.52
-4671.11
-6857.11
-1365.98
-3208.98
-5907.57
-6082.96
-5689.18
-5580.23
-5276.89
-4842.93
-4569.55
-4552.8
-4894.77
-5930.45
-6679.7
-5701.63
-4336.63
-4022.6
-4076.52
-5061.04
-6624.22
-6117.1
-4439.54
-3916.09
-3942.74
-4556.24
-6196.46
-6616.63
-5075.65
-4038.4
-3923.02
-4194.89
-5738.77
-6805.75
-5520.43
-4163.35
-3949.67
-4079.01
-5256.19
-6708.1
-6009.1
-4377.66
-3916.07
-3952.58
-4718.52
-6524.23
-1891.42
-3293.31
-5537.57
-5846.05
-5591.34
-5483.01
-5238.89
-4907.94
-4704.55
-4694.34
-4981.02
-5805.67
-6346.92
-5546.15
-4492.41
-4253.31
-4283.22
-5023.1
-6236.4
-5870.9
-4561.37
-4141.39
-4165.53
-4648.42
-5934.74
-6269
-5064.53
-4247.72
-4159.55
-4357.03
-5537.12
-6396.6
-5418.87
-4348.53
-4179.98
-4280.54
-5190.81
-6321.1
-5775.7
-4502.82
-4141.32
-4171.67
-4770.8
-6180.88
-2412.7
-3422.98
-5200.47
-5592.79
-5470.95
-5384.64
-5204.55
-4970.42
-4826.94
-4821.01
-5050.87
-5668.4
-6027.55
-5408.17
-4640.11
-4462.94
-4474.51
-5000.75
-5880.46
-5636.29
-4680.99
-4354.72
-4370.53
-4733.41
-5682.42
-5935.71
-5051.69
-4438.72
-4376.03
-4514.06
-5363.01
-6012.24
-5317.36
-4521.94
-4393.48
-4465.58
-5131.54
-5955.79
-5556.83
-4624
-4350.23
-4373.46
-4822.98
-5855.75
-2908.26
-3593.19
-4920.18
-5342.42
-5334.17
-5286.99
-5171.67
-5022.49
-4928.41
-4924.75
-5100.09
-5527.35
-5743.04
-5296.89
-4770.46
-4641.69
-4639.55
-4992.08
-5579.24
-5429.01
-4786.08
-4542.98
-4549.8
-4807.93
-5457.35
-5639.51
-5039.87
-4603.27
-4561.1
-4653.54
-5225.17
-5678.91
-5222.85
-4672.65
-4577.43
-4624.27
-5083.06
-5637.23
-5366.58
-4732.7
-4532.67
-4548.28
-4869.64
-5570.45
-3355.97
-3792.28
-4714.02
-5115.63
-5191.21
-5191.14
-5137.11
-5058.11
-5003.92
-5002.74
-5125.37
-5393.38
-5507.38
-5213.43
-4878.16
-4784.29
-4772.82
-4991.72
-5345.03
-5260.34
-4868.83
-4697.56
-4698.32
-4868.79
-5273.33
-5396.57
-5027.45
-4738.85
-4709.37
-4768.7
-5123.68
-5412.42
-5141.02
-4793.64
-4724.68
-4753.08
-5044.78
-5382.11
-5214.15
-4822
-4682.03
-4691.07
-4906.85
-5338.48
-3734.06
-4000.29
-4591.43
-4932.41
-5055.85
-5099.53
-5098.43
-5074.1
-5051.72
-5053.37
-5128.92
-5276.64
-5326.89
-5154.08
-4958.32
-4889.82
-4874.21
-4993.4
-5179.32
-5136.31
-4925.41
-4816.23
-4812.91
-4913.08
-5137.83
-5214.18
-5014.03
-4842.56
-4820.31
-4856.43
-5054.59
-5218.22
-5076.45
-4881.73
-4833.92
-4849.98
-5015.47
-5196.17
-5103.39
-4886.5
-4796.47
-4801.11
-4931.12
-5166.25
-4031.08
-4193.08
-4546
-4806.65
-4942.86
-5017.26
-5055.93
-5070.95
-5073.06
-5077.79
-5116.42
-5183.95
-5200.06
-5111.98
-5009.19
-4961.13
-4943.52
-4994.65
-5075.45
-5056.24
-4959.11
-4898.6
-4892.45
-4941.43
-5049.93
-5091.62
-5000.8
-4913.31
-4897.05
-4915.97
-5011.83
-5091.86
-5030.82
-4937.58
-4907.96
-4915.03
-4994.37
-5075.88
-5031.85
-4927.31
-4876.17
-4877.65
-4944.11
-5052.62
-4251.08
-4353
-4554.96
-4738.81
-4863.22
-4951.04
-5013.39
-5053.14
-5072.1
-5079.91
-5094.59
-5116.83
-5118.13
-5080.92
-5033.8
-5002.46
-4984.3
-4995.44
-5020.1
-5012.5
-4976.4
-4948.25
-4940.89
-4958.19
-5000.93
-5020.65
-4989.71
-4954.21
-4944.03
-4950.96
-4988.45
-5021.06
-5002.38
-4967.13
-4951.62
-4952.18
-4980.92
-5009.29
-4991.88
-4949.66
-4924.92
-4923.94
-4949.88
-4988.64
-4406.3
-4475.25
-4593.5
-4715.46
-4818.57
-4905.18
-4975.81
-5027.03
-5056.2
-5066.42
-5069.19
-5071.39
-5068.95
-5057
-5039.02
-5020.48
-5003.61
-4996.26
-4996.57
-4993.2
-4983.64
-4973.11
-4966.04
-4967.11
-4978.57
-4986.84
-4982.03
-4972.94
-4968.12
-4968.11
-4977.8
-4988.42
-4986.98
-4978.86
-4972.52
-4969.29
-4973.85
-4979.19
-4973.47
-4960.16
-4950.32
-4947.56
-4952.43
-4959.98
-4518.29
-4564.27
-4637.96
-4720.48
-4801.58
-4878
-4945.64
-4997.8
-5029.9
-5042.75
-5043.84
-5041.54
-5040
-5038.42
-5033.59
-5023.45
-5009.53
-4997
-4989.68
-4986.99
-4985.7
-4982.49
-4976.71
-4971.75
-4971.45
-4974.6
-4977.63
-4978.73
-4977.4
-4974.77
-4974.34
-4976.83
-4979.81
-4981.05
-4979.33
-4975
-4971.15
-4969.08
-4967.18
-4964.43
-4961.15
-4957.6
-4954.44
-4951.83
-4603.79
-4632.48
-4680.03
-4737.39
-4800.29
-4863.6
-4922.04
-4969.21
-5000.56
-5015.97
-5020.34
-5020.6
-5021.58
-5023.61
-5023.5
-5018.38
-5008.3
-4997.12
-4989.18
-4986.13
-4985.81
-4984.39
-4979.96
-4974.35
-4971
-4971.89
-4975.62
-4978.9
-4979.14
-4976.66
-4974.13
-4974.26
-4976.95
-4979.62
-4979.43
-4975.73
-4970.76
-4967.32
-4966.3
-4966.1
-4964.74
-4961.55
-4956.92
-4952.92
-4672.12
-4688.97
-4719.49
-4759.58
-4806.31
-4856.16
-4903.54
-4943.52
-4972.48
-4990
-4998.83
-5003.42
-5007.15
-5010.63
-5012.13
-5009.77
-5003.56
-4995.85
-4989.68
-4986.53
-4985.36
-4983.84
-4980.48
-4976.12
-4973.15
-4973.08
-4975.32
-4977.69
-4978.23
-4976.64
-4974.71
-4974.32
-4975.83
-4977.55
-4977.47
-4974.94
-4971.3
-4968.52
-4967.37
-4966.98
-4965.88
-4963.24
-4959.64
-4956.77
-4727.04
-4736.94
-4756.31
-4783.64
-4817.05
-4853.72
-4890.29
-4922.7
-4948.41
-4966.71
-4978.83
-4987.02
-4993.16
-4997.81
-5000.37
-5000.1
-4997.16
-4992.86
-4988.89
-4986.2
-4984.48
-4982.71
-4980.21
-4977.34
-4975.25
-4974.76
-4975.62
-4976.7
-4976.96
-4976.18
-4975.15
-4974.79
-4975.3
-4975.9
-4975.59
-4974.01
-4971.75
-4969.82
-4968.59
-4967.75
-4966.57
-4964.66
-4962.46
-4960.84
-4770.67
-4776.83
-4789.26
-4807.55
-4830.58
-4856.55
-4883.23
-4908.33
-4929.96
-4947.34
-4960.69
-4970.85
-4978.65
-4984.46
-4988.23
-4989.84
-4989.53
-4987.99
-4986.09
-4984.4
-4982.95
-4981.46
-4979.74
-4977.97
-4976.61
-4976
-4976.05
-4976.3
-4976.28
-4975.87
-4975.32
-4975
-4974.97
-4974.94
-4974.49
-4973.48
-4972.11
-4970.78
-4969.68
-4968.72
-4967.64
-4966.36
-4965.09
-4964.22
-4805
-4809.06
-4817.24
-4829.43
-4845
-4862.9
-4881.84
-4900.49
-4917.69
-4932.77
-4945.49
-4955.97
-4964.46
-4971.1
-4975.97
-4979.15
-4980.85
-4981.45
-4981.37
-4980.95
-4980.36
-4979.6
-4978.7
-4977.78
-4977.02
-4976.54
-4976.32
-4976.21
-4976.05
-4975.77
-4975.42
-4975.12
-4974.88
-4974.59
-4974.13
-4973.44
-4972.57
-4971.66
-4970.79
-4969.96
-4969.13
-4968.3
-4967.57
-4967.11
-4831.77
-4834.52
-4839.98
-4848.13
-4858.6
-4870.8
-4884.03
-4897.54
-4910.7
-4922.93
-4933.96
-4943.63
-4951.91
-4958.8
-4964.34
-4968.59
-4971.7
-4973.84
-4975.25
-4976.13
-4976.61
-4976.8
-4976.78
-4976.64
-4976.46
-4976.31
-4976.21
-4976.11
-4975.99
-4975.81
-4975.59
-4975.35
-4975.09
-4974.78
-4974.39
-4973.9
-4973.33
-4972.72
-4972.1
-4971.5
-4970.93
-4970.4
-4969.99
-4969.74
-4852.25
-4854.12
-4857.79
-4863.26
-4870.33
-4878.66
-4887.88
-4897.58
-4907.36
-4916.93
-4925.97
-4934.3
-4941.81
-4948.43
-4954.13
-4958.92
-4962.86
-4966.03
-4968.55
-4970.5
-4972.01
-4973.14
-4973.98
-4974.6
-4975.05
-4975.38
-4975.62
-4975.79
-4975.88
-4975.89
-4975.85
-4975.75
-4975.6
-4975.4
-4975.15
-4974.83
-4974.48
-4974.09
-4973.7
-4973.32
-4972.96
-4972.65
-4972.42
-4972.29
-4867.4
-4868.67
-4871.16
-4874.89
-4879.73
-4885.51
-4892.02
-4899.02
-4906.3
-4913.64
-4920.87
-4927.81
-4934.34
-4940.38
-4945.86
-4950.77
-4955.08
-4958.84
-4962.06
-4964.81
-4967.12
-4969.05
-4970.66
-4971.98
-4973.06
-4973.94
-4974.64
-4975.2
-4975.62
-4975.93
-4976.15
-4976.27
-4976.32
-4976.3
-4976.23
-4976.1
-4975.93
-4975.74
-4975.53
-4975.32
-4975.13
-4974.96
-4974.84
-4974.78
-4877.26
-4878.18
-4879.97
-4882.67
-4886.2
-4890.46
-4895.32
-4900.64
-4906.29
-4912.13
-4918.03
-4923.87
-4929.56
-4935
-4940.13
-4944.9
-4949.29
-4953.29
-4956.88
-4960.09
-4962.93
-4965.42
-4967.58
-4969.45
-4971.05
-4972.41
-4973.55
-4974.51
-4975.28
-4975.91
-4976.4
-4976.78
-4977.05
-4977.23
-4977.34
-4977.39
-4977.38
-4977.34
-4977.27
-4977.19
-4977.1
-4977.03
-4976.97
-4976.94
-4882.72
-4883.45
-4884.88
-4887.03
-4889.87
-4893.33
-4897.3
-4901.71
-4906.45
-4911.42
-4916.54
-4921.7
-4926.83
-4931.85
-4936.7
-4941.32
-4945.68
-4949.75
-4953.52
-4956.96
-4960.09
-4962.91
-4965.42
-4967.65
-4969.6
-4971.3
-4972.76
-4974.01
-4975.06
-4975.93
-4976.64
-4977.22
-4977.66
-4978
-4978.25
-4978.43
-4978.54
-4978.6
-4978.62
-4978.62
-4978.6
-4978.58
-4978.55
-4978.55
-4885.44
-4886.08
-4887.31
-4889.19
-4891.68
-4894.71
-4898.22
-4902.15
-4906.41
-4910.92
-4915.61
-4920.4
-4925.22
-4930
-4934.68
-4939.21
-4943.55
-4947.66
-4951.51
-4955.1
-4958.4
-4961.42
-4964.15
-4966.6
-4968.77
-4970.69
-4972.36
-4973.81
-4975.04
-4976.08
-4976.94
-4977.65
-4978.21
-4978.66
-4979
-4979.25
-4979.43
-4979.55
-4979.63
-4979.67
-4979.69
-4979.69
-4979.68
-4979.68
-4886.59
-4887.17
-4888.31
-4890.04
-4892.34
-4895.16
-4898.44
-4902.12
-4906.13
-4910.41
-4914.88
-4919.49
-4924.15
-4928.82
-4933.43
-4937.93
-4942.27
-4946.43
-4950.36
-4954.04
-4957.47
-4960.62
-4963.49
-4966.09
-4968.42
-4970.48
-4972.29
-4973.87
-4975.22
-4976.36
-4977.32
-4978.11
-4978.75
-4979.26
-4979.65
-4979.95
-4980.17
-4980.32
-4980.42
-4980.48
-4980.52
-4980.53
-4980.53
-4980.53
-4886.81
-4887.37
-4888.46
-4890.12
-4892.33
-4895.04
-4898.21
-4901.77
-4905.67
-4909.85
-4914.24
-4918.77
-4923.39
-4928.02
-4932.63
-4937.14
-4941.52
-4945.73
-4949.73
-4953.5
-4957.02
-4960.27
-4963.25
-4965.96
-4968.39
-4970.55
-4972.45
-4974.11
-4975.53
-4976.74
-4977.76
-4978.6
-4979.28
-4979.82
-4980.24
-4980.56
-4980.79
-4980.95
-4981.06
-4981.13
-4981.17
-4981.18
-4981.18
-4981.18
-4886.54
-4887.08
-4888.15
-4889.78
-4891.95
-4894.63
-4897.75
-4901.28
-4905.15
-4909.3
-4913.68
-4918.21
-4922.83
-4927.49
-4932.12
-4936.68
-4941.11
-4945.38
-4949.45
-4953.3
-4956.89
-4960.22
-4963.28
-4966.05
-4968.55
-4970.77
-4972.73
-4974.44
-4975.91
-4977.16
-4978.2
-4979.06
-4979.76
-4980.31
-4980.74
-4981.06
-4981.29
-4981.45
-4981.56
-4981.62
-4981.65
-4981.66
-4981.66
-4981.65
-4886.05
-4886.59
-4887.65
-4889.27
-4891.44
-4894.11
-4897.24
-4900.77
-4904.66
-4908.83
-4913.23
-4917.8
-4922.46
-4927.16
-4931.85
-4936.46
-4940.95
-4945.29
-4949.42
-4953.32
-4956.97
-4960.36
-4963.46
-4966.28
-4968.82
-4971.08
-4973.06
-4974.79
-4976.28
-4977.53
-4978.58
-4979.44
-4980.14
-4980.68
-4981.1
-4981.41
-4981.63
-4981.78
-4981.88
-4981.93
-4981.95
-4981.95
-4981.94
-4981.93
-4885.54
-4886.07
-4887.12
-4888.75
-4890.93
-4893.63
-4896.78
-4900.35
-4904.28
-4908.5
-4912.95
-4917.57
-4922.29
-4927.05
-4931.79
-4936.45
-4941
-4945.38
-4949.56
-4953.51
-4957.2
-4960.62
-4963.75
-4966.59
-4969.14
-4971.4
-4973.39
-4975.11
-4976.58
-4977.83
-4978.86
-4979.7
-4980.37
-4980.89
-4981.29
-4981.58
-4981.78
-4981.91
-4981.99
-4982.02
-4982.03
-4982.02
-4982
-4981.99
-4885.12
-4885.65
-4886.7
-4888.34
-4890.55
-4893.27
-4896.47
-4900.09
-4904.06
-4908.34
-4912.85
-4917.52
-4922.3
-4927.11
-4931.9
-4936.62
-4941.21
-4945.63
-4949.84
-4953.81
-4957.52
-4960.95
-4964.09
-4966.93
-4969.47
-4971.71
-4973.68
-4975.37
-4976.81
-4978.02
-4979.01
-4979.81
-4980.44
-4980.92
-4981.28
-4981.53
-4981.7
-4981.81
-4981.86
-4981.87
-4981.87
-4981.84
-4981.82
-4981.8
-4884.89
-4885.41
-4886.46
-4888.12
-4890.35
-4893.11
-4896.35
-4900.01
-4904.04
-4908.36
-4912.92
-4917.64
-4922.46
-4927.32
-4932.15
-4936.9
-4941.53
-4945.97
-4950.2
-4954.19
-4957.91
-4961.33
-4964.46
-4967.28
-4969.79
-4972.01
-4973.93
-4975.58
-4976.97
-4978.12
-4979.05
-4979.79
-4980.36
-4980.78
-4981.08
-4981.28
-4981.4
-4981.46
-4981.48
-4981.47
-4981.44
-4981.41
-4981.37
-4981.35
-4884.9
-4885.41
-4886.46
-4888.13
-4890.39
-4893.18
-4896.44
-4900.13
-4904.19
-4908.54
-4913.13
-4917.89
-4922.74
-4927.63
-4932.49
-4937.27
-4941.91
-4946.37
-4950.61
-4954.6
-4958.31
-4961.73
-4964.83
-4967.62
-4970.1
-4972.27
-4974.15
-4975.74
-4977.06
-4978.14
-4979
-4979.66
-4980.15
-4980.5
-4980.72
-4980.84
-4980.88
-4980.88
-4980.85
-4980.8
-4980.75
-4980.7
-4980.65
-4980.63
-4885.21
-4885.71
-4886.75
-4888.42
-4890.68
-4893.46
-4896.73
-4900.42
-4904.47
-4908.84
-4913.44
-4918.21
-4923.08
-4927.98
-4932.86
-4937.66
-4942.31
-4946.78
-4951.03
-4955.02
-4958.72
-4962.12
-4965.2
-4967.96
-4970.4
-4972.52
-4974.34
-4975.87
-4977.12
-4978.13
-4978.91
-4979.48
-4979.88
-4980.13
-4980.25
-4980.27
-4980.22
-4980.12
-4980
-4979.88
-4979.78
-4979.7
-4979.64
-4979.63
-4885.87
-4886.36
-4887.37
-4888.98
-4891.19
-4893.93
-4897.16
-4900.81
-4904.84
-4909.19
-4913.78
-4918.55
-4923.43
-4928.35
-4933.24
-4938.04
-4942.71
-4947.18
-4951.43
-4955.41
-4959.1
-4962.48
-4965.54
-4968.27
-4970.67
-4972.75
-4974.51
-4975.98
-4977.16
-4978.1
-4978.79
-4979.28
-4979.58
-4979.73
-4979.74
-4979.64
-4979.47
-4979.25
-4979.01
-4978.77
-4978.57
-4978.41
-4978.32
-4978.31
-4886.97
-4887.39
-4888.31
-4889.79
-4891.89
-4894.53
-4897.67
-4901.25
-4905.24
-4909.55
-4914.13
-4918.89
-4923.77
-4928.69
-4933.59
-4938.4
-4943.07
-4947.55
-4951.79
-4955.77
-4959.45
-4962.82
-4965.86
-4968.56
-4970.92
-4972.95
-4974.67
-4976.08
-4977.2
-4978.06
-4978.68
-4979.08
-4979.29
-4979.33
-4979.23
-4979.01
-4978.7
-4978.33
-4977.93
-4977.53
-4977.17
-4976.83
-4976.67
-4976.61
-4888.6
-4888.81
-4889.55
-4890.77
-4892.69
-4895.17
-4898.19
-4901.69
-4905.61
-4909.89
-4914.44
-4919.19
-4924.06
-4928.99
-4933.89
-4938.71
-4943.38
-4947.87
-4952.12
-4956.09
-4959.77
-4963.12
-4966.14
-4968.81
-4971.14
-4973.14
-4974.81
-4976.17
-4977.24
-4978.04
-4978.59
-4978.91
-4979.04
-4978.99
-4978.78
-4978.43
-4977.98
-4977.44
-4976.86
-4976.24
-4975.65
-4975.03
-4974.7
-4974.44
-4890.9
-4890.57
-4891.01
-4891.82
-4893.5
-4895.79
-4898.68
-4902.08
-4905.94
-4910.17
-4914.69
-4919.43
-4924.31
-4929.23
-4934.14
-4938.97
-4943.65
-4948.14
-4952.39
-4956.36
-4960.03
-4963.38
-4966.38
-4969.03
-4971.34
-4973.31
-4974.94
-4976.26
-4977.29
-4978.03
-4978.52
-4978.78
-4978.83
-4978.7
-4978.39
-4977.93
-4977.34
-4976.64
-4975.87
-4975
-4974.13
-4973.08
-4972.46
-4971.66
-4894.01
-4892.58
-4892.55
-4892.84
-4894.25
-4896.33
-4899.09
-4902.4
-4906.19
-4910.38
-4914.89
-4919.62
-4924.49
-4929.42
-4934.34
-4939.17
-4943.86
-4948.36
-4952.61
-4956.59
-4960.25
-4963.59
-4966.58
-4969.22
-4971.51
-4973.45
-4975.06
-4976.35
-4977.33
-4978.04
-4978.48
-4978.69
-4978.68
-4978.48
-4978.09
-4977.53
-4976.82
-4975.98
-4975.02
-4973.91
-4972.73
-4971.12
-4970.06
-4968.16
-4897.98
-4894.66
-4894.03
-4893.73
-4894.86
-4896.76
-4899.41
-4902.64
-4906.38
-4910.54
-4915.03
-4919.75
-4924.63
-4929.56
-4934.48
-4939.32
-4944.02
-4948.52
-4952.78
-4956.76
-4960.42
-4963.75
-4966.74
-4969.37
-4971.64
-4973.57
-4975.16
-4976.42
-4977.38
-4978.05
-4978.46
-4978.63
-4978.57
-4978.32
-4977.87
-4977.24
-4976.43
-4975.47
-4974.36
-4973.03
-4971.55
-4969.33
-4967.68
-4963.85
-4902.75
-4896.57
-4895.27
-4894.42
-4895.32
-4897.06
-4899.62
-4902.79
-4906.5
-4910.64
-4915.11
-4919.84
-4924.71
-4929.65
-4934.58
-4939.42
-4944.13
-4948.63
-4952.9
-4956.87
-4960.54
-4963.87
-4966.85
-4969.47
-4971.74
-4973.65
-4975.23
-4976.47
-4977.41
-4978.06
-4978.45
-4978.59
-4978.51
-4978.22
-4977.72
-4977.04
-4976.17
-4975.11
-4973.89
-4972.38
-4970.65
-4967.87
-4965.56
-4958.83
-4907.96
-4898.1
-4896.15
-4894.87
-4895.6
-4897.25
-4899.75
-4902.88
-4906.56
-4910.69
-4915.16
-4919.89
-4924.76
-4929.7
-4934.63
-4939.48
-4944.19
-4948.7
-4952.97
-4956.95
-4960.61
-4963.94
-4966.92
-4969.54
-4971.8
-4973.71
-4975.27
-4976.51
-4977.44
-4978.08
-4978.45
-4978.57
-4978.47
-4978.16
-4977.64
-4976.92
-4976.01
-4974.9
-4973.61
-4971.98
-4970.07
-4966.85
-4963.91
-4953.45
-4912.89
-4899.07
-4896.62
-4895.11
-4895.75
-4897.34
-4899.81
-4902.92
-4906.59
-4910.71
-4915.18
-4919.91
-4924.78
-4929.73
-4934.66
-4939.51
-4944.22
-4948.73
-4953
-4956.98
-4960.64
-4963.97
-4966.95
-4969.57
-4971.82
-4973.73
-4975.29
-4976.53
-4977.45
-4978.08
-4978.45
-4978.56
-4978.45
-4978.13
-4977.6
-4976.87
-4975.94
-4974.8
-4973.47
-4971.79
-4969.78
-4966.32
-4962.88
-4948.45
-4916.84
-4899.5
-4896.79
-4895.19
-4895.8
-4897.37
-4899.83
-4902.94
-4906.61
-4910.72
-4915.19
-4919.91
-4924.79
-4929.73
-4934.67
-4939.52
-4944.23
-4948.74
-4953.01
-4956.99
-4960.65
-4963.98
-4966.96
-4969.57
-4971.83
-4973.74
-4975.3
-4976.53
-4977.45
-4978.08
-4978.44
-4978.56
-4978.45
-4978.12
-4977.59
-4976.85
-4975.91
-4974.77
-4973.43
-4971.72
-4969.68
-4966.13
-4962.43
-4944.47
)
;

boundaryField
{
    movingWall
    {
        type            zeroGradient;
    }
    fixedWalls
    {
        type            zeroGradient;
    }
    frontAndBack
    {
        type            empty;
    }
    defaultFaces
    {
        type            empty;
    }
}


// ************************************************************************* //
