/*--------------------------------*- C++ -*----------------------------------*\
  =========                 |
  \\      /  F ield         | OpenFOAM: The Open Source CFD Toolbox
   \\    /   O peration     | Website:  https://openfoam.org
    \\  /    A nd           | Version:  7
     \\/     M anipulation  |
\*---------------------------------------------------------------------------*/
FoamFile
{
    version     2.0;
    format      ascii;
    class       volVectorField;
    location    "6.5";
    object      U;
}
// * * * * * * * * * * * * * * * * * * * * * * * * * * * * * * * * * * * * * //

dimensions      [0 1 -1 0 0 0 0];

internalField   nonuniform List<vector> 
900
(
(7.50448e-05 -7.40572e-05 0)
(5.51582e-05 5.35758e-06 0)
(-0.000271039 0.000101624 0)
(-0.000835872 0.000173364 0)
(-0.00157215 0.000218106 0)
(-0.00241719 0.000241785 0)
(-0.00331896 0.000251238 0)
(-0.00423855 0.000251488 0)
(-0.00514657 0.000245321 0)
(-0.00601864 0.000233735 0)
(-0.00683178 0.00021649 0)
(-0.00756185 0.000192601 0)
(-0.00818237 0.000160799 0)
(-0.00866438 0.000119976 0)
(-0.00897783 6.96516e-05 0)
(-0.00909407 1.02994e-05 0)
(-0.00898876 -5.68179e-05 0)
(-0.00864638 -0.000128014 0)
(-0.00806513 -0.00019847 0)
(-0.0072601 -0.000262179 0)
(-0.00626591 -0.000312482 0)
(-0.00513686 -0.000342988 0)
(-0.00394428 -0.000348608 0)
(-0.00277087 -0.000326472 0)
(-0.001703 -0.000276504 0)
(-0.000820683 -0.00020151 0)
(-0.000182588 -0.000108236 0)
(0.000162138 -1.37384e-05 0)
(0.000218642 7.15794e-05 0)
(9.14952e-05 9.08806e-05 0)
(-3.11602e-06 -5.73627e-05 0)
(-0.000389829 0.000385975 0)
(-0.00143178 0.000860424 0)
(-0.00296444 0.00123496 0)
(-0.00486873 0.00149145 0)
(-0.007024 0.00164364 0)
(-0.00931848 0.00171344 0)
(-0.0116591 0.00171979 0)
(-0.0139688 0.00167497 0)
(-0.01618 0.00158461 0)
(-0.0182288 0.00144914 0)
(-0.0200508 0.00126573 0)
(-0.0215788 0.00103048 0)
(-0.0227434 0.000740653 0)
(-0.0234756 0.000396865 0)
(-0.0237135 5.00873e-06 0)
(-0.023407 -0.00042212 0)
(-0.0225277 -0.000863879 0)
(-0.0210798 -0.00129245 0)
(-0.0191047 -0.00167444 0)
(-0.0166862 -0.00197422 0)
(-0.01395 -0.00215852 0)
(-0.0110576 -0.00220158 0)
(-0.00819371 -0.00209002 0)
(-0.00554915 -0.00182634 0)
(-0.00329933 -0.00143063 0)
(-0.00158061 -0.000943173 0)
(-0.000472221 -0.000434132 0)
(3.72647e-05 1.3249e-05 0)
(7.55451e-05 0.000216641 0)
(-0.000107177 0.00027453 0)
(-0.000914581 0.00144034 0)
(-0.00268492 0.00257444 0)
(-0.00510768 0.00347906 0)
(-0.00801957 0.00411715 0)
(-0.011266 0.0045087 0)
(-0.0146981 0.00469269 0)
(-0.0181866 0.0047063 0)
(-0.0216201 0.00457565 0)
(-0.0248981 0.0043141 0)
(-0.0279247 0.00392428 0)
(-0.0306043 0.00340206 0)
(-0.0328388 0.00274138 0)
(-0.0345292 0.00193953 0)
(-0.0355794 0.00100228 0)
(-0.0359038 -5.15105e-05 0)
(-0.035436 -0.00118595 0)
(-0.0341408 -0.00234772 0)
(-0.0320267 -0.00346642 0)
(-0.0291538 -0.00445919 0)
(-0.02564 -0.0052388 0)
(-0.0216604 -0.00572453 0)
(-0.017439 -0.0058546 0)
(-0.0132322 -0.00559796 0)
(-0.00930452 -0.00496338 0)
(-0.00589979 -0.00400458 0)
(-0.00320938 -0.00282332 0)
(-0.00133991 -0.00157372 0)
(-0.000289099 -0.000463603 0)
(1.95804e-05 0.000189629 0)
(-0.00019878 0.000890463 0)
(-0.001402 0.00308224 0)
(-0.00386362 0.00505481 0)
(-0.00710698 0.00660514 0)
(-0.0109168 0.00769991 0)
(-0.0151091 0.00837421 0)
(-0.0195082 0.00868721 0)
(-0.0239605 0.00869529 0)
(-0.0283312 0.00843888 0)
(-0.032497 0.00793945 0)
(-0.0363388 0.00720215 0)
(-0.0397378 0.0062219 0)
(-0.0425728 0.00499127 0)
(-0.0447217 0.00350911 0)
(-0.0460667 0.00178918 0)
(-0.0465022 -0.000132209 0)
(-0.0459461 -0.00219121 0)
(-0.0443525 -0.00429252 0)
(-0.0417278 -0.00631272 0)
(-0.0381405 -0.00810745 0)
(-0.0337295 -0.00952481 0)
(-0.0287052 -0.010424 0)
(-0.0233408 -0.0106966 0)
(-0.0179527 -0.0102882 0)
(-0.012871 -0.00921386 0)
(-0.00840326 -0.00756843 0)
(-0.0047947 -0.00552835 0)
(-0.00218613 -0.00335014 0)
(-0.0005994 -0.00136692 0)
(-2.86565e-05 -2.08205e-05 0)
(-0.000273724 0.00175666 0)
(-0.00182956 0.00526786 0)
(-0.00492369 0.00824459 0)
(-0.00891561 0.0105332 0)
(-0.0135347 0.0121346 0)
(-0.0185676 0.0131141 0)
(-0.0238166 0.0135576 0)
(-0.0291109 0.0135431 0)
(-0.0343008 0.013126 0)
(-0.0392482 0.0123355 0)
(-0.0438192 0.0111788 0)
(-0.0478784 0.00964941 0)
(-0.0512872 0.00773803 0)
(-0.0539042 0.00544483 0)
(-0.0555909 0.00279179 0)
(-0.0562209 -0.000166133 0)
(-0.05569 -0.00333265 0)
(-0.0539327 -0.006567 0)
(-0.0509414 -0.00968502 0)
(-0.046779 -0.01247 0)
(-0.0415922 -0.014692 0)
(-0.0356163 -0.0161353 0)
(-0.0291678 -0.0166309 0)
(-0.0226244 -0.0160901 0)
(-0.0163889 -0.014531 0)
(-0.0108447 -0.0120933 0)
(-0.00630444 -0.00903926 0)
(-0.00295688 -0.00574253 0)
(-0.000856043 -0.00266945 0)
(-5.841e-05 -0.00038266 0)
(-0.000334802 0.0028391 0)
(-0.00219936 0.00794396 0)
(-0.00586211 0.012086 0)
(-0.0105326 0.0152008 0)
(-0.0158862 0.0173522 0)
(-0.0216806 0.0186535 0)
(-0.027699 0.019227 0)
(-0.0337588 0.0191767 0)
(-0.0397021 0.0185743 0)
(-0.0453832 0.0174571 0)
(-0.0506598 0.015833 0)
(-0.0553867 0.0136923 0)
(-0.0594119 0.0110215 0)
(-0.0625769 0.00781925 0)
(-0.064721 0.00411286 0)
(-0.0656903 -2.64775e-05 0)
(-0.06535 -0.00447051 0)
(-0.0636017 -0.00903164 0)
(-0.060405 -0.0134589 0)
(-0.0557989 -0.017452 0)
(-0.0499211 -0.0206865 0)
(-0.0430205 -0.0228508 0)
(-0.0354548 -0.023693 0)
(-0.0276712 -0.0230716 0)
(-0.0201645 -0.0209965 0)
(-0.0134198 -0.0176536 0)
(-0.00784468 -0.013404 0)
(-0.0036974 -0.00876003 0)
(-0.00107146 -0.0043435 0)
(-7.09009e-05 -0.000859033 0)
(-0.000385837 0.00410712 0)
(-0.00252091 0.0110545 0)
(-0.00669215 0.016514 0)
(-0.011977 0.0205399 0)
(-0.0180013 0.0232841 0)
(-0.0244963 0.0249255 0)
(-0.0312293 0.025634 0)
(-0.0380106 0.0255454 0)
(-0.0446798 0.0247507 0)
(-0.0510905 0.0232949 0)
(-0.0570991 0.0211857 0)
(-0.0625557 0.0184067 0)
(-0.0672993 0.0149355 0)
(-0.0711557 0.0107636 0)
(-0.0739395 0.00591684 0)
(-0.0754613 0.000475636 0)
(-0.075543 -0.00540742 0)
(-0.0740342 -0.0114985 0)
(-0.0708386 -0.0174763 0)
(-0.0659461 -0.022946 0)
(-0.0594625 -0.0274674 0)
(-0.0516334 -0.0306035 0)
(-0.0428536 -0.0319858 0)
(-0.0336512 -0.0313873 0)
(-0.0246406 -0.0287884 0)
(-0.0164484 -0.0244171 0)
(-0.00961984 -0.0187499 0)
(-0.00451669 -0.012471 0)
(-0.00128641 -0.00639996 0)
(-7.31851e-05 -0.00143127 0)
(-0.000429715 0.00553652 0)
(-0.00280362 0.0145505 0)
(-0.00743028 0.0214698 0)
(-0.0132726 0.0264902 0)
(-0.0199131 0.0298732 0)
(-0.0270602 0.03188 0)
(-0.0344698 0.0327395 0)
(-0.0419499 0.0326268 0)
(-0.0493439 0.0316553 0)
(-0.0565114 0.029879 0)
(-0.0633144 0.0273027 0)
(-0.0696051 0.0238994 0)
(-0.0752182 0.0196309 0)
(-0.0799652 0.0144717 0)
(-0.0836338 0.00843458 0)
(-0.0859919 0.00159666 0)
(-0.0868022 -0.00587726 0)
(-0.0858394 -0.0137157 0)
(-0.0829227 -0.0215277 0)
(-0.0779604 -0.0288125 0)
(-0.0709932 -0.0349895 0)
(-0.0622378 -0.0394567 0)
(-0.0521136 -0.0416784 0)
(-0.0412379 -0.0412912 0)
(-0.0303773 -0.0382067 0)
(-0.0203533 -0.0326807 0)
(-0.0119109 -0.0253238 0)
(-0.00556852 -0.0170409 0)
(-0.00155768 -0.00891534 0)
(-7.40497e-05 -0.00210734 0)
(-0.000468119 0.00710824 0)
(-0.00305425 0.0183907 0)
(-0.00808993 0.0269025 0)
(-0.0144392 0.0329999 0)
(-0.0216478 0.0370725 0)
(-0.0294062 0.0394795 0)
(-0.0374635 0.0405205 0)
(-0.0456311 0.040418 0)
(-0.0537627 0.0393124 0)
(-0.0617315 0.0372673 0)
(-0.0694127 0.0342834 0)
(-0.0766688 0.0303173 0)
(-0.0833362 0.0253058 0)
(-0.0892162 0.0191934 0)
(-0.0940682 0.0119628 0)
(-0.0976104 0.00366791 0)
(-0.0995317 -0.00553317 0)
(-0.0995075 -0.0153486 0)
(-0.0972387 -0.0253247 0)
(-0.0925116 -0.0348475 0)
(-0.0852585 -0.0431682 0)
(-0.0756271 -0.0494701 0)
(-0.0640348 -0.0529818 0)
(-0.0511859 -0.0531264 0)
(-0.0380294 -0.0496797 0)
(-0.0256455 -0.0428915 0)
(-0.0150645 -0.0335215 0)
(-0.00704357 -0.0227605 0)
(-0.00195377 -0.0120518 0)
(-8.29624e-05 -0.0029288 0)
(-0.000501804 0.00880623 0)
(-0.00327667 0.0225392 0)
(-0.00867962 0.032767 0)
(-0.0154893 0.0400226 0)
(-0.0232209 0.0448401 0)
(-0.0315516 0.0476918 0)
(-0.0402289 0.0489599 0)
(-0.0490734 0.0489232 0)
(-0.0579559 0.0477545 0)
(-0.0667716 0.0455296 0)
(-0.0754181 0.0422428 0)
(-0.0837768 0.0378285 0)
(-0.091695 0.0321878 0)
(-0.0989696 0.0252183 0)
(-0.105334 0.0168501 0)
(-0.110452 0.00708633 0)
(-0.113928 -0.00395049 0)
(-0.115314 -0.0159711 0)
(-0.114158 -0.0284798 0)
(-0.11008 -0.0407489 0)
(-0.102851 -0.0518355 0)
(-0.0924928 -0.0606521 0)
(-0.0793745 -0.066104 0)
(-0.0642624 -0.0672926 0)
(-0.0483032 -0.0637517 0)
(-0.0329021 -0.0556548 0)
(-0.0194845 -0.0439098 0)
(-0.00916678 -0.0300711 0)
(-0.00255438 -0.0160748 0)
(-0.000110131 -0.00397601 0)
(-0.0005309 0.0106159 0)
(-0.00347236 0.0269631 0)
(-0.00920302 0.039021 0)
(-0.0164277 0.0475134 0)
(-0.024636 0.0531339 0)
(-0.0334958 0.0564823 0)
(-0.0427578 0.0580363 0)
(-0.0522575 0.0581406 0)
(-0.0618899 0.0570074 0)
(-0.0715802 0.0547277 0)
(-0.0812583 0.0512887 0)
(-0.0908352 0.0465969 0)
(-0.100179 0.040505 0)
(-0.109092 0.0328446 0)
(-0.117288 0.0234659 0)
(-0.124378 0.0122868 0)
(-0.129869 -0.000644722 0)
(-0.13318 -0.0150757 0)
(-0.13368 -0.0305024 0)
(-0.130776 -0.0460938 0)
(-0.124021 -0.0606968 0)
(-0.113243 -0.0728978 0)
(-0.0986876 -0.0811798 0)
(-0.081124 -0.0841825 0)
(-0.0618775 -0.0810401 0)
(-0.0427271 -0.0717204 0)
(-0.0256186 -0.0572363 0)
(-0.0121955 -0.0395849 0)
(-0.00345111 -0.0213698 0)
(-0.000166835 -0.00537368 0)
(-0.000555169 0.0125226 0)
(-0.00364127 0.0316302 0)
(-0.00966044 0.0456226 0)
(-0.0172531 0.0554254 0)
(-0.0258863 0.0619063 0)
(-0.0352218 0.0658069 0)
(-0.0450167 0.0677137 0)
(-0.0551263 0.0680485 0)
(-0.065476 0.0670711 0)
(-0.0760286 0.0648924 0)
(-0.0867555 0.0614931 0)
(-0.0976079 0.0567462 0)
(-0.108486 0.0504441 0)
(-0.11921 0.0423314 0)
(-0.129483 0.0321481 0)
(-0.138873 0.0196888 0)
(-0.146792 0.00488092 0)
(-0.152523 -0.0121165 0)
(-0.155246 -0.0308234 0)
(-0.154123 -0.0503358 0)
(-0.14844 -0.069293 0)
(-0.137757 -0.0859166 0)
(-0.122099 -0.0981714 0)
(-0.102129 -0.104074 0)
(-0.0792721 -0.102144 0)
(-0.0556786 -0.091927 0)
(-0.0339312 -0.074415 0)
(-0.0164155 -0.0520955 0)
(-0.00474895 -0.0284579 0)
(-0.000266093 -0.00729711 0)
(-0.00057429 0.0145116 0)
(-0.00378307 0.0365083 0)
(-0.0100513 0.0525282 0)
(-0.0179617 0.063707 0)
(-0.0269596 0.0710996 0)
(-0.0367012 0.0756043 0)
(-0.046952 0.0779308 0)
(-0.05759 0.0785903 0)
(-0.0685752 0.0778998 0)
(-0.0799137 0.0759966 0)
(-0.0916254 0.0728564 0)
(-0.10371 0.0683154 0)
(-0.116112 0.0620943 0)
(-0.128679 0.0538303 0)
(-0.141123 0.0431232 0)
(-0.15298 0.0296034 0)
(-0.163594 0.0130277 0)
(-0.172121 -0.00659672 0)
(-0.177561 -0.0288574 0)
(-0.178839 -0.0528322 0)
(-0.174948 -0.0769829 0)
(-0.165114 -0.0991603 0)
(-0.149025 -0.116745 0)
(-0.127086 -0.126973 0)
(-0.100654 -0.127488 0)
(-0.0721517 -0.117086 0)
(-0.0448553 -0.0964702 0)
(-0.0221329 -0.0685722 0)
(-0.00656877 -0.0380084 0)
(-0.000424027 -0.00997984 0)
(-0.000588206 0.0165678 0)
(-0.00389886 0.0415656 0)
(-0.0103779 0.0596925 0)
(-0.0185527 0.0722998 0)
(-0.0278449 0.0806419 0)
(-0.037903 0.0857893 0)
(-0.0485002 0.0885904 0)
(-0.0595377 0.0896591 0)
(-0.0710109 0.0893806 0)
(-0.0829717 0.0879259 0)
(-0.0954914 0.0852696 0)
(-0.108624 0.0812088 0)
(-0.122364 0.0753839 0)
(-0.1366 0.0673078 0)
(-0.151067 0.0564136 0)
(-0.165301 0.0421313 0)
(-0.178609 0.0240029 0)
(-0.190058 0.00183721 0)
(-0.198517 -0.0240987 0)
(-0.202723 -0.052915 0)
(-0.201385 -0.0829648 0)
(-0.193363 -0.111778 0)
(-0.177908 -0.136147 0)
(-0.15497 -0.152421 0)
(-0.125582 -0.157097 0)
(-0.0921996 -0.147784 0)
(-0.0587058 -0.124416 0)
(-0.0296533 -0.0901215 0)
(-0.00904998 -0.050845 0)
(-0.000662178 -0.0137234 0)
(-0.000597572 0.018677 0)
(-0.00399339 0.0467725 0)
(-0.0106503 0.0670706 0)
(-0.0190364 0.0811392 0)
(-0.028543 0.0904452 0)
(-0.0388059 0.0962482 0)
(-0.0496028 0.0995512 0)
(-0.0608551 0.101085 0)
(-0.0725915 0.101315 0)
(-0.0849063 0.100454 0)
(-0.0979204 0.0984793 0)
(-0.11174 0.0951498 0)
(-0.126414 0.090021 0)
(-0.14188 0.0824712 0)
(-0.157915 0.0717493 0)
(-0.174085 0.0570614 0)
(-0.189713 0.0377042 0)
(-0.203853 0.0132463 0)
(-0.215315 -0.0162538 0)
(-0.222728 -0.0500045 0)
(-0.224608 -0.0863565 0)
(-0.219468 -0.122635 0)
(-0.206056 -0.155138 0)
(-0.183683 -0.179324 0)
(-0.152734 -0.190336 0)
(-0.115292 -0.184099 0)
(-0.0755346 -0.159045 0)
(-0.0392362 -0.117896 0)
(-0.0123498 -0.0679379 0)
(-0.00101066 -0.0189087 0)
(-0.000604338 0.0208294 0)
(-0.00407796 0.0521076 0)
(-0.0108927 0.0746225 0)
(-0.0194429 0.0901576 0)
(-0.0290782 0.100407 0)
(-0.0394137 0.106837 0)
(-0.0502254 0.110624 0)
(-0.0614496 0.11263 0)
(-0.0731419 0.11341 0)
(-0.0854316 0.113227 0)
(-0.0984805 0.112067 0)
(-0.112441 0.109653 0)
(-0.12741 0.105456 0)
(-0.143381 0.0987197 0)
(-0.160191 0.0885063 0)
(-0.177475 0.0737928 0)
(-0.194627 0.0536218 0)
(-0.210782 0.0273063 0)
(-0.224793 -0.00533516 0)
(-0.235317 -0.0437428 0)
(-0.240808 -0.086334 0)
(-0.239527 -0.130423 0)
(-0.229737 -0.172025 0)
(-0.20999 -0.205861 0)
(-0.1797 -0.225676 0)
(-0.14005 -0.225263 0)
(-0.094921 -0.200612 0)
(-0.0510049 -0.152918 0)
(-0.0166336 -0.0903651 0)
(-0.00151172 -0.0260075 0)
(-0.000612542 0.0230231 0)
(-0.00417422 0.0575658 0)
(-0.0111514 0.0823221 0)
(-0.0198341 0.0992908 0)
(-0.0295132 0.110412 0)
(-0.0397726 0.117383 0)
(-0.0503795 0.121571 0)
(-0.0612782 0.123984 0)
(-0.0725426 0.125276 0)
(-0.0843257 0.125764 0)
(-0.096817 0.125449 0)
(-0.110202 0.124024 0)
(-0.12462 0.120884 0)
(-0.140119 0.115147 0)
(-0.156613 0.105704 0)
(-0.173838 0.0913236 0)
(-0.191323 0.0708109 0)
(-0.20837 0.0432305 0)
(-0.224048 0.00814208 0)
(-0.237137 -0.034164 0)
(-0.246169 -0.0823241 0)
(-0.249379 -0.133873 0)
(-0.244656 -0.184851 0)
(-0.229794 -0.229579 0)
(-0.203022 -0.260604 0)
(-0.164085 -0.269366 0)
(-0.115738 -0.248434 0)
(-0.0648057 -0.195789 0)
(-0.022052 -0.11922 0)
(-0.00222416 -0.0355879 0)
(-0.00062949 0.0252719 0)
(-0.00431923 0.0631715 0)
(-0.0115045 0.0901694 0)
(-0.0203165 0.108488 0)
(-0.0299642 0.120342 0)
(-0.0399888 0.127691 0)
(-0.0501436 0.132114 0)
(-0.0603753 0.134777 0)
(-0.0707678 0.136439 0)
(-0.0814857 0.137476 0)
(-0.0927323 0.137908 0)
(-0.104712 0.137404 0)
(-0.117596 0.135298 0)
(-0.131487 0.130608 0)
(-0.146386 0.122085 0)
(-0.162164 0.108331 0)
(-0.17854 0.087959 0)
(-0.195068 0.059821 0)
(-0.211106 0.0232365 0)
(-0.225715 -0.0217698 0)
(-0.237722 -0.0742081 0)
(-0.245509 -0.132066 0)
(-0.246811 -0.191767 0)
(-0.238838 -0.247727 0)
(-0.218623 -0.2918 0)
(-0.184101 -0.31325 0)
(-0.136008 -0.300512 0)
(-0.0800406 -0.246289 0)
(-0.0287045 -0.155443 0)
(-0.00322968 -0.0483092 0)
(-0.000667754 0.0276154 0)
(-0.00457295 0.0689965 0)
(-0.012075 0.0982073 0)
(-0.0210567 0.117721 0)
(-0.0306155 0.130083 0)
(-0.0402432 0.137551 0)
(-0.0496786 0.141944 0)
(-0.0588716 0.144596 0)
(-0.0679118 0.146373 0)
(-0.0769678 0.147712 0)
(-0.0862448 0.148652 0)
(-0.095955 0.14885 0)
(-0.106293 0.147601 0)
(-0.117415 0.143852 0)
(-0.12942 0.136268 0)
(-0.142337 0.123342 0)
(-0.15611 0.103564 0)
(-0.170595 0.0756435 0)
(-0.185517 0.0387255 0)
(-0.200292 -0.00743117 0)
(-0.214211 -0.062459 0)
(-0.226005 -0.124747 0)
(-0.233512 -0.191501 0)
(-0.233693 -0.257832 0)
(-0.222632 -0.315666 0)
(-0.196393 -0.352777 0)
(-0.15301 -0.353372 0)
(-0.0955448 -0.302942 0)
(-0.0365964 -0.199552 0)
(-0.00464392 -0.0649048 0)
(-0.000749007 0.0301351 0)
(-0.00503028 0.0751854 0)
(-0.0130487 0.106541 0)
(-0.0222981 0.127002 0)
(-0.031733 0.139529 0)
(-0.0407983 0.146743 0)
(-0.0492311 0.150731 0)
(-0.0569956 0.153003 0)
(-0.0641928 0.154531 0)
(-0.0709942 0.155807 0)
(-0.077603 0.15689 0)
(-0.0842342 0.157438 0)
(-0.0911036 0.15673 0)
(-0.098422 0.153687 0)
(-0.106393 0.146941 0)
(-0.115213 0.134944 0)
(-0.125062 0.116141 0)
(-0.136093 0.0891638 0)
(-0.148402 0.0530244 0)
(-0.162035 0.00723716 0)
(-0.176594 -0.048239 0)
(-0.191154 -0.1125 0)
(-0.204156 -0.183755 0)
(-0.212679 -0.258321 0)
(-0.212331 -0.329091 0)
(-0.197638 -0.383504 0)
(-0.163699 -0.402325 0)
(-0.109595 -0.362717 0)
(-0.0455974 -0.2513 0)
(-0.00663499 -0.0861548 0)
(-0.000912013 0.0329806 0)
(-0.00584227 0.0819905 0)
(-0.0146998 0.11536 0)
(-0.0243807 0.136381 0)
(-0.0336703 0.148583 0)
(-0.0419918 0.155037 0)
(-0.0491142 0.158132 0)
(-0.0550445 0.159557 0)
(-0.0599137 0.160379 0)
(-0.063906 0.161136 0)
(-0.0672282 0.161907 0)
(-0.0701013 0.162363 0)
(-0.0727651 0.161791 0)
(-0.0754892 0.159132 0)
(-0.0785845 0.153041 0)
(-0.0824115 0.141998 0)
(-0.087383 0.124469 0)
(-0.0939538 0.0990825 0)
(-0.102577 0.0647472 0)
(-0.113659 0.0207932 0)
(-0.12732 -0.0330026 0)
(-0.143219 -0.0966256 0)
(-0.160315 -0.169318 0)
(-0.176245 -0.248943 0)
(-0.186783 -0.330182 0)
(-0.185633 -0.401581 0)
(-0.165295 -0.442156 0)
(-0.120098 -0.421085 0)
(-0.0553948 -0.309316 0)
(-0.00944363 -0.112859 0)
(-0.00122987 0.0364151 0)
(-0.00725486 0.0898182 0)
(-0.0174305 0.124954 0)
(-0.0277603 0.145943 0)
(-0.0368604 0.157134 0)
(-0.0441993 0.16217 0)
(-0.0496454 0.163775 0)
(-0.053299 0.163809 0)
(-0.055355 0.163412 0)
(-0.056032 0.16315 0)
(-0.0555542 0.163119 0)
(-0.0541581 0.163009 0)
(-0.0521146 0.162145 0)
(-0.0497538 0.159523 0)
(-0.0474884 0.153874 0)
(-0.0458288 0.143765 0)
(-0.0453811 0.127739 0)
(-0.0468703 0.1045 0)
(-0.051036 0.0728917 0)
(-0.0585904 0.0321668 0)
(-0.0701002 -0.0182523 0)
(-0.0857247 -0.0788701 0)
(-0.105044 -0.149895 0)
(-0.126537 -0.230818 0)
(-0.146767 -0.318666 0)
(-0.159561 -0.404518 0)
(-0.155732 -0.46802 0)
(-0.124868 -0.472484 0)
(-0.065413 -0.370843 0)
(-0.0133789 -0.145807 0)
(-0.00184728 0.0408985 0)
(-0.00968006 0.0992915 0)
(-0.0218239 0.135714 0)
(-0.0330128 0.155764 0)
(-0.0417622 0.165002 0)
(-0.047728 0.167795 0)
(-0.0509916 0.167221 0)
(-0.0518246 0.165277 0)
(-0.0505342 0.163141 0)
(-0.047404 0.161376 0)
(-0.0426954 0.160082 0)
(-0.0366723 0.15897 0)
(-0.0296406 0.157424 0)
(-0.0219867 0.15453 0)
(-0.0142093 0.149136 0)
(-0.00693568 0.139938 0)
(-0.000895991 0.125599 0)
(0.00294704 0.104869 0)
(0.00365386 0.0766694 0)
(0.000300354 0.0401206 0)
(-0.00806206 -0.00554983 0)
(-0.0219399 -0.0611454 0)
(-0.0415191 -0.127703 0)
(-0.0662501 -0.206095 0)
(-0.0939587 -0.295804 0)
(-0.119591 -0.391507 0)
(-0.133634 -0.476156 0)
(-0.121765 -0.511001 0)
(-0.0746428 -0.431643 0)
(-0.0187281 -0.185681 0)
(-0.00305884 0.0472459 0)
(-0.013821 0.111318 0)
(-0.0286974 0.148075 0)
(-0.0407694 0.165787 0)
(-0.0486766 0.171801 0)
(-0.0525254 0.171354 0)
(-0.0527862 0.167853 0)
(-0.0500061 0.163363 0)
(-0.0446651 0.159024 0)
(-0.0371474 0.155358 0)
(-0.0277725 0.152441 0)
(-0.0168368 0.149998 0)
(-0.00467637 0.147488 0)
(0.00828373 0.144097 0)
(0.0214973 0.138815 0)
(0.0342639 0.130501 0)
(0.0457354 0.117958 0)
(0.0548871 0.100005 0)
(0.0606273 0.0756711 0)
(0.0618476 0.0439799 0)
(0.057483 0.00406844 0)
(0.0466217 -0.0450792 0)
(0.028501 -0.104961 0)
(0.00283798 -0.177388 0)
(-0.0296774 -0.263918 0)
(-0.065954 -0.363272 0)
(-0.0977988 -0.464156 0)
(-0.10848 -0.530874 0)
(-0.0813114 -0.485939 0)
(-0.0254818 -0.23273 0)
(-0.00546339 0.0569389 0)
(-0.0208655 0.127127 0)
(-0.0390647 0.162308 0)
(-0.0513928 0.175536 0)
(-0.0571645 0.176646 0)
(-0.0573839 0.171817 0)
(-0.0531583 0.164656 0)
(-0.0454371 0.157149 0)
(-0.0349371 0.1503 0)
(-0.0221728 0.144512 0)
(-0.00753586 0.139801 0)
(0.00865771 0.135898 0)
(0.026063 0.132306 0)
(0.0442458 0.128326 0)
(0.0626683 0.123097 0)
(0.0806264 0.11564 0)
(0.0972475 0.104924 0)
(0.111497 0.0899158 0)
(0.12223 0.0696762 0)
(0.12824 0.0432782 0)
(0.128311 0.0097964 0)
(0.121254 -0.0319469 0)
(0.105896 -0.0835184 0)
(0.0811786 -0.147151 0)
(0.0463854 -0.225751 0)
(0.00218343 -0.321682 0)
(-0.0462837 -0.430956 0)
(-0.081861 -0.526562 0)
(-0.082396 -0.5262 0)
(-0.0328164 -0.286231 0)
(-0.0102352 0.0727754 0)
(-0.0326876 0.148135 0)
(-0.0536187 0.177952 0)
(-0.063738 0.183454 0)
(-0.0642574 0.177553 0)
(-0.0577641 0.167171 0)
(-0.0463065 0.155793 0)
(-0.031354 0.145079 0)
(-0.0138928 0.13573 0)
(0.00544176 0.127935 0)
(0.0262273 0.121587 0)
(0.0481525 0.116387 0)
(0.070918 0.111858 0)
(0.0941625 0.107406 0)
(0.117418 0.102312 0)
(0.140058 0.0957659 0)
(0.161281 0.086907 0)
(0.180114 0.0748638 0)
(0.195433 0.0587891 0)
(0.205998 0.0378377 0)
(0.210459 0.0111167 0)
(0.20741 -0.0225123 0)
(0.195319 -0.064526 0)
(0.172498 -0.117129 0)
(0.137118 -0.183707 0)
(0.0876332 -0.26916 0)
(0.0248078 -0.376904 0)
(-0.0366309 -0.492925 0)
(-0.0731222 -0.543155 0)
(-0.0384914 -0.344234 0)
(-0.0194286 0.0997465 0)
(-0.0514646 0.174673 0)
(-0.0700309 0.192216 0)
(-0.0707428 0.185446 0)
(-0.0591381 0.170286 0)
(-0.0401562 0.15361 0)
(-0.0169348 0.138095 0)
(0.00862084 0.124662 0)
(0.0354071 0.113474 0)
(0.0628267 0.104377 0)
(0.090567 0.0970721 0)
(0.118453 0.0911765 0)
(0.146341 0.0862335 0)
(0.174033 0.081725 0)
(0.201223 0.0770666 0)
(0.227449 0.0716187 0)
(0.252062 0.064705 0)
(0.27422 0.055633 0)
(0.292888 0.0437082 0)
(0.306865 0.0282251 0)
(0.314695 0.00843795 0)
(0.31482 -0.0165937 0)
(0.305408 -0.0480787 0)
(0.284271 -0.0879142 0)
(0.248732 -0.139212 0)
(0.195646 -0.207811 0)
(0.12209 -0.30293 0)
(0.0364227 -0.426797 0)
(-0.0460146 -0.527107 0)
(-0.0377916 -0.401803 0)
(-0.034711 0.143761 0)
(-0.0739288 0.199468 0)
(-0.0701746 0.193899 0)
(-0.0447802 0.170538 0)
(-0.00914192 0.145729 0)
(0.0301813 0.124142 0)
(0.0699244 0.106491 0)
(0.108616 0.0923999 0)
(0.145685 0.08128 0)
(0.181037 0.0725642 0)
(0.214792 0.0657477 0)
(0.24714 0.0603745 0)
(0.278247 0.0560112 0)
(0.308186 0.0522284 0)
(0.336896 0.0485851 0)
(0.364137 0.0446241 0)
(0.389463 0.039875 0)
(0.412208 0.033861 0)
(0.431483 0.0261013 0)
(0.446197 0.0160972 0)
(0.454897 0.00327821 0)
(0.456033 -0.012855 0)
(0.447547 -0.0331526 0)
(0.42697 -0.0590112 0)
(0.391049 -0.0927718 0)
(0.335933 -0.139575 0)
(0.255341 -0.210652 0)
(0.15132 -0.325221 0)
(0.0143859 -0.465974 0)
(-0.0174049 -0.441536 0)
(-0.0375808 0.235918 0)
(-0.0478359 0.203516 0)
(0.0273142 0.152953 0)
(0.0991258 0.117136 0)
(0.166112 0.0905643 0)
(0.226268 0.0710724 0)
(0.279295 0.0570284 0)
(0.325936 0.0468665 0)
(0.36722 0.0394145 0)
(0.404144 0.0338894 0)
(0.437571 0.0297564 0)
(0.468204 0.0266201 0)
(0.49658 0.0241615 0)
(0.523056 0.0221039 0)
(0.5478 0.0201911 0)
(0.570776 0.0181756 0)
(0.591732 0.0158149 0)
(0.61019 0.0128726 0)
(0.625441 0.00912224 0)
(0.636511 0.0043466 0)
(0.642284 -0.00167601 0)
(0.641433 -0.0092132 0)
(0.631898 -0.0187182 0)
(0.611475 -0.0308271 0)
(0.576705 -0.0467305 0)
(0.523933 -0.0697283 0)
(0.44339 -0.107975 0)
(0.333748 -0.188478 0)
(0.143288 -0.336044 0)
(0.0605633 -0.41285 0)
(0.231281 0.158597 0)
(0.291354 0.117057 0)
(0.440714 0.0758588 0)
(0.539388 0.0505274 0)
(0.606249 0.0342083 0)
(0.655612 0.0234728 0)
(0.693631 0.0165096 0)
(0.723658 0.0120121 0)
(0.748029 0.00907385 0)
(0.768392 0.00712443 0)
(0.785872 0.00581181 0)
(0.801237 0.00490993 0)
(0.815007 0.00426433 0)
(0.827506 0.00376196 0)
(0.838893 0.00331349 0)
(0.849171 0.00284302 0)
(0.858201 0.00228327 0)
(0.865702 0.00157277 0)
(0.871263 0.000661956 0)
(0.874359 -0.000493772 0)
(0.874304 -0.00185966 0)
(0.870265 -0.00357693 0)
(0.861201 -0.00577495 0)
(0.846084 -0.0085588 0)
(0.822491 -0.0121548 0)
(0.788711 -0.017585 0)
(0.73312 -0.0270199 0)
(0.655994 -0.0490056 0)
(0.454141 -0.110041 0)
(0.313178 -0.177476 0)
)
;

boundaryField
{
    movingWall
    {
        type            fixedValue;
        value           uniform (1 0 0);
    }
    fixedWalls
    {
        type            noSlip;
    }
    frontAndBack
    {
        type            empty;
    }
}


// ************************************************************************* //
