/*--------------------------------*- C++ -*----------------------------------*\
  =========                 |
  \\      /  F ield         | OpenFOAM: The Open Source CFD Toolbox
   \\    /   O peration     | Website:  https://openfoam.org
    \\  /    A nd           | Version:  7
     \\/     M anipulation  |
\*---------------------------------------------------------------------------*/
FoamFile
{
    version     2.0;
    format      ascii;
    class       volScalarField;
    location    "3.7";
    object      p;
}
// * * * * * * * * * * * * * * * * * * * * * * * * * * * * * * * * * * * * * //

dimensions      [0 2 -2 0 0 0 0];

internalField   nonuniform List<scalar> 
900
(
-2.82054e-09
-0.000114451
-0.000236541
-0.000331642
-0.000372973
-0.000347184
-0.000250346
-8.30278e-05
0.000152461
0.000453243
0.000816178
0.00123768
0.00171328
0.00223709
0.00280134
0.00339589
0.00400801
0.00462236
0.0052212
0.00578506
0.00629374
0.00672775
0.00707009
0.00730831
0.00743673
0.00745854
0.00738831
0.00725469
0.007098
0.00697611
0.000113046
-2.83722e-06
-8.70849e-05
-0.000141454
-0.000151666
-0.000106897
-2.80105e-06
0.00016176
0.000386398
0.000669785
0.00100983
0.00140356
0.00184686
0.00233411
0.00285781
0.0034083
0.00397357
0.00453952
0.00508994
0.00560739
0.00607418
0.00647367
0.00679197
0.00701973
0.00715381
0.00719861
0.00716735
0.00708342
0.00697508
0.00685405
0.000238818
7.8431e-05
-7.8421e-06
-5.29818e-05
-5.3729e-05
-2.40321e-06
0.000103882
0.000265972
0.000483901
0.000757016
0.00108392
0.00146229
0.00188859
0.00235769
0.00286257
0.00339402
0.00394067
0.00448863
0.00502222
0.00552446
0.00597806
0.00636689
0.00667755
0.00690119
0.00703502
0.00708323
0.00705784
0.00697972
0.00686651
0.00669899
0.000339954
0.000127086
2.61551e-05
-2.13786e-05
-2.11041e-05
3.14741e-05
0.000137253
0.000296193
0.000508304
0.000773368
0.00109064
0.00145851
0.00187419
0.00233323
0.00282924
0.0033535
0.00389488
0.00443967
0.00497204
0.00547459
0.00592943
0.00631966
0.00663112
0.00685432
0.00698595
0.00702963
0.00699662
0.00690684
0.00677174
0.00655111
0.000384342
0.000122405
3.97692e-06
-5.06571e-05
-5.37113e-05
-3.16376e-06
0.000100082
0.000255093
0.000461786
0.000720337
0.00103066
0.00139198
0.00180231
0.00225804
0.00275345
0.00328034
0.00382776
0.00438185
0.00492617
0.00544221
0.0059106
0.00631267
0.00663255
0.00685927
0.00698855
0.00702353
0.00697556
0.00686534
0.00670216
0.00643113
0.000350573
4.52534e-05
-9.11683e-05
-0.000155407
-0.000164556
-0.000118359
-1.91387e-05
0.000131462
0.000333337
0.000587099
0.000893389
0.00125231
0.00166286
0.00212235
0.00262584
0.00316565
0.00373096
0.00430752
0.00487777
0.00542145
0.00591679
0.00634236
0.00667948
0.00691487
0.00704285
0.00706629
0.00699764
0.00686032
0.00666474
0.00634696
0.000225387
-0.000117958
-0.000271838
-0.000346778
-0.000363545
-0.000323126
-0.000228892
-8.296e-05
0.00011468
0.000365176
0.000670005
0.00103029
0.00144614
0.00191596
0.00243577
0.0029985
0.00359347
0.00420587
0.00481664
0.00540311
0.00594017
0.00640246
0.00676728
0.007018
0.00714695
0.00715692
0.00706253
0.00689183
0.00665919
0.00629564
-1.74652e-07
-0.000377783
-0.000548434
-0.000634486
-0.000659692
-0.000625948
-0.000537402
-0.00039644
-0.000202782
4.53944e-05
0.000350545
0.000714996
0.00114018
0.00162586
0.00216925
0.00276415
0.00340014
0.00406191
0.0047286
0.00537452
0.00597022
0.00648502
0.00689065
0.00716565
0.00729942
0.00729464
0.0071691
0.00695759
0.00668103
0.00626772
-0.000333124
-0.000743206
-0.000930352
-0.00102786
-0.00106215
-0.0010359
-0.000953873
-0.000818591
-0.000629381
-0.000383601
-7.76434e-05
0.000292246
0.00072912
0.00123443
0.00180704
0.00244204
0.00312961
0.00385427
0.00459328
0.00531741
0.00599182
0.00657887
0.00704261
0.00735459
0.00749964
0.00747969
0.00731664
0.00705438
0.00672318
0.00624944
-0.000779828
-0.00122243
-0.00142641
-0.00153596
-0.0015802
-0.00156254
-0.00148837
-0.0013603
-0.00117719
-0.000935454
-0.000630155
-0.000255854
0.000192481
0.000718484
0.00132324
0.00200382
0.0027516
0.00355196
0.00438028
0.00520369
0.00598098
0.0066656
0.00721114
0.00757892
0.00774628
0.00771283
0.00750497
0.00717852
0.00677652
0.00622295
-0.00134678
-0.00182351
-0.0020453
-0.00216789
-0.00222333
-0.00221592
-0.00215176
-0.00203364
-0.00185993
-0.00162605
-0.00132557
-0.000951116
-0.000495277
4.83387e-05
0.000683832
0.00141117
0.00222391
0.00311042
0.00404434
0.00498975
0.0058986
0.00671344
0.00737379
0.007826
0.00803497
0.00799444
0.00773469
0.00732663
0.00683044
0.00616564
-0.00204103
-0.00255478
-0.00279595
-0.00293301
-0.00300138
-0.00300654
-0.00295558
-0.00285161
-0.00269266
-0.00247317
-0.00218514
-0.00181906
-0.00136478
-0.00081255
-0.000154352
0.000614261
0.00149166
0.0024672
0.00351885
0.00460837
0.00568118
0.00666748
0.00748861
0.0080692
0.00835366
0.00832273
0.0080074
0.00749672
0.00687374
0.00604944
-0.00287042
-0.00342525
-0.00368787
-0.00384117
-0.0039246
-0.00394528
-0.00391171
-0.0038277
-0.00369114
-0.00349567
-0.00323184
-0.00288797
-0.00245097
-0.00190723
-0.00124392
-0.00045062
0.00047788
0.00153533
0.00270756
0.00395744
0.00522681
0.00643398
0.00747841
0.00825434
0.00867298
0.00868876
0.00832486
0.00768975
0.00689643
0.00584071
-0.00384376
-0.0044449
-0.0047314
-0.00490283
-0.00500357
-0.00504304
-0.00503182
-0.00497493
-0.0048706
-0.00471204
-0.00448871
-0.00418703
-0.0037911
-0.00328333
-0.00264547
-0.00185999
-0.000913083
0.000199612
0.00147598
0.00288621
0.00437599
0.00585659
0.00720482
0.00827509
0.00892688
0.00906476
0.00868492
0.0079108
0.0068928
0.00550179
-0.004971
-0.00562511
-0.00593812
-0.00612926
-0.00624911
-0.00631035
-0.00632655
-0.00630472
-0.00624411
-0.00613821
-0.00597607
-0.00574298
-0.00542095
-0.004989
-0.00442362
-0.00369964
-0.00279203
-0.00168009
-0.000354018
0.00118226
0.00288973
0.0046854
0.00643035
0.00793295
0.00897714
0.00937919
0.00906965
0.00816803
0.00686565
0.00499445
-0.00626363
-0.0069793
-0.00732136
-0.00753278
-0.00767214
-0.00775674
-0.00780439
-0.00782516
-0.0078203
-0.00778454
-0.00770769
-0.00757527
-0.00736878
-0.00706553
-0.00663843
-0.0060557
-0.0052808
-0.00427422
-0.00300215
-0.00143194
0.000435204
0.00254831
0.0047751
0.00688355
0.00855849
0.00947216
0.00941905
0.00846575
0.0068316
0.00428659
-0.00773548
-0.00852406
-0.00889713
-0.00912725
-0.0092836
-0.00939007
-0.0094704
-0.00953908
-0.00960051
-0.009652
-0.00968568
-0.00968932
-0.00964647
-0.00953592
-0.00933054
-0.00899553
-0.0084859
-0.00774373
-0.00669844
-0.00527385
-0.00339809
-0.00104833
0.00169546
0.0045918
0.00721742
0.00903388
0.0095871
0.00878807
0.00682784
0.00336518
-0.00940419
-0.0102811
-0.0106856
-0.0109288
-0.0110945
-0.0112158
-0.0113247
-0.0114417
-0.0115756
-0.0117278
-0.0118946
-0.0120685
-0.0122386
-0.0123898
-0.0125006
-0.01254
-0.0124613
-0.0121932
-0.0116299
-0.0106268
-0.00901627
-0.00664177
-0.00345781
0.000354313
0.00429308
0.00755611
0.00929271
0.00907512
0.00692362
0.00226354
-0.0112939
-0.0122803
-0.0127137
-0.0129573
-0.0131159
-0.0132361
-0.0133608
-0.0135182
-0.0137227
-0.013981
-0.0142954
-0.0146659
-0.015091
-0.0155671
-0.0160861
-0.0166297
-0.01716
-0.0176026
-0.0178224
-0.0175989
-0.0166406
-0.0146065
-0.0112292
-0.00651941
-0.000964652
0.00437511
0.00811126
0.00921184
0.00724483
0.00112106
-0.0134399
-0.0145653
-0.0150184
-0.0152378
-0.0153592
-0.0154488
-0.0155637
-0.0157412
-0.0160021
-0.0163589
-0.0168211
-0.0173985
-0.0181025
-0.0189462
-0.0199421
-0.021095
-0.0223879
-0.0237565
-0.0250506
-0.0259829
-0.0260919
-0.0248606
-0.021699
-0.0163212
-0.00904863
-0.00108449
0.00559916
0.00908239
0.00802823
0.000301215
-0.0158974
-0.0172019
-0.017653
-0.0178028
-0.0178357
-0.0178455
-0.0179074
-0.0180683
-0.0183549
-0.018785
-0.0193754
-0.0201465
-0.0211247
-0.0223433
-0.0238407
-0.0256518
-0.0277899
-0.0302121
-0.0327648
-0.035108
-0.0366437
-0.0366315
-0.0341457
-0.0285041
-0.019694
-0.00884132
0.00163458
0.0087598
0.0097288
0.000594177
-0.0187573
-0.0202927
-0.0206941
-0.0206941
-0.0205545
-0.0204081
-0.0203511
-0.0204388
-0.0207013
-0.0211595
-0.0218359
-0.0227605
-0.0239743
-0.0255315
-0.0274971
-0.0299377
-0.0328991
-0.0363629
-0.0401782
-0.0439769
-0.0470911
-0.0484515
-0.0469387
-0.0414377
-0.0314796
-0.0178549
-0.00309911
0.008854
0.0132107
0.00350396
-0.0221795
-0.0240007
-0.0242521
-0.0239621
-0.023517
-0.0231015
-0.0228324
-0.0227689
-0.0229387
-0.0233615
-0.0240616
-0.0250757
-0.026457
-0.0282771
-0.0306237
-0.0335892
-0.0372446
-0.0415881
-0.0464672
-0.0514798
-0.0558783
-0.0584941
-0.0579114
-0.0526904
-0.0419051
-0.0258411
-0.00674146
0.0109001
0.0200439
0.0115601
-0.0264622
-0.0285884
-0.0284808
-0.0276586
-0.0267029
-0.0258588
-0.0252548
-0.0249421
-0.0249367
-0.0252494
-0.0259009
-0.0269299
-0.0283964
-0.0303836
-0.0329931
-0.0363316
-0.0404792
-0.0454334
-0.0510246
-0.0568103
-0.0619762
-0.0652847
-0.0651253
-0.0598364
-0.0481238
-0.0297461
-0.00637105
0.017544
0.032865
0.0285205
-0.0321977
-0.0344763
-0.033577
-0.0318124
-0.0300408
-0.028554
-0.0274639
-0.0267913
-0.0265249
-0.026656
-0.0271942
-0.0281732
-0.0296532
-0.0317203
-0.0344789
-0.0380338
-0.042455
-0.0477168
-0.0536104
-0.0596351
-0.0649025
-0.0681062
-0.0674958
-0.0612846
-0.0479541
-0.0267457
0.00125327
0.032301
0.0555658
0.0592462
-0.0406416
-0.0423233
-0.0397343
-0.0363596
-0.0333405
-0.0309408
-0.0291952
-0.0280559
-0.0274602
-0.0273648
-0.0277575
-0.028658
-0.0301183
-0.0322171
-0.0350483
-0.0386987
-0.0432072
-0.0485012
-0.0543086
-0.0600518
-0.0647565
-0.0670244
-0.0649853
-0.0567083
-0.040434
-0.0151935
0.018604
0.0585934
0.0926544
0.109215
-0.0548088
-0.0531481
-0.0470168
-0.0409996
-0.0361614
-0.0325415
-0.0299847
-0.0283157
-0.0273827
-0.0270828
-0.0273664
-0.0282281
-0.0297005
-0.0318438
-0.0347289
-0.0384092
-0.0428754
-0.0479894
-0.0533973
-0.0584303
-0.0620167
-0.0626355
-0.0583125
-0.0468662
-0.0262763
0.00483769
0.0466075
0.0979187
0.147118
0.185659
-0.082415
-0.068046
-0.0552795
-0.0451005
-0.0377183
-0.0326118
-0.029197
-0.0270674
-0.0259192
-0.0255553
-0.0258672
-0.0268128
-0.028398
-0.0306577
-0.0336326
-0.0373346
-0.041698
-0.0465113
-0.0513316
-0.055389
-0.0575184
-0.0560912
-0.0490509
-0.033849
-0.00802369
0.0305806
0.0830904
0.14973
0.22032
0.302932
-0.134776
-0.0832862
-0.0621772
-0.0461622
-0.0357608
-0.0293998
-0.0256079
-0.0234924
-0.022537
-0.022445
-0.0230553
-0.0242961
-0.0261534
-0.0286436
-0.0317833
-0.035551
-0.0398371
-0.0443771
-0.0486701
-0.0518801
-0.0527497
-0.049526
-0.0402032
-0.0219299
0.00842204
0.0544257
0.119501
0.208489
0.317448
0.487858
-0.306991
-0.0927871
-0.0445669
-0.0272432
-0.0183016
-0.0142066
-0.0129306
-0.0130463
-0.013884
-0.0152025
-0.0169261
-0.0190474
-0.0215979
-0.0246237
-0.0281583
-0.0321866
-0.0365977
-0.0411234
-0.0452667
-0.0482236
-0.0488278
-0.0454843
-0.0358056
-0.0170815
0.0140065
0.062469
0.135338
0.250263
0.426175
0.770539
)
;

boundaryField
{
    movingWall
    {
        type            zeroGradient;
    }
    fixedWalls
    {
        type            zeroGradient;
    }
    frontAndBack
    {
        type            empty;
    }
}


// ************************************************************************* //
