/*--------------------------------*- C++ -*----------------------------------*\
  =========                 |
  \\      /  F ield         | OpenFOAM: The Open Source CFD Toolbox
   \\    /   O peration     | Website:  https://openfoam.org
    \\  /    A nd           | Version:  7
     \\/     M anipulation  |
\*---------------------------------------------------------------------------*/
FoamFile
{
    version     2.0;
    format      ascii;
    class       volVectorField;
    location    "3.7";
    object      U;
}
// * * * * * * * * * * * * * * * * * * * * * * * * * * * * * * * * * * * * * //

dimensions      [0 1 -1 0 0 0 0];

internalField   nonuniform List<vector> 
900
(
(5.94968e-05 -5.87891e-05 0)
(2.59562e-05 1.27756e-05 0)
(-0.000272777 9.57305e-05 0)
(-0.000766756 0.000154716 0)
(-0.00139545 0.000189218 0)
(-0.00210189 0.000205031 0)
(-0.00284014 0.000208439 0)
(-0.0035773 0.000204152 0)
(-0.00429037 0.000194997 0)
(-0.00496248 0.000182332 0)
(-0.00557981 0.000166533 0)
(-0.00612949 0.000147395 0)
(-0.0065984 0.000124445 0)
(-0.00697263 9.7167e-05 0)
(-0.00723761 6.51803e-05 0)
(-0.00737865 2.83851e-05 0)
(-0.007382 -1.28995e-05 0)
(-0.0072362 -5.78849e-05 0)
(-0.00693383 -0.000105087 0)
(-0.00647351 -0.000152327 0)
(-0.00586196 -0.000196712 0)
(-0.00511597 -0.0002347 0)
(-0.00426394 -0.000262249 0)
(-0.00334677 -0.000275042 0)
(-0.00241773 -0.00026869 0)
(-0.00154123 -0.000239006 0)
(-0.000789342 -0.000182814 0)
(-0.000232726 -0.000100406 0)
(6.69157e-05 -1.85645e-06 0)
(7.26991e-05 7.15846e-05 0)
(-1.10533e-05 -2.73157e-05 0)
(-0.000362348 0.000360612 0)
(-0.00126863 0.000759273 0)
(-0.00257076 0.00106081 0)
(-0.00415755 0.00125404 0)
(-0.00591953 0.00135411 0)
(-0.00775859 0.00138291 0)
(-0.00959717 0.00135998 0)
(-0.0113761 0.00129921 0)
(-0.0130491 0.00120889 0)
(-0.0145778 0.00109291 0)
(-0.0159275 0.000952191 0)
(-0.0170647 0.000786086 0)
(-0.017956 0.000593574 0)
(-0.0185678 0.000374229 0)
(-0.0188681 0.000129055 0)
(-0.0188281 -0.000138848 0)
(-0.0184254 -0.000423387 0)
(-0.0176478 -0.000715204 0)
(-0.016497 -0.00100128 0)
(-0.0149935 -0.00126496 0)
(-0.0131802 -0.00148646 0)
(-0.0111252 -0.0016439 0)
(-0.00892312 -0.00171491 0)
(-0.00669351 -0.00167873 0)
(-0.00457614 -0.00151911 0)
(-0.00272097 -0.00122921 0)
(-0.00126683 -0.000820704 0)
(-0.0003219 -0.000341055 0)
(5.97205e-06 6.77772e-05 0)
(-9.82486e-05 0.000273984 0)
(-0.000791079 0.00127409 0)
(-0.00227936 0.00221178 0)
(-0.00428471 0.00292927 0)
(-0.0066562 0.00340188 0)
(-0.00925406 0.00365432 0)
(-0.0119487 0.00372858 0)
(-0.014634 0.00366575 0)
(-0.0172259 0.00349773 0)
(-0.0196568 0.00324541 0)
(-0.0218697 0.00292012 0)
(-0.0238135 0.00252635 0)
(-0.0254399 0.00206479 0)
(-0.0267016 0.00153505 0)
(-0.0275524 0.000938083 0)
(-0.0279492 0.000278233 0)
(-0.027854 -0.000434923 0)
(-0.0272382 -0.00118478 0)
(-0.0260879 -0.00194677 0)
(-0.0244086 -0.00268754 0)
(-0.0222318 -0.00336519 0)
(-0.0196192 -0.00393063 0)
(-0.0166667 -0.00433051 0)
(-0.0135052 -0.00451158 0)
(-0.0102974 -0.00442679 0)
(-0.00723082 -0.00404331 0)
(-0.00450278 -0.00335404 0)
(-0.00229157 -0.00239405 0)
(-0.000743993 -0.00126464 0)
(-7.64957e-05 -0.000204437 0)
(-0.000168716 0.000797768 0)
(-0.00116238 0.00264397 0)
(-0.0031712 0.00425352 0)
(-0.0057875 0.00546697 0)
(-0.008818 0.00626476 0)
(-0.0120983 0.00668887 0)
(-0.0154772 0.00680511 0)
(-0.01883 0.00667869 0)
(-0.0220567 0.00636178 0)
(-0.0250756 0.00588994 0)
(-0.0278171 0.00528371 0)
(-0.0302187 0.00455257 0)
(-0.0322216 0.00369963 0)
(-0.0337684 0.00272616 0)
(-0.0348039 0.00163556 0)
(-0.0352763 0.000437029 0)
(-0.0351403 -0.000851238 0)
(-0.0343623 -0.00219942 0)
(-0.0329255 -0.00356374 0)
(-0.0308372 -0.00488544 0)
(-0.0281355 -0.00609125 0)
(-0.0248952 -0.00709602 0)
(-0.0212323 -0.00780801 0)
(-0.0173044 -0.0081371 0)
(-0.0133067 -0.0080057 0)
(-0.00946286 -0.00736273 0)
(-0.00600736 -0.00620093 0)
(-0.0031523 -0.00457812 0)
(-0.00108617 -0.00264238 0)
(-0.000136903 -0.000689221 0)
(-0.000221111 0.00150499 0)
(-0.00146424 0.00440987 0)
(-0.00392045 0.00680742 0)
(-0.00706153 0.00857634 0)
(-0.0106514 0.00972505 0)
(-0.0145021 0.0103247 0)
(-0.0184448 0.0104708 0)
(-0.0223419 0.0102556 0)
(-0.0260835 0.00975339 0)
(-0.0295792 0.00901546 0)
(-0.0327517 0.00807244 0)
(-0.035531 0.00693938 0)
(-0.0378507 0.00562221 0)
(-0.0396461 0.00412412 0)
(-0.040854 0.0024513 0)
(-0.0414144 0.000618288 0)
(-0.0412741 -0.0013473 0)
(-0.0403918 -0.00340058 0)
(-0.0387453 -0.00547587 0)
(-0.0363388 -0.00748509 0)
(-0.0332124 -0.00931845 0)
(-0.0294489 -0.0108485 0)
(-0.02518 -0.0119387 0)
(-0.0205866 -0.0124559 0)
(-0.0158942 -0.0122872 0)
(-0.0113622 -0.0113606 0)
(-0.00726324 -0.00966678 0)
(-0.00384616 -0.00728311 0)
(-0.00134183 -0.00439462 0)
(-0.000173798 -0.0013314 0)
(-0.000259659 0.00235826 0)
(-0.00170691 0.00651103 0)
(-0.00454351 0.00980578 0)
(-0.00813657 0.012185 0)
(-0.0122094 0.0137052 0)
(-0.0165506 0.01448 0)
(-0.020976 0.0146421 0)
(-0.0253383 0.0143151 0)
(-0.0295213 0.0135973 0)
(-0.03343 0.012557 0)
(-0.0369826 0.011235 0)
(-0.0401049 0.00965197 0)
(-0.0427252 0.00781603 0)
(-0.0447722 0.00573156 0)
(-0.0461749 0.00340673 0)
(-0.046864 0.000860641 0)
(-0.0467755 -0.00186994 0)
(-0.0458564 -0.00472452 0)
(-0.0440733 -0.00761368 0)
(-0.041422 -0.0104164 0)
(-0.0379382 -0.0129809 0)
(-0.0337083 -0.01513 0)
(-0.0288766 -0.0166736 0)
(-0.023648 -0.0174269 0)
(-0.0182823 -0.0172347 0)
(-0.0130814 -0.0159989 0)
(-0.00836454 -0.0137062 0)
(-0.00442448 -0.0104523 0)
(-0.00153463 -0.00645785 0)
(-0.000193802 -0.00208719 0)
(-0.000289349 0.00332821 0)
(-0.00190764 0.00889385 0)
(-0.0050733 0.0131866 0)
(-0.00906416 0.0162285 0)
(-0.0135662 0.0181404 0)
(-0.0183458 0.0190905 0)
(-0.0232044 0.0192572 0)
(-0.0279871 0.0188004 0)
(-0.0325742 0.0178452 0)
(-0.0368687 0.0164777 0)
(-0.0407875 0.0147491 0)
(-0.0442539 0.0126844 0)
(-0.0471926 0.0102928 0)
(-0.0495264 0.00757793 0)
(-0.0511757 0.00454782 0)
(-0.0520594 0.00122392 0)
(-0.0520987 -0.00234968 0)
(-0.0512234 -0.00609778 0)
(-0.0493819 -0.00990631 0)
(-0.0465532 -0.0136179 0)
(-0.0427612 -0.0170322 0)
(-0.0380895 -0.0199128 0)
(-0.0326931 -0.022004 0)
(-0.026803 -0.0230565 0)
(-0.0207213 -0.0228612 0)
(-0.0148052 -0.0212866 0)
(-0.00943485 -0.0183137 0)
(-0.00495884 -0.0140611 0)
(-0.00169573 -0.00879375 0)
(-0.000203974 -0.00292768 0)
(-0.000314317 0.00439619 0)
(-0.00208366 0.0115217 0)
(-0.00554597 0.0169068 0)
(-0.00990087 0.0206631 0)
(-0.0148002 0.0229888 0)
(-0.0199894 0.0241178 0)
(-0.0252569 0.0242826 0)
(-0.0304419 0.023685 0)
(-0.035423 0.0224799 0)
(-0.0401039 0.0207722 0)
(-0.0444023 0.018623 0)
(-0.0482413 0.0160607 0)
(-0.0515431 0.0130931 0)
(-0.0542253 0.00972019 0)
(-0.0561984 0.005946 0)
(-0.0573673 0.00179051 0)
(-0.0576336 -0.00269858 0)
(-0.0569031 -0.00743413 0)
(-0.0550965 -0.0122778 0)
(-0.0521658 -0.017033 0)
(-0.0481123 -0.0214431 0)
(-0.0430079 -0.0252001 0)
(-0.0370134 -0.0279655 0)
(-0.0303882 -0.0294062 0)
(-0.0234875 -0.0292418 0)
(-0.0167417 -0.0272961 0)
(-0.0106141 -0.0235429 0)
(-0.00552785 -0.0181342 0)
(-0.00185557 -0.0114006 0)
(-0.000209496 -0.00384139 0)
(-0.000337538 0.00555293 0)
(-0.00224944 0.014375 0)
(-0.00599411 0.0209435 0)
(-0.0106987 0.0254666 0)
(-0.0159829 0.0282307 0)
(-0.0215724 0.0295463 0)
(-0.027244 0.0297084 0)
(-0.0328324 0.0289663 0)
(-0.0382168 0.0275081 0)
(-0.043304 0.0254588 0)
(-0.0480147 0.0228893 0)
(-0.0522743 0.0198291 0)
(-0.0560045 0.0162819 0)
(-0.0591184 0.0122398 0)
(-0.0615167 0.00769766 0)
(-0.0630876 0.00266799 0)
(-0.0637088 -0.002804 0)
(-0.063254 -0.00862465 0)
(-0.0616055 -0.0146339 0)
(-0.0586741 -0.0205944 0)
(-0.0544232 -0.0261855 0)
(-0.0488984 -0.0310114 0)
(-0.0422562 -0.034628 0)
(-0.0347836 -0.0365902 0)
(-0.0269003 -0.0365184 0)
(-0.0191342 -0.0341728 0)
(-0.012064 -0.0295178 0)
(-0.00621868 -0.0227558 0)
(-0.00204413 -0.0143173 0)
(-0.000213878 -0.00483271 0)
(-0.00036105 0.00679632 0)
(-0.0024162 0.0174491 0)
(-0.00644439 0.0252912 0)
(-0.0115007 0.0306347 0)
(-0.0171733 0.0338643 0)
(-0.0231687 0.0353776 0)
(-0.0292532 0.0355409 0)
(-0.035259 0.0346574 0)
(-0.0410681 0.032952 0)
(-0.0465928 0.0305716 0)
(-0.0517605 0.0275961 0)
(-0.0565015 0.0240546 0)
(-0.0607401 0.0199428 0)
(-0.0643872 0.0152398 0)
(-0.0673348 0.00992449 0)
(-0.0694534 0.00399357 0)
(-0.0705936 -0.00251944 0)
(-0.0705887 -0.00952344 0)
(-0.0692695 -0.0168433 0)
(-0.066488 -0.0242024 0)
(-0.0621474 -0.0312094 0)
(-0.0562435 -0.037363 0)
(-0.0489087 -0.0420825 0)
(-0.0404492 -0.0447699 0)
(-0.0313579 -0.0449038 0)
(-0.0222912 -0.0421481 0)
(-0.0139903 -0.036449 0)
(-0.00713988 -0.0280825 0)
(-0.00229627 -0.01763 0)
(-0.000220119 -0.00592165 0)
(-0.000386224 0.00812954 0)
(-0.00259237 0.0207504 0)
(-0.00691757 0.0299586 0)
(-0.0123408 0.0361772 0)
(-0.0184172 0.0399006 0)
(-0.0248343 0.0416246 0)
(-0.0313487 0.0417964 0)
(-0.0377921 0.0407803 0)
(-0.0440522 0.038842 0)
(-0.0500502 0.0361523 0)
(-0.0557236 0.0328002 0)
(-0.0610126 0.0288126 0)
(-0.0658483 0.0241733 0)
(-0.0701439 0.0188423 0)
(-0.0737861 0.0127745 0)
(-0.0766299 0.00593935 0)
(-0.0784967 -0.00165453 0)
(-0.0791731 -0.0099306 0)
(-0.0784241 -0.018714 0)
(-0.076021 -0.0276962 0)
(-0.0717757 -0.0364131 0)
(-0.0655981 -0.0442396 0)
(-0.0575614 -0.0504203 0)
(-0.0479673 -0.0541474 0)
(-0.0373837 -0.0546906 0)
(-0.0266298 -0.0515601 0)
(-0.0166762 -0.0446604 0)
(-0.00844208 -0.0343681 0)
(-0.00266022 -0.0214875 0)
(-0.000232225 -0.00714777 0)
(-0.000414015 0.00955962 0)
(-0.00278437 0.0242947 0)
(-0.00742972 0.0349653 0)
(-0.0132448 0.0421146 0)
(-0.0197486 0.0463595 0)
(-0.0266086 0.0483069 0)
(-0.0335728 0.0484958 0)
(-0.0404745 0.0473592 0)
(-0.04721 0.0452093 0)
(-0.0537137 0.0422433 0)
(-0.0599384 0.0385599 0)
(-0.0658396 0.0341822 0)
(-0.0713622 0.029079 0)
(-0.0764288 0.0231853 0)
(-0.0809283 0.0164219 0)
(-0.0847055 0.00871769 0)
(-0.0875535 3.89639e-05 0)
(-0.0892102 -0.00957299 0)
(-0.0893633 -0.0199666 0)
(-0.087675 -0.0308201 0)
(-0.0838268 -0.0416036 0)
(-0.07759 -0.0515554 0)
(-0.0689218 -0.0597022 0)
(-0.058072 -0.0649494 0)
(-0.0456665 -0.066256 0)
(-0.0327205 -0.06288 0)
(-0.0205215 -0.0546289 0)
(-0.0103436 -0.0420025 0)
(-0.00320788 -0.0261284 0)
(-0.000256919 -0.00857935 0)
(-0.000445201 0.0110966 0)
(-0.00299765 0.0281048 0)
(-0.00799441 0.0403394 0)
(-0.0142337 0.0484749 0)
(-0.0211934 0.053266 0)
(-0.0285192 0.0554461 0)
(-0.035951 0.0556585 0)
(-0.0433256 0.0544146 0)
(-0.0505522 0.0520792 0)
(-0.057583 0.0488795 0)
(-0.0643919 0.0449259 0)
(-0.0709574 0.0402375 0)
(-0.0772469 0.0347657 0)
(-0.083203 0.0284146 0)
(-0.0887282 0.0210617 0)
(-0.093668 0.0125801 0)
(-0.097795 0.00287127 0)
(-0.100801 -0.00809169 0)
(-0.102287 -0.0202115 0)
(-0.10178 -0.0331886 0)
(-0.0987829 -0.0464523 0)
(-0.0928597 -0.0591039 0)
(-0.0837681 -0.0699103 0)
(-0.071625 -0.0773929 0)
(-0.0570641 -0.0800533 0)
(-0.0413118 -0.0767339 0)
(-0.0260754 -0.06703 0)
(-0.0131557 -0.0515647 0)
(-0.00404566 -0.0319211 0)
(-0.00030533 -0.0103285 0)
(-0.000480649 0.0127534 0)
(-0.00323795 0.0322098 0)
(-0.00862529 0.046116 0)
(-0.0153276 0.0552908 0)
(-0.0227743 0.0606465 0)
(-0.0305867 0.0630609 0)
(-0.0384966 0.0632972 0)
(-0.0463474 0.0619562 0)
(-0.0540647 0.059463 0)
(-0.0616238 0.0560797 0)
(-0.0690266 0.0519315 0)
(-0.0762829 0.0470354 0)
(-0.0833936 0.0413246 0)
(-0.0903346 0.0346692 0)
(-0.0970375 0.026894 0)
(-0.103366 0.0178002 0)
(-0.109089 0.00719701 0)
(-0.113862 -0.00504989 0)
(-0.117195 -0.0189433 0)
(-0.11846 -0.0342658 0)
(-0.116934 -0.0504561 0)
(-0.111895 -0.0665022 0)
(-0.10279 -0.0808808 0)
(-0.0894844 -0.0916207 0)
(-0.0725176 -0.096569 0)
(-0.0532967 -0.0938996 0)
(-0.0340406 -0.0827765 0)
(-0.0172994 -0.0638833 0)
(-0.0053237 -0.0394161 0)
(-0.000394484 -0.0125716 0)
(-0.000521619 0.0145461 0)
(-0.00351286 0.0366465 0)
(-0.00933943 0.0523372 0)
(-0.01655 0.0625994 0)
(-0.024516 0.0685263 0)
(-0.0328306 0.0711637 0)
(-0.0412177 0.0714128 0)
(-0.0495299 0.0699767 0)
(-0.0577132 0.0673497 0)
(-0.0657716 0.0638355 0)
(-0.0737415 0.0595788 0)
(-0.0816724 0.0545984 0)
(-0.0896104 0.048812 0)
(-0.0975796 0.0420549 0)
(-0.10556 0.0340932 0)
(-0.113455 0.0246403 0)
(-0.121056 0.0133842 0)
(-0.127996 3.82399e-05 0)
(-0.133711 -0.0155685 0)
(-0.137411 -0.0333805 0)
(-0.138109 -0.0529288 0)
(-0.13472 -0.0731479 0)
(-0.126268 -0.0922254 0)
(-0.112208 -0.107596 0)
(-0.0928199 -0.116218 0)
(-0.0695727 -0.11524 0)
(-0.045222 -0.103015 0)
(-0.0233039 -0.0800849 0)
(-0.00724261 -0.0494019 0)
(-0.000548922 -0.0155745 0)
(-0.000570183 0.0164959 0)
(-0.00383372 0.0414612 0)
(-0.0101613 0.0590543 0)
(-0.0179337 0.0704412 0)
(-0.0264517 0.076928 0)
(-0.0352759 0.0797567 0)
(-0.0441227 0.0799884 0)
(-0.0528567 0.0784438 0)
(-0.0614486 0.0756964 0)
(-0.0699354 0.0720987 0)
(-0.0783931 0.0678218 0)
(-0.0869183 0.0628924 0)
(-0.0956118 0.0572188 0)
(-0.10456 0.0506051 0)
(-0.11381 0.0427572 0)
(-0.12333 0.0332887 0)
(-0.132961 0.0217388 0)
(-0.142346 0.00761804 0)
(-0.150875 -0.00949745 0)
(-0.157614 -0.0298068 0)
(-0.161305 -0.0530518 0)
(-0.160464 -0.078219 0)
(-0.153594 -0.103259 0)
(-0.139576 -0.124957 0)
(-0.118201 -0.139152 0)
(-0.0907518 -0.141526 0)
(-0.0603842 -0.129032 0)
(-0.0317755 -0.101598 0)
(-0.0100594 -0.0629567 0)
(-0.000804122 -0.0197206 0)
(-0.000629822 0.0186314 0)
(-0.00421833 0.0467148 0)
(-0.0111278 0.0663306 0)
(-0.0195269 0.0788618 0)
(-0.0286296 0.0858691 0)
(-0.0379593 0.0888274 0)
(-0.0472259 0.0889835 0)
(-0.0563097 0.0872925 0)
(-0.0652098 0.0844173 0)
(-0.073999 0.0807671 0)
(-0.0827958 0.0765464 0)
(-0.0917467 0.0717986 0)
(-0.101012 0.0664315 0)
(-0.110749 0.0602264 0)
(-0.121085 0.0528328 0)
(-0.132074 0.0437589 0)
(-0.143635 0.0323728 0)
(-0.155467 0.0179345 0)
(-0.166951 -0.000310108 0)
(-0.177064 -0.0229314 0)
(-0.184335 -0.0500155 0)
(-0.186904 -0.0807495 0)
(-0.182731 -0.112972 0)
(-0.170004 -0.142854 0)
(-0.14776 -0.164976 0)
(-0.116703 -0.173106 0)
(-0.0799858 -0.161997 0)
(-0.0433193 -0.130063 0)
(-0.0140957 -0.081476 0)
(-0.00121518 -0.025545 0)
(-0.000706426 0.0209935 0)
(-0.00469482 0.0524904 0)
(-0.0122953 0.0742474 0)
(-0.0214014 0.0879131 0)
(-0.0311201 0.0953605 0)
(-0.0409342 0.0983439 0)
(-0.0505506 0.0983266 0)
(-0.0598703 0.0964153 0)
(-0.0689242 0.093372 0)
(-0.0778215 0.0896684 0)
(-0.0867216 0.0855495 0)
(-0.0958177 0.0810836 0)
(-0.105326 0.0761894 0)
(-0.115474 0.0706374 0)
(-0.126469 0.0640306 0)
(-0.138463 0.0557749 0)
(-0.151475 0.0450558 0)
(-0.165297 0.0308507 0)
(-0.179377 0.0120163 0)
(-0.192689 -0.0124954 0)
(-0.203671 -0.043249 0)
(-0.210226 -0.0798007 0)
(-0.209865 -0.120082 0)
(-0.200065 -0.159836 0)
(-0.178894 -0.192431 0)
(-0.14598 -0.209433 0)
(-0.103758 -0.202501 0)
(-0.0583727 -0.167071 0)
(-0.0197437 -0.106648 0)
(-0.00187462 -0.0337799 0)
(-0.00081008 0.0236429 0)
(-0.00530794 0.0589043 0)
(-0.0137493 0.0829116 0)
(-0.023662 0.0976544 0)
(-0.0340228 0.105401 0)
(-0.0442742 0.108246 0)
(-0.0541282 0.107905 0)
(-0.0635146 0.105651 0)
(-0.0725 0.102353 0)
(-0.0812289 0.0985458 0)
(-0.0898947 0.0945196 0)
(-0.0987268 0.0903741 0)
(-0.107984 0.0860492 0)
(-0.117946 0.0813182 0)
(-0.128892 0.075753 0)
(-0.141058 0.0686706 0)
(-0.154575 0.0590817 0)
(-0.169366 0.0456766 0)
(-0.185018 0.0268993 0)
(-0.200639 0.00117142 0)
(-0.214758 -0.0326717 0)
(-0.225288 -0.0747001 0)
(-0.22954 -0.123211 0)
(-0.22443 -0.173869 0)
(-0.206985 -0.219181 0)
(-0.175305 -0.248571 0)
(-0.130157 -0.249888 0)
(-0.0768884 -0.213657 0)
(-0.0274446 -0.140319 0)
(-0.00294135 -0.0454103 0)
(-0.000958583 0.026672 0)
(-0.00612959 0.0661231 0)
(-0.0156192 0.0924635 0)
(-0.0264588 0.108151 0)
(-0.0374713 0.11597 0)
(-0.0480687 0.118434 0)
(-0.0579856 0.117549 0)
(-0.0671945 0.11477 0)
(-0.0758038 0.111069 0)
(-0.0839906 0.107044 0)
(-0.0919724 0.103024 0)
(-0.0999976 0.0991442 0)
(-0.108344 0.0953708 0)
(-0.117317 0.0914924 0)
(-0.127234 0.0870683 0)
(-0.138396 0.0813513 0)
(-0.151032 0.0732086 0)
(-0.165216 0.0610787 0)
(-0.180754 0.0430267 0)
(-0.197044 0.0169656 0)
(-0.212908 -0.0188937 0)
(-0.226584 -0.0652994 0)
(-0.235574 -0.121168 0)
(-0.236568 -0.182586 0)
(-0.225737 -0.241865 0)
(-0.199437 -0.286886 0)
(-0.15587 -0.30154 0)
(-0.0978438 -0.26949 0)
(-0.0375861 -0.184137 0)
(-0.00467576 -0.0617257 0)
(-0.00118482 0.0302267 0)
(-0.00727795 0.0743878 0)
(-0.0181003 0.103086 0)
(-0.030001 0.119464 0)
(-0.0416329 0.127003 0)
(-0.0524069 0.128738 0)
(-0.0621136 0.127007 0)
(-0.0707924 0.123449 0)
(-0.0786047 0.11913 0)
(-0.0857596 0.114697 0)
(-0.0924884 0.110508 0)
(-0.0990394 0.106724 0)
(-0.105683 0.103341 0)
(-0.112714 0.100169 0)
(-0.120452 0.0967734 0)
(-0.129222 0.0923771 0)
(-0.139329 0.0857587 0)
(-0.150997 0.0751836 0)
(-0.1643 0.0584378 0)
(-0.179039 0.0330385 0)
(-0.194568 -0.00334195 0)
(-0.209748 -0.0522612 0)
(-0.222653 -0.113414 0)
(-0.230269 -0.183856 0)
(-0.228384 -0.256635 0)
(-0.211839 -0.319256 0)
(-0.175787 -0.35246 0)
(-0.118742 -0.331893 0)
(-0.0502602 -0.238855 0)
(-0.00746475 -0.0843179 0)
(-0.00155287 0.034545 0)
(-0.00895324 0.0840491 0)
(-0.0214886 0.115007 0)
(-0.0345706 0.131626 0)
(-0.0466922 0.138356 0)
(-0.0573303 0.138881 0)
(-0.0663915 0.135902 0)
(-0.0740219 0.131236 0)
(-0.0804561 0.126017 0)
(-0.0859413 0.120913 0)
(-0.0907176 0.116293 0)
(-0.0950203 0.11233 0)
(-0.0990894 0.109038 0)
(-0.103182 0.106251 0)
(-0.107579 0.103555 0)
(-0.112595 0.100182 0)
(-0.118572 0.0948947 0)
(-0.125866 0.0858955 0)
(-0.134813 0.07084 0)
(-0.14567 0.0470152 0)
(-0.158521 0.0117125 0)
(-0.172995 -0.0372368 0)
(-0.188032 -0.100532 0)
(-0.201509 -0.176609 0)
(-0.209543 -0.260207 0)
(-0.206188 -0.340057 0)
(-0.183801 -0.39565 0)
(-0.135502 -0.395194 0)
(-0.0648613 -0.30331 0)
(-0.0117927 -0.114952 0)
(-0.00219346 0.040032 0)
(-0.0115052 0.0956148 0)
(-0.0262307 0.128482 0)
(-0.0405232 0.144579 0)
(-0.0527933 0.14972 0)
(-0.0627184 0.148383 0)
(-0.0704222 0.143653 0)
(-0.0762196 0.137481 0)
(-0.0804524 0.131028 0)
(-0.0834232 0.124946 0)
(-0.0853884 0.119584 0)
(-0.0865689 0.115103 0)
(-0.0871674 0.111519 0)
(-0.0873865 0.108683 0)
(-0.0874502 0.106211 0)
(-0.0876296 0.103383 0)
(-0.0882717 0.0990163 0)
(-0.0898254 0.091375 0)
(-0.0928544 0.0781531 0)
(-0.0980276 0.0566088 0)
(-0.106064 0.0238786 0)
(-0.117495 -0.0225413 0)
(-0.132366 -0.0843357 0)
(-0.149743 -0.161461 0)
(-0.166864 -0.251053 0)
(-0.178145 -0.344722 0)
(-0.174269 -0.423507 0)
(-0.143024 -0.451043 0)
(-0.0796166 -0.373397 0)
(-0.0180702 -0.155204 0)
(-0.00338062 0.0474059 0)
(-0.015557 0.109804 0)
(-0.0329796 0.143724 0)
(-0.0482291 0.158035 0)
(-0.0598624 0.160463 0)
(-0.0680073 0.156421 0)
(-0.0731636 0.149335 0)
(-0.0759055 0.14122 0)
(-0.0767337 0.133192 0)
(-0.0760383 0.125835 0)
(-0.0741126 0.119441 0)
(-0.0711776 0.114128 0)
(-0.0674069 0.109891 0)
(-0.0629518 0.106583 0)
(-0.057974 0.103854 0)
(-0.0526873 0.101055 0)
(-0.0474127 0.0971233 0)
(-0.0426394 0.0904905 0)
(-0.0390791 0.0790471 0)
(-0.037697 0.0602294 0)
(-0.0396974 0.031252 0)
(-0.0464003 -0.010544 0)
(-0.0588761 -0.0674349 0)
(-0.0775417 -0.140706 0)
(-0.10134 -0.230045 0)
(-0.126302 -0.33116 0)
(-0.143312 -0.429726 0)
(-0.136205 -0.489831 0)
(-0.0912972 -0.441573 0)
(-0.0262189 -0.205758 0)
(-0.00568821 0.0579983 0)
(-0.0222094 0.127573 0)
(-0.0425821 0.160683 0)
(-0.0577884 0.171168 0)
(-0.0670804 0.169324 0)
(-0.0714676 0.161537 0)
(-0.0720618 0.151441 0)
(-0.0698181 0.140976 0)
(-0.0654625 0.131112 0)
(-0.0595107 0.122298 0)
(-0.0523176 0.114718 0)
(-0.044121 0.108413 0)
(-0.0350777 0.103327 0)
(-0.0252976 0.0992966 0)
(-0.0148844 0.0959976 0)
(-0.00398886 0.0928635 0)
(0.00712048 0.0889881 0)
(0.0179716 0.0830396 0)
(0.0278029 0.0732168 0)
(0.0355003 0.0572906 0)
(0.039574 0.032753 0)
(0.0381608 -0.00295968 0)
(0.0294509 -0.0523125 0)
(0.0118112 -0.117451 0)
(-0.0156047 -0.200095 0)
(-0.0514002 -0.300247 0)
(-0.0888879 -0.410755 0)
(-0.110492 -0.502454 0)
(-0.0952799 -0.49725 0)
(-0.035018 -0.265466 0)
(-0.010276 0.0744043 0)
(-0.0332886 0.149991 0)
(-0.0556467 0.178501 0)
(-0.067919 0.181983 0)
(-0.0712697 0.173827 0)
(-0.0682689 0.161164 0)
(-0.0609468 0.147514 0)
(-0.050764 0.134505 0)
(-0.038714 0.12281 0)
(-0.025441 0.11265 0)
(-0.0113478 0.104039 0)
(0.00332829 0.096899 0)
(0.0184624 0.0910936 0)
(0.0339964 0.0864207 0)
(0.0498914 0.0825682 0)
(0.0660694 0.0790496 0)
(0.0823372 0.0751257 0)
(0.0982911 0.0697302 0)
(0.113214 0.0614257 0)
(0.125988 0.0484133 0)
(0.135033 0.0286116 0)
(0.138204 -0.000225816 0)
(0.133259 -0.040345 0)
(0.117671 -0.0942214 0)
(0.0890666 -0.164672 0)
(0.046004 -0.255053 0)
(-0.00923561 -0.366209 0)
(-0.0610833 -0.481694 0)
(-0.0857706 -0.528031 0)
(-0.0415016 -0.33095 0)
(-0.0192347 0.101416 0)
(-0.0510798 0.177064 0)
(-0.0700453 0.194024 0)
(-0.0718444 0.185969 0)
(-0.0619726 0.169258 0)
(-0.0453494 0.150963 0)
(-0.0250902 0.133804 0)
(-0.00308914 0.118699 0)
(0.0195358 0.105803 0)
(0.0421674 0.094985 0)
(0.0644952 0.0860246 0)
(0.0863953 0.0786886 0)
(0.10786 0.0727426 0)
(0.128943 0.0679353 0)
(0.14971 0.0639612 0)
(0.170184 0.0604093 0)
(0.19027 0.0567037 0)
(0.209665 0.0520457 0)
(0.227758 0.045373 0)
(0.243529 0.0353513 0)
(0.255446 0.0204152 0)
(0.261355 -0.00118876 0)
(0.258801 -0.0312109 0)
(0.244668 -0.0719035 0)
(0.215566 -0.126207 0)
(0.167987 -0.199134 0)
(0.0993768 -0.298094 0)
(0.0192871 -0.423431 0)
(-0.0553595 -0.521788 0)
(-0.0403003 -0.39551 0)
(-0.0343698 0.144912 0)
(-0.0727521 0.201455 0)
(-0.0684304 0.195954 0)
(-0.0430343 0.171948 0)
(-0.00790622 0.146214 0)
(0.0303458 0.123599 0)
(0.0684553 0.104881 0)
(0.104958 0.0897034 0)
(0.139263 0.0774831 0)
(0.171254 0.0676719 0)
(0.201047 0.0598116 0)
(0.228866 0.0535313 0)
(0.254978 0.0485242 0)
(0.279652 0.0445161 0)
(0.303124 0.0412291 0)
(0.325548 0.0383412 0)
(0.346943 0.0354441 0)
(0.367118 0.0320044 0)
(0.385577 0.0273341 0)
(0.401441 0.0205753 0)
(0.413308 0.0107057 0)
(0.419223 -0.00344568 0)
(0.416681 -0.022997 0)
(0.402327 -0.049535 0)
(0.372158 -0.0853789 0)
(0.321694 -0.135268 0)
(0.244431 -0.209476 0)
(0.142835 -0.325618 0)
(0.00957456 -0.465699 0)
(-0.018676 -0.440366 0)
(-0.0373858 0.236298 0)
(-0.0467342 0.204606 0)
(0.0294657 0.154261 0)
(0.101942 0.118247 0)
(0.16934 0.0912637 0)
(0.229457 0.0712683 0)
(0.28194 0.0566939 0)
(0.327528 0.0459992 0)
(0.367243 0.0380229 0)
(0.402073 0.0319935 0)
(0.432889 0.0273973 0)
(0.46043 0.0238759 0)
(0.485318 0.0211651 0)
(0.508062 0.0190552 0)
(0.52906 0.0173591 0)
(0.548579 0.0158836 0)
(0.566724 0.0144053 0)
(0.583388 0.0126502 0)
(0.598176 0.0102804 0)
(0.610344 0.00689863 0)
(0.618631 0.0020416 0)
(0.621524 -0.00472007 0)
(0.616745 -0.0140791 0)
(0.601243 -0.0267975 0)
(0.570833 -0.0439787 0)
(0.521252 -0.0686655 0)
(0.442425 -0.108519 0)
(0.333059 -0.189825 0)
(0.142569 -0.33708 0)
(0.0602436 -0.413547 0)
(0.231282 0.158536 0)
(0.291672 0.11727 0)
(0.441716 0.0761389 0)
(0.541077 0.0508181 0)
(0.608486 0.0344338 0)
(0.658129 0.023586 0)
(0.696113 0.0164928 0)
(0.725783 0.0118631 0)
(0.749485 0.00879893 0)
(0.768879 0.0067346 0)
(0.785115 0.00532394 0)
(0.798999 0.00434969 0)
(0.811116 0.00366997 0)
(0.82189 0.00318682 0)
(0.831617 0.00282565 0)
(0.840477 0.00252074 0)
(0.84852 0.00220457 0)
(0.855653 0.00180116 0)
(0.8616 0.00122017 0)
(0.865885 0.000370582 0)
(0.867784 -0.00085477 0)
(0.866296 -0.00243775 0)
(0.859929 -0.00465309 0)
(0.847246 -0.00770017 0)
(0.825463 -0.0117358 0)
(0.792552 -0.0176748 0)
(0.736725 -0.0275361 0)
(0.658456 -0.0497213 0)
(0.455252 -0.110641 0)
(0.313436 -0.177841 0)
)
;

boundaryField
{
    movingWall
    {
        type            fixedValue;
        value           uniform (1 0 0);
    }
    fixedWalls
    {
        type            noSlip;
    }
    frontAndBack
    {
        type            empty;
    }
}


// ************************************************************************* //
