/*--------------------------------*- C++ -*----------------------------------*\
  =========                 |
  \\      /  F ield         | OpenFOAM: The Open Source CFD Toolbox
   \\    /   O peration     | Website:  https://openfoam.org
    \\  /    A nd           | Version:  7
     \\/     M anipulation  |
\*---------------------------------------------------------------------------*/
FoamFile
{
    version     2.0;
    format      ascii;
    class       volScalarField;
    location    "1.1";
    object      p;
}
// * * * * * * * * * * * * * * * * * * * * * * * * * * * * * * * * * * * * * //

dimensions      [0 2 -2 0 0 0 0];

internalField   nonuniform List<scalar> 
1936
(
0.000138729
-2994.62
-6966.56
-6602.33
-5425.75
-5125.09
-4599.68
-4196.24
-4096.58
-4442.32
-5606.63
-7028.35
-6480.62
-4452.57
-3463.21
-3457.93
-4151.64
-6370.89
-7594.41
-5705.02
-3645.36
-3150.05
-3278.84
-4354.37
-6586.62
-7241.08
-5071.05
-3303.09
-3127.01
-3567.76
-5735.12
-7691.66
-6021.61
-3593.24
-3063.22
-3247.18
-4889.6
-7264.02
-6600.81
-4074.36
-3160.67
-3192.87
-4408.83
-7293.98
-95.8828
-2996.23
-6903.3
-6551.61
-5408.54
-5119.81
-4607.18
-4220
-4128.38
-4461.51
-5597.66
-6986.56
-6439.38
-4460.56
-3518.12
-3510.99
-4153.6
-6310.15
-7521.38
-5671.48
-3665.36
-3206.56
-3331.64
-4368.36
-6553.63
-7182.47
-5050.89
-3349.63
-3191.47
-3592.14
-5695.85
-7621.66
-5981.64
-3618.11
-3127.16
-3294.4
-4880.75
-7209.02
-6550.63
-4084.23
-3222.13
-3245.07
-4398.55
-7227.09
-391.698
-3013.7
-6673.03
-6415.55
-5376.32
-5097.48
-4627.59
-4280.04
-4207.1
-4523.48
-5586.82
-6853.49
-6315.43
-4500.58
-3659.07
-3637.39
-4181.4
-6147.96
-7292.76
-5595.31
-3738.79
-3340.19
-3471.01
-4433.42
-6453.78
-6994.61
-5013.14
-3481.01
-3340.72
-3676.78
-5605
-7394.59
-5879.91
-3708.1
-3276.71
-3426.27
-4882.78
-7030.46
-6402.65
-4137.87
-3370.16
-3376.04
-4407.11
-7022.74
-803.71
-3055.71
-6333.18
-6211.43
-5335.15
-5070.29
-4659.96
-4366.52
-4317.61
-4612.62
-5563.38
-6643.37
-6131.8
-4560.82
-3849.22
-3813.35
-4245.31
-5929.99
-6952.16
-5490.44
-3861.81
-3530.42
-3661.97
-4520.46
-6287.89
-6709.1
-4967.64
-3667.52
-3545.19
-3812.57
-5483.72
-7050.19
-5733.34
-3847.75
-3485.77
-3615.77
-4886.5
-6752.31
-6181.45
-4220.18
-3572.48
-3566.15
-4440.31
-6719.25
-1278.95
-3123.66
-5942.48
-5961.88
-5280.11
-5040.99
-4701.73
-4467.98
-4441.4
-4709.34
-5523.2
-6386.72
-5918.86
-4626.27
-4052.54
-4010.02
-4337.61
-5697.98
-6557.18
-5372.54
-4018.12
-3750.49
-3870.79
-4607.01
-6078.11
-6373.95
-4920.31
-3874.41
-3771.14
-3977.8
-5353.15
-6648.33
-5565.08
-4012.95
-3720.36
-3830.12
-4886.99
-6420.84
-5924.43
-4312.16
-3792.18
-3783.98
-4492.7
-6370.77
-1779.64
-3220.57
-5545.43
-5688.56
-5209.15
-5011.14
-4749.14
-4573.66
-4564.97
-4798.93
-5463.58
-6108.89
-5700.19
-4688.25
-4247.86
-4207.2
-4447.03
-5480.76
-6155.91
-5252.62
-4189.72
-3978.25
-4076.15
-4680.66
-5843.39
-6028.39
-4876.02
-4078.32
-3996.19
-4154.34
-5227.45
-6236.3
-5392.97
-4184.64
-3956.61
-4044.33
-4883.24
-6072.87
-5660.69
-4404.53
-4006.3
-4004.28
-4557.6
-6018.38
-2278.44
-3347.22
-5176.55
-5412.59
-5123.79
-4980.34
-4795.98
-4673.47
-4676.75
-4872.02
-5385.93
-5833.07
-5494.16
-4745.37
-4422.91
-4389.93
-4559.56
-5295.6
-5785.02
-5139.95
-4357.96
-4194.43
-4265.11
-4738.42
-5602.59
-5702.85
-4841.29
-4264.14
-4204.52
-4324.88
-5116.12
-5850.65
-5232.42
-4346.82
-4176.4
-4241.77
-4875.37
-5738.68
-5413.65
-4492.68
-4202.42
-4208.64
-4625.99
-5690.95
-2755.83
-3500.72
-4861.78
-5153.45
-5027.8
-4946.6
-4834.68
-4759.03
-4768.82
-4924.26
-5294.04
-5578.07
-5315.58
-4797.25
-4571.92
-4547.58
-4662.97
-5147.71
-5469.21
-5041.16
-4508.03
-4384.93
-4429.7
-4780.55
-5375.48
-5418.86
-4820.43
-4424.38
-4385.16
-4476.26
-5023.18
-5516.66
-5094.13
-4488.8
-4367.04
-4412.21
-4864.55
-5441.86
-5200.83
-4573.86
-4373.47
-4385.09
-4687.86
-5408.16
-3192.23
-3675.73
-4620.81
-4927.95
-4926.94
-4907.59
-4858.84
-4823.03
-4837.11
-4951.98
-5195.78
-5358.14
-5172.19
-4841.54
-4692.24
-4673.38
-4748
-5036.04
-5222.37
-4961.85
-4629.93
-4541.25
-4567.04
-4806.61
-5178.74
-5190.4
-4810.95
-4556.05
-4532.58
-4600.31
-4948.35
-5249.41
-4984.5
-4604.32
-4521.32
-4551.79
-4850.31
-5198.98
-5033.33
-4643.69
-4514.62
-4527.68
-4736.59
-5180.69
-3565.94
-3861.24
-4467.02
-4750.27
-4829.27
-4862.84
-4864.83
-4861.48
-4879.4
-4956.95
-5100.69
-5181.86
-5065.38
-4874.01
-4781.8
-4765.8
-4808.37
-4956.84
-5047.89
-4904.72
-4719.75
-4659.94
-4673.53
-4818.68
-5024.45
-5022.42
-4807.63
-4658.14
-4644.4
-4693.21
-4891.82
-5054.22
-4905.15
-4690.56
-4637.14
-4658.26
-4833.98
-5018.03
-4914.97
-4698.08
-4623.56
-4636.16
-4768.21
-5012.34
-3862.77
-4039.19
-4399.05
-4630.43
-4745.27
-4814.92
-4853.37
-4874.76
-4896.4
-4943.86
-5017.3
-5051.59
-4989.56
-4892.28
-4840.28
-4826.25
-4844.03
-4905.12
-4938.39
-4868.95
-4778.52
-4742.14
-4747.14
-4820.99
-4917.46
-4911.89
-4806.66
-4730.07
-4722.96
-4754.29
-4852.62
-4926.6
-4853.78
-4747.91
-4717.26
-4730.72
-4818.51
-4898.43
-4841.6
-4736.15
-4699.83
-4711.57
-4784.72
-4900.52
-4084.28
-4191.74
-4397.13
-4568.16
-4685.04
-4770.89
-4830.71
-4867.49
-4891.89
-4918.93
-4950.57
-4962.45
-4936.78
-4896.08
-4870.55
-4859.18
-4860.18
-4874.63
-4879.26
-4849.78
-4811.92
-4792.01
-4790.65
-4818.6
-4853.66
-4848.81
-4806.35
-4774.34
-4771.93
-4788.55
-4828.28
-4854.47
-4824.81
-4781.16
-4766.25
-4772.76
-4806.65
-4831.17
-4803.26
-4760.31
-4747.43
-4757.33
-4791.19
-4836
-4242.46
-4313.14
-4431.79
-4550.97
-4651.98
-4737.08
-4802.96
-4846.99
-4872.5
-4888.47
-4900.62
-4905.54
-4900.01
-4888.93
-4879.37
-4871.1
-4863.64
-4858.46
-4852.5
-4840.85
-4827.37
-4817.06
-4811.66
-4815.5
-4822.22
-4818.93
-4806.26
-4797.3
-4797.69
-4804.06
-4815.17
-4820.74
-4811.08
-4797.3
-4791.53
-4792.59
-4799.6
-4800.94
-4788.14
-4774.7
-4773.6
-4780.49
-4792.63
-4805
-4358.19
-4404.75
-4478.33
-4560.34
-4640.84
-4715.09
-4776.44
-4819.68
-4844.97
-4857.83
-4864.92
-4870.03
-4874.07
-4876.12
-4875.17
-4869.62
-4860.2
-4850.11
-4842.26
-4836.83
-4832.11
-4826.19
-4819.16
-4813.51
-4810.43
-4808.24
-4806.63
-4806.86
-4808.17
-4809.1
-4809.37
-4808.47
-4805.99
-4803.41
-4801.7
-4799.73
-4796.78
-4791.68
-4785.64
-4783.24
-4786.02
-4789.91
-4792.53
-4793.51
-4447.62
-4476.48
-4523.71
-4580.64
-4642.22
-4701.93
-4753.61
-4792.21
-4816.69
-4830.52
-4839.11
-4846.78
-4854.75
-4861.3
-4863.83
-4860.84
-4853.38
-4844.75
-4838.15
-4834.44
-4831.66
-4827.18
-4820.38
-4813.16
-4807.96
-4806.3
-4807.54
-4809.67
-4810.79
-4809.79
-4807.46
-4805.52
-4804.86
-4804.91
-4804.26
-4801.43
-4796.58
-4791.34
-4788.18
-4788.55
-4791.15
-4792.96
-4792.5
-4791.06
-4519.04
-4535.76
-4565.62
-4604.52
-4648.91
-4694.58
-4735.6
-4768.36
-4791.72
-4807.52
-4819.05
-4829.15
-4838.59
-4846.16
-4850.02
-4849.32
-4845.05
-4839.56
-4834.98
-4831.89
-4829.14
-4825.19
-4819.54
-4813.7
-4809.4
-4807.88
-4808.63
-4810.03
-4810.38
-4809.06
-4806.97
-4805.32
-4804.85
-4804.89
-4804.11
-4801.6
-4797.79
-4794.1
-4792.03
-4792.11
-4793.27
-4793.66
-4792.8
-4791.53
-4575.86
-4585.3
-4603.65
-4629.18
-4659.75
-4692.28
-4723.51
-4750.36
-4771.81
-4788.48
-4801.91
-4813.44
-4823.38
-4831.13
-4835.8
-4837.13
-4835.85
-4833.31
-4830.68
-4828.31
-4825.75
-4822.42
-4818.29
-4814.17
-4811.11
-4809.66
-4809.49
-4809.7
-4809.38
-4808.3
-4806.87
-4805.71
-4805.06
-4804.54
-4803.52
-4801.62
-4799.13
-4796.75
-4795.17
-4794.6
-4794.53
-4794.22
-4793.5
-4792.82
-4620.3
-4625.74
-4636.88
-4653.11
-4673.29
-4695.64
-4718.17
-4739.15
-4757.6
-4773.41
-4786.98
-4798.71
-4808.63
-4816.46
-4821.86
-4824.85
-4825.88
-4825.66
-4824.78
-4823.48
-4821.72
-4819.42
-4816.73
-4814.1
-4812.02
-4810.72
-4809.99
-4809.46
-4808.78
-4807.84
-4806.82
-4805.91
-4805.14
-4804.35
-4803.31
-4801.91
-4800.28
-4798.7
-4797.43
-4796.54
-4795.9
-4795.3
-4794.73
-4794.33
-4654.59
-4657.86
-4664.7
-4674.91
-4687.94
-4702.88
-4718.66
-4734.31
-4749.09
-4762.66
-4774.9
-4785.76
-4795.12
-4802.8
-4808.68
-4812.81
-4815.46
-4816.93
-4817.55
-4817.51
-4816.9
-4815.81
-4814.41
-4812.97
-4811.69
-4810.68
-4809.87
-4809.14
-4808.38
-4807.55
-4806.72
-4805.93
-4805.18
-4804.38
-4803.46
-4802.41
-4801.27
-4800.15
-4799.12
-4798.23
-4797.48
-4796.84
-4796.36
-4796.06
-4680.8
-4682.86
-4687.16
-4693.64
-4702.06
-4711.96
-4722.81
-4734.07
-4745.32
-4756.13
-4766.29
-4775.61
-4783.92
-4791.07
-4796.99
-4801.69
-4805.26
-4807.87
-4809.67
-4810.78
-4811.31
-4811.38
-4811.11
-4810.65
-4810.11
-4809.56
-4809.01
-4808.44
-4807.83
-4807.18
-4806.53
-4805.88
-4805.22
-4804.54
-4803.8
-4803
-4802.18
-4801.35
-4800.56
-4799.83
-4799.18
-4798.64
-4798.25
-4798.01
-4700.62
-4701.97
-4704.76
-4708.97
-4714.5
-4721.11
-4728.54
-4736.51
-4744.72
-4752.96
-4760.96
-4768.55
-4775.57
-4781.89
-4787.44
-4792.19
-4796.15
-4799.38
-4801.95
-4803.92
-4805.38
-4806.38
-4807.03
-4807.4
-4807.56
-4807.57
-4807.45
-4807.24
-4806.94
-4806.58
-4806.16
-4805.72
-4805.24
-4804.74
-4804.2
-4803.63
-4803.04
-4802.46
-4801.89
-4801.35
-4800.88
-4800.48
-4800.2
-4800.03
-4715.33
-4716.24
-4718.11
-4720.94
-4724.66
-4729.17
-4734.32
-4739.96
-4745.93
-4752.06
-4758.2
-4764.2
-4769.94
-4775.32
-4780.28
-4784.74
-4788.71
-4792.16
-4795.13
-4797.63
-4799.7
-4801.38
-4802.71
-4803.74
-4804.51
-4805.07
-4805.44
-4805.66
-4805.74
-4805.72
-4805.61
-4805.43
-4805.19
-4804.91
-4804.58
-4804.23
-4803.86
-4803.48
-4803.11
-4802.76
-4802.45
-4802.2
-4802.01
-4801.91
-4725.06
-4725.73
-4727.07
-4729.1
-4731.79
-4735.07
-4738.85
-4743.04
-4747.55
-4752.27
-4757.1
-4761.94
-4766.7
-4771.3
-4775.67
-4779.76
-4783.53
-4786.97
-4790.06
-4792.8
-4795.2
-4797.27
-4799.04
-4800.52
-4801.74
-4802.73
-4803.51
-4804.11
-4804.55
-4804.85
-4805.03
-4805.11
-4805.1
-4805.03
-4804.91
-4804.74
-4804.55
-4804.34
-4804.12
-4803.92
-4803.73
-4803.58
-4803.47
-4803.41
-4730.57
-4731.1
-4732.16
-4733.78
-4735.93
-4738.56
-4741.61
-4745.02
-4748.73
-4752.66
-4756.73
-4760.88
-4765.03
-4769.11
-4773.08
-4776.88
-4780.47
-4783.83
-4786.93
-4789.76
-4792.32
-4794.59
-4796.6
-4798.34
-4799.84
-4801.11
-4802.16
-4803.02
-4803.71
-4804.24
-4804.63
-4804.91
-4805.08
-4805.17
-4805.19
-4805.16
-4805.09
-4804.99
-4804.88
-4804.76
-4804.66
-4804.56
-4804.49
-4804.46
-4733.39
-4733.86
-4734.78
-4736.18
-4738.05
-4740.35
-4743.03
-4746.04
-4749.33
-4752.84
-4756.51
-4760.28
-4764.09
-4767.89
-4771.63
-4775.26
-4778.74
-4782.05
-4785.14
-4788.01
-4790.65
-4793.04
-4795.18
-4797.08
-4798.75
-4800.19
-4801.41
-4802.43
-4803.28
-4803.96
-4804.49
-4804.89
-4805.18
-4805.37
-4805.49
-4805.54
-4805.54
-4805.51
-4805.46
-4805.39
-4805.33
-4805.27
-4805.22
-4805.2
-4734.67
-4735.1
-4735.95
-4737.25
-4738.98
-4741.11
-4743.6
-4746.41
-4749.49
-4752.79
-4756.26
-4759.84
-4763.49
-4767.15
-4770.77
-4774.32
-4777.75
-4781.04
-4784.14
-4787.05
-4789.74
-4792.21
-4794.44
-4796.44
-4798.21
-4799.76
-4801.09
-4802.22
-4803.16
-4803.93
-4804.54
-4805.02
-4805.38
-4805.63
-4805.8
-4805.9
-4805.95
-4805.95
-4805.93
-4805.9
-4805.85
-4805.81
-4805.78
-4805.76
-4735.06
-4735.47
-4736.29
-4737.54
-4739.21
-4741.26
-4743.67
-4746.39
-4749.37
-4752.58
-4755.96
-4759.47
-4763.05
-4766.66
-4770.25
-4773.77
-4777.2
-4780.49
-4783.63
-4786.57
-4789.31
-4791.84
-4794.13
-4796.2
-4798.04
-4799.65
-4801.05
-4802.24
-4803.24
-4804.07
-4804.73
-4805.25
-4805.64
-4805.93
-4806.12
-4806.24
-4806.31
-4806.33
-4806.32
-4806.29
-4806.26
-4806.22
-4806.19
-4806.18
-4734.97
-4735.38
-4736.17
-4737.41
-4739.06
-4741.09
-4743.47
-4746.17
-4749.13
-4752.31
-4755.68
-4759.17
-4762.75
-4766.35
-4769.95
-4773.49
-4776.94
-4780.26
-4783.43
-4786.41
-4789.19
-4791.76
-4794.1
-4796.21
-4798.09
-4799.74
-4801.18
-4802.4
-4803.43
-4804.28
-4804.96
-4805.49
-4805.9
-4806.19
-4806.39
-4806.51
-4806.58
-4806.6
-4806.59
-4806.56
-4806.52
-4806.49
-4806.46
-4806.44
-4734.71
-4735.11
-4735.91
-4737.14
-4738.79
-4740.83
-4743.22
-4745.92
-4748.9
-4752.1
-4755.48
-4758.99
-4762.59
-4766.23
-4769.85
-4773.42
-4776.9
-4780.25
-4783.45
-4786.46
-4789.27
-4791.86
-4794.23
-4796.36
-4798.25
-4799.92
-4801.36
-4802.59
-4803.62
-4804.47
-4805.14
-4805.67
-4806.07
-4806.35
-4806.54
-4806.65
-4806.7
-4806.72
-4806.7
-4806.66
-4806.62
-4806.57
-4806.54
-4806.52
-4734.45
-4734.85
-4735.65
-4736.89
-4738.56
-4740.62
-4743.03
-4745.76
-4748.77
-4752.01
-4755.43
-4758.98
-4762.61
-4766.28
-4769.93
-4773.53
-4777.04
-4780.42
-4783.63
-4786.66
-4789.48
-4792.08
-4794.45
-4796.58
-4798.47
-4800.12
-4801.55
-4802.76
-4803.76
-4804.58
-4805.23
-4805.73
-4806.1
-4806.35
-4806.52
-4806.6
-4806.64
-4806.63
-4806.59
-4806.55
-4806.49
-4806.44
-4806.41
-4806.39
-4734.31
-4734.71
-4735.51
-4736.77
-4738.46
-4740.55
-4743
-4745.77
-4748.81
-4752.09
-4755.54
-4759.13
-4762.8
-4766.49
-4770.17
-4773.8
-4777.32
-4780.71
-4783.93
-4786.96
-4789.78
-4792.37
-4794.72
-4796.83
-4798.69
-4800.31
-4801.7
-4802.87
-4803.83
-4804.6
-4805.2
-4805.65
-4805.97
-4806.18
-4806.3
-4806.35
-4806.35
-4806.31
-4806.26
-4806.19
-4806.13
-4806.07
-4806.03
-4806.01
-4734.36
-4734.76
-4735.57
-4736.84
-4738.56
-4740.68
-4743.16
-4745.96
-4749.04
-4752.34
-4755.82
-4759.43
-4763.12
-4766.84
-4770.53
-4774.17
-4777.7
-4781.09
-4784.3
-4787.33
-4790.13
-4792.69
-4795.01
-4797.08
-4798.9
-4800.48
-4801.81
-4802.92
-4803.82
-4804.53
-4805.06
-4805.44
-4805.69
-4805.84
-4805.89
-4805.89
-4805.84
-4805.76
-4805.68
-4805.59
-4805.52
-4805.46
-4805.41
-4805.39
-4734.65
-4735.05
-4735.86
-4737.15
-4738.89
-4741.02
-4743.52
-4746.33
-4749.42
-4752.73
-4756.22
-4759.84
-4763.54
-4767.26
-4770.96
-4774.6
-4778.12
-4781.51
-4784.71
-4787.71
-4790.49
-4793.03
-4795.31
-4797.34
-4799.11
-4800.62
-4801.9
-4802.94
-4803.77
-4804.4
-4804.85
-4805.15
-4805.32
-4805.38
-4805.35
-4805.27
-4805.15
-4805.01
-4804.87
-4804.75
-4804.65
-4804.58
-4804.54
-4804.52
-4735.21
-4735.61
-4736.42
-4737.71
-4739.44
-4741.56
-4744.04
-4746.84
-4749.91
-4753.21
-4756.69
-4760.31
-4764
-4767.71
-4771.41
-4775.04
-4778.56
-4781.93
-4785.12
-4788.1
-4790.85
-4793.35
-4795.6
-4797.58
-4799.3
-4800.76
-4801.97
-4802.94
-4803.69
-4804.24
-4804.61
-4804.82
-4804.89
-4804.85
-4804.73
-4804.54
-4804.32
-4804.09
-4803.87
-4803.68
-4803.54
-4803.44
-4803.4
-4803.4
-4736.09
-4736.48
-4737.27
-4738.51
-4740.19
-4742.26
-4744.68
-4747.43
-4750.46
-4753.72
-4757.18
-4760.77
-4764.45
-4768.16
-4771.85
-4775.47
-4778.97
-4782.33
-4785.51
-4788.47
-4791.19
-4793.67
-4795.88
-4797.81
-4799.48
-4800.89
-4802.04
-4802.94
-4803.62
-4804.09
-4804.37
-4804.48
-4804.46
-4804.32
-4804.08
-4803.78
-4803.44
-4803.08
-4802.74
-4802.43
-4802.2
-4802.03
-4801.98
-4802
-4737.36
-4737.7
-4738.42
-4739.52
-4741.08
-4743.04
-4745.37
-4748.03
-4751
-4754.21
-4757.64
-4761.21
-4764.87
-4768.56
-4772.24
-4775.85
-4779.35
-4782.7
-4785.86
-4788.8
-4791.51
-4793.95
-4796.13
-4798.03
-4799.66
-4801.02
-4802.11
-4802.95
-4803.56
-4803.96
-4804.16
-4804.18
-4804.06
-4803.82
-4803.47
-4803.04
-4802.56
-4802.06
-4801.55
-4801.08
-4800.69
-4800.36
-4800.26
-4800.25
-4739.12
-4739.26
-4739.82
-4740.67
-4742.05
-4743.84
-4746.04
-4748.6
-4751.49
-4754.65
-4758.04
-4761.58
-4765.22
-4768.91
-4772.58
-4776.18
-4779.68
-4783.02
-4786.17
-4789.1
-4791.79
-4794.21
-4796.36
-4798.23
-4799.82
-4801.14
-4802.18
-4802.97
-4803.52
-4803.85
-4803.98
-4803.93
-4803.72
-4803.38
-4802.92
-4802.37
-4801.75
-4801.08
-4800.4
-4799.7
-4799.08
-4798.48
-4798.23
-4798.05
-4741.52
-4741.14
-4741.41
-4741.86
-4742.99
-4744.58
-4746.64
-4749.1
-4751.91
-4755.02
-4758.36
-4761.89
-4765.52
-4769.19
-4772.86
-4776.46
-4779.95
-4783.28
-4786.43
-4789.35
-4792.03
-4794.44
-4796.57
-4798.41
-4799.97
-4801.25
-4802.26
-4803.01
-4803.51
-4803.78
-4803.85
-4803.73
-4803.45
-4803.02
-4802.47
-4801.81
-4801.05
-4800.22
-4799.34
-4798.39
-4797.49
-4796.46
-4795.95
-4795.26
-4744.69
-4743.23
-4743.05
-4742.99
-4743.84
-4745.21
-4747.13
-4749.49
-4752.23
-4755.3
-4758.61
-4762.12
-4765.74
-4769.41
-4773.07
-4776.67
-4780.16
-4783.5
-4786.64
-4789.56
-4792.22
-4794.62
-4796.74
-4798.56
-4800.1
-4801.36
-4802.33
-4803.05
-4803.51
-4803.74
-4803.76
-4803.59
-4803.25
-4802.75
-4802.11
-4801.35
-4800.49
-4799.51
-4798.44
-4797.24
-4796.02
-4794.46
-4793.52
-4791.76
-4748.71
-4745.36
-4744.6
-4743.96
-4744.53
-4745.71
-4747.51
-4749.78
-4752.47
-4755.49
-4758.79
-4762.28
-4765.9
-4769.57
-4773.23
-4776.83
-4780.32
-4783.66
-4786.8
-4789.72
-4792.38
-4794.77
-4796.87
-4798.69
-4800.21
-4801.44
-4802.4
-4803.08
-4803.52
-4803.72
-4803.7
-4803.49
-4803.1
-4802.55
-4801.86
-4801.02
-4800.06
-4798.97
-4797.75
-4796.31
-4794.79
-4792.63
-4791.13
-4787.46
-4753.51
-4747.32
-4745.9
-4744.7
-4745.03
-4746.06
-4747.76
-4749.97
-4752.62
-4755.62
-4758.9
-4762.39
-4766
-4769.67
-4773.34
-4776.94
-4780.43
-4783.77
-4786.91
-4789.83
-4792.49
-4794.87
-4796.97
-4798.78
-4800.29
-4801.51
-4802.45
-4803.12
-4803.53
-4803.71
-4803.67
-4803.43
-4803.01
-4802.42
-4801.68
-4800.8
-4799.77
-4798.59
-4797.25
-4795.64
-4793.86
-4791.13
-4789
-4782.45
-4758.74
-4748.87
-4746.81
-4745.18
-4745.35
-4746.27
-4747.92
-4750.09
-4752.71
-4755.69
-4758.97
-4762.45
-4766.06
-4769.73
-4773.4
-4777
-4780.5
-4783.84
-4786.98
-4789.89
-4792.55
-4794.93
-4797.03
-4798.83
-4800.34
-4801.55
-4802.48
-4803.14
-4803.54
-4803.71
-4803.65
-4803.4
-4802.96
-4802.35
-4801.59
-4800.67
-4799.6
-4798.37
-4796.95
-4795.22
-4793.26
-4790.1
-4787.34
-4777.08
-4763.68
-4749.85
-4747.3
-4745.44
-4745.51
-4746.37
-4747.99
-4750.14
-4752.75
-4755.73
-4759
-4762.48
-4766.09
-4769.76
-4773.42
-4777.03
-4780.53
-4783.87
-4787.01
-4789.92
-4792.58
-4794.96
-4797.06
-4798.86
-4800.36
-4801.57
-4802.5
-4803.15
-4803.55
-4803.71
-4803.65
-4803.38
-4802.94
-4802.32
-4801.54
-4800.61
-4799.52
-4798.26
-4796.81
-4795.01
-4792.95
-4789.56
-4786.31
-4772.07
-4767.63
-4750.29
-4747.47
-4745.53
-4745.56
-4746.41
-4748.01
-4750.16
-4752.76
-4755.74
-4759.01
-4762.48
-4766.09
-4769.77
-4773.43
-4777.04
-4780.54
-4783.88
-4787.02
-4789.93
-4792.59
-4794.97
-4797.06
-4798.86
-4800.36
-4801.57
-4802.5
-4803.15
-4803.55
-4803.71
-4803.64
-4803.38
-4802.93
-4802.31
-4801.53
-4800.59
-4799.5
-4798.23
-4796.77
-4794.95
-4792.85
-4789.38
-4785.87
-4768.1
)
;

boundaryField
{
    movingWall
    {
        type            zeroGradient;
    }
    fixedWalls
    {
        type            zeroGradient;
    }
    frontAndBack
    {
        type            empty;
    }
    defaultFaces
    {
        type            empty;
    }
}


// ************************************************************************* //
