/*--------------------------------*- C++ -*----------------------------------*\
  =========                 |
  \\      /  F ield         | OpenFOAM: The Open Source CFD Toolbox
   \\    /   O peration     | Website:  https://openfoam.org
    \\  /    A nd           | Version:  7
     \\/     M anipulation  |
\*---------------------------------------------------------------------------*/
FoamFile
{
    version     2.0;
    format      ascii;
    class       volVectorField;
    location    "0.8";
    object      U;
}
// * * * * * * * * * * * * * * * * * * * * * * * * * * * * * * * * * * * * * //

dimensions      [0 1 -1 0 0 0 0];

internalField   nonuniform List<vector> 
900
(
(1.43266e-05 -1.05541e-05 0)
(-0.000218415 0.0001156 0)
(-0.000761213 0.000194904 0)
(-0.00141898 0.000220707 0)
(-0.00208783 0.000221377 0)
(-0.00275069 0.000211564 0)
(-0.00337164 0.000198191 0)
(-0.00395299 0.000182699 0)
(-0.00448129 0.000165498 0)
(-0.00495307 0.000146446 0)
(-0.00536294 0.000125414 0)
(-0.00570459 0.000102842 0)
(-0.00597398 7.88262e-05 0)
(-0.00616733 5.34456e-05 0)
(-0.00628122 2.69703e-05 0)
(-0.00631314 -3.2548e-07 0)
(-0.00626139 -2.82066e-05 0)
(-0.00612519 -5.6318e-05 0)
(-0.00590503 -8.42073e-05 0)
(-0.00560214 -0.000111621 0)
(-0.00521813 -0.000138302 0)
(-0.00475805 -0.000163465 0)
(-0.00422671 -0.000186989 0)
(-0.00362647 -0.000208721 0)
(-0.00297343 -0.000227712 0)
(-0.0022648 -0.000241908 0)
(-0.00154477 -0.000243005 0)
(-0.00083241 -0.000215552 0)
(-0.000245309 -0.000129962 0)
(1.19673e-05 6.14051e-06 0)
(-0.000105532 0.000214295 0)
(-0.00078401 0.000769445 0)
(-0.0019897 0.00109408 0)
(-0.00341404 0.00121123 0)
(-0.00484577 0.00121827 0)
(-0.00627354 0.00117152 0)
(-0.00761133 0.0011003 0)
(-0.00886701 0.00101346 0)
(-0.0100052 0.000914893 0)
(-0.0110185 0.00080529 0)
(-0.0118958 0.00068536 0)
(-0.012623 0.000556874 0)
(-0.0131917 0.000420821 0)
(-0.0135946 0.000278213 0)
(-0.0138251 0.000130499 0)
(-0.0138785 -2.08261e-05 0)
(-0.0137521 -0.000174272 0)
(-0.0134449 -0.00032805 0)
(-0.0129589 -0.000480073 0)
(-0.0122969 -0.000628589 0)
(-0.0114631 -0.000771795 0)
(-0.0104699 -0.000906634 0)
(-0.00932733 -0.00103124 0)
(-0.00804055 -0.00114357 0)
(-0.00665114 -0.00123752 0)
(-0.00514796 -0.00130166 0)
(-0.00363426 -0.00130193 0)
(-0.00211837 -0.00117894 0)
(-0.000839296 -0.000831596 0)
(-0.000112808 -0.000238507 0)
(-0.000183307 0.000768968 0)
(-0.00113896 0.00200197 0)
(-0.00272832 0.00268046 0)
(-0.00457357 0.00293164 0)
(-0.00640922 0.00294516 0)
(-0.00823865 0.00283619 0)
(-0.00994949 0.00266502 0)
(-0.011556 0.00245342 0)
(-0.0130101 0.00221125 0)
(-0.0143027 0.00194189 0)
(-0.0154201 0.00164824 0)
(-0.0163441 0.00133388 0)
(-0.0170644 0.0010017 0)
(-0.0175719 0.000654696 0)
(-0.0178586 0.000296337 0)
(-0.0179191 -6.97906e-05 0)
(-0.0177501 -0.000439963 0)
(-0.017351 -0.000810001 0)
(-0.0167244 -0.00117526 0)
(-0.0158743 -0.00153121 0)
(-0.0148059 -0.00187305 0)
(-0.0135359 -0.00219467 0)
(-0.0120769 -0.00249061 0)
(-0.0104352 -0.00275442 0)
(-0.00866701 -0.00297191 0)
(-0.00675281 -0.00311598 0)
(-0.00482661 -0.00311808 0)
(-0.00287701 -0.00285667 0)
(-0.00120458 -0.00213529 0)
(-0.000191443 -0.000825993 0)
(-0.000216914 0.0014483 0)
(-0.00132016 0.00346874 0)
(-0.00312613 0.00453166 0)
(-0.0052014 0.0049177 0)
(-0.00725156 0.00492785 0)
(-0.0092904 0.00474371 0)
(-0.0111939 0.00445608 0)
(-0.0129807 0.00410074 0)
(-0.0145969 0.00369293 0)
(-0.0160327 0.00323971 0)
(-0.0172732 0.00274646 0)
(-0.0182983 0.00221873 0)
(-0.0190968 0.00166172 0)
(-0.0196588 0.00108078 0)
(-0.0199758 0.000481603 0)
(-0.0200418 -0.000129859 0)
(-0.0198533 -0.000747367 0)
(-0.0194096 -0.00136406 0)
(-0.0187134 -0.0019725 0)
(-0.017769 -0.00256497 0)
(-0.0165821 -0.00313315 0)
(-0.0151709 -0.00366766 0)
(-0.0135491 -0.00415891 0)
(-0.0117235 -0.0045948 0)
(-0.00975722 -0.00495369 0)
(-0.00762547 -0.00519158 0)
(-0.00547645 -0.00520645 0)
(-0.00328657 -0.00480624 0)
(-0.00139009 -0.00367942 0)
(-0.00022451 -0.00154012 0)
(-0.000232144 0.00219231 0)
(-0.00142061 0.00506755 0)
(-0.00336521 0.00653388 0)
(-0.0055882 0.00705299 0)
(-0.00777699 0.00705175 0)
(-0.0099491 0.00678355 0)
(-0.011975 0.00636965 0)
(-0.0138755 0.00585996 0)
(-0.0155941 0.00527472 0)
(-0.0171205 0.00462486 0)
(-0.0184394 0.00391846 0)
(-0.0195298 0.00316317 0)
(-0.02038 0.00236664 0)
(-0.0209799 0.00153662 0)
(-0.0213204 0.000681103 0)
(-0.0213952 -0.000191547 0)
(-0.0212004 -0.00107249 0)
(-0.0207347 -0.00195216 0)
(-0.0200007 -0.00282023 0)
(-0.0190021 -0.00366567 0)
(-0.0177445 -0.00447646 0)
(-0.0162463 -0.00523964 0)
(-0.0145214 -0.00594117 0)
(-0.0125769 -0.00656284 0)
(-0.0104786 -0.00707571 0)
(-0.0082001 -0.00741833 0)
(-0.0058972 -0.00745487 0)
(-0.00354369 -0.00691658 0)
(-0.00149637 -0.00536208 0)
(-0.000239692 -0.00232013 0)
(-0.000243377 0.00297981 0)
(-0.00149892 0.00676724 0)
(-0.00356144 0.00865905 0)
(-0.00591333 0.00931378 0)
(-0.00822696 0.0092961 0)
(-0.0105186 0.00893633 0)
(-0.0126551 0.00838765 0)
(-0.0146572 0.00771438 0)
(-0.0164678 0.0069419 0)
(-0.0180757 0.00608498 0)
(-0.0194656 0.00515454 0)
(-0.0206161 0.00416052 0)
(-0.0215152 0.00311297 0)
(-0.0221525 0.00202199 0)
(-0.0225187 0.000897864 0)
(-0.0226069 -0.000248693 0)
(-0.0224125 -0.00140633 0)
(-0.0219338 -0.00256283 0)
(-0.0211724 -0.00370499 0)
(-0.020131 -0.00481843 0)
(-0.0188145 -0.00588731 0)
(-0.0172412 -0.0068948 0)
(-0.0154238 -0.00782202 0)
(-0.0133703 -0.00864436 0)
(-0.0111474 -0.0093249 0)
(-0.00872942 -0.0097836 0)
(-0.00627827 -0.00984831 0)
(-0.00377165 -0.00916746 0)
(-0.00158627 -0.00715762 0)
(-0.000252256 -0.00314742 0)
(-0.000256355 0.00380839 0)
(-0.00158292 0.00856475 0)
(-0.00377225 0.0109078 0)
(-0.00626488 0.0117041 0)
(-0.00871778 0.0116667 0)
(-0.0111429 0.011208 0)
(-0.0134033 0.0105155 0)
(-0.015519 0.00966875 0)
(-0.0174322 0.00869871 0)
(-0.019131 0.00762405 0)
(-0.0206002 0.00645863 0)
(-0.0218182 0.00521477 0)
(-0.022773 0.0039049 0)
(-0.0234539 0.00254137 0)
(-0.0238515 0.00113663 0)
(-0.0239581 -0.000296436 0)
(-0.0237684 -0.00174418 0)
(-0.0232797 -0.0031919 0)
(-0.0224923 -0.00462357 0)
(-0.0214075 -0.00602146 0)
(-0.0200291 -0.00736588 0)
(-0.0183743 -0.00863579 0)
(-0.0164544 -0.00980699 0)
(-0.0142784 -0.010848 0)
(-0.0119129 -0.0117126 0)
(-0.0093351 -0.0123006 0)
(-0.0067128 -0.0123995 0)
(-0.00403168 -0.0115684 0)
(-0.00168965 -0.00907063 0)
(-0.000268206 -0.00402361 0)
(-0.000273028 0.00468563 0)
(-0.00168427 0.0104743 0)
(-0.00402306 0.0132988 0)
(-0.00668184 0.0142451 0)
(-0.00930017 0.0141849 0)
(-0.0118836 0.0136188 0)
(-0.0142913 0.0127719 0)
(-0.0165411 0.0117398 0)
(-0.0185754 0.0105599 0)
(-0.0203811 0.00925502 0)
(-0.0219434 0.00784199 0)
(-0.023241 0.0063357 0)
(-0.0242617 0.00475087 0)
(-0.0249949 0.00310193 0)
(-0.0254308 0.00140326 0)
(-0.0255613 -0.000330358 0)
(-0.02538 -0.00208331 0)
(-0.0248829 -0.00383866 0)
(-0.0240685 -0.00557776 0)
(-0.0229362 -0.00727962 0)
(-0.021488 -0.00892066 0)
(-0.0197395 -0.0104752 0)
(-0.0176999 -0.0119132 0)
(-0.0153789 -0.0131955 0)
(-0.012843 -0.0142649 0)
(-0.0100731 -0.0149985 0)
(-0.00724381 -0.015139 0)
(-0.00435163 -0.0141485 0)
(-0.00181908 -0.0111245 0)
(-0.00028949 -0.00496096 0)
(-0.000294103 0.0056232 0)
(-0.00180827 0.0125189 0)
(-0.00432627 0.0158603 0)
(-0.00718328 0.0169662 0)
(-0.00999864 0.0168796 0)
(-0.01277 0.0161958 0)
(-0.0153519 0.0151812 0)
(-0.0177597 0.0139493 0)
(-0.019936 0.0125446 0)
(-0.0218666 0.0109943 0)
(-0.0235375 0.00931877 0)
(-0.0249279 0.00753537 0)
(-0.0260258 0.00566105 0)
(-0.0268207 0.00371209 0)
(-0.0273029 0.00170445 0)
(-0.0274636 -0.000345601 0)
(-0.0272952 -0.00242095 0)
(-0.0267919 -0.00450286 0)
(-0.0259502 -0.00657038 0)
(-0.0247664 -0.00859948 0)
(-0.0232405 -0.0105627 0)
(-0.0213851 -0.0124293 0)
(-0.0192064 -0.0141626 0)
(-0.0167148 -0.0157146 0)
(-0.0139759 -0.0170151 0)
(-0.0109752 -0.0179155 0)
(-0.00789541 -0.0181077 0)
(-0.00474646 -0.0169477 0)
(-0.00198048 -0.0133523 0)
(-0.000316748 -0.00597602 0)
(-0.000320076 0.00663475 0)
(-0.00195848 0.0147263 0)
(-0.00469049 0.0186253 0)
(-0.00778247 0.0199016 0)
(-0.0108301 0.0197832 0)
(-0.0138217 0.0189688 0)
(-0.0166068 0.0177701 0)
(-0.0191978 0.0163204 0)
(-0.0215379 0.0146727 0)
(-0.0236118 0.0128591 0)
(-0.0254068 0.0109036 0)
(-0.0269032 0.00882623 0)
(-0.0280895 0.00664604 0)
(-0.0289561 0.00438084 0)
(-0.029493 0.0020477 0)
(-0.0296912 -0.000336234 0)
(-0.0295416 -0.00275303 0)
(-0.0290365 -0.00518276 0)
(-0.0281691 -0.00760273 0)
(-0.0269323 -0.00998628 0)
(-0.0253225 -0.0123021 0)
(-0.0233484 -0.0145142 0)
(-0.0210116 -0.0165782 0)
(-0.0183225 -0.0184359 0)
(-0.0153449 -0.0200013 0)
(-0.0120694 -0.0210961 0)
(-0.00868844 -0.0213541 0)
(-0.00522871 -0.020014 0)
(-0.00217854 -0.0157937 0)
(-0.000350485 -0.00708757 0)
(-0.000351491 0.00773559 0)
(-0.00213838 0.017128 0)
(-0.00512412 0.0216315 0)
(-0.00849245 0.0230889 0)
(-0.0118113 0.0229311 0)
(-0.015058 0.0219693 0)
(-0.0180768 0.0205662 0)
(-0.0208769 0.0188769 0)
(-0.0234025 0.0169643 0)
(-0.0256376 0.0148662 0)
(-0.0275716 0.0126106 0)
(-0.0291866 0.0102204 0)
(-0.0304722 0.0077164 0)
(-0.0314201 0.00511755 0)
(-0.032021 0.0024414 0)
(-0.0322653 -0.000294809 0)
(-0.0321427 -0.00307341 0)
(-0.0316426 -0.00587405 0)
(-0.0307546 -0.00867323 0)
(-0.0294669 -0.0114423 0)
(-0.0277707 -0.0141466 0)
(-0.0256689 -0.0167444 0)
(-0.0231567 -0.0191829 0)
(-0.0202431 -0.0213916 0)
(-0.0169882 -0.0232653 0)
(-0.0133887 -0.0245907 0)
(-0.00964777 -0.0249345 0)
(-0.00581358 -0.0234033 0)
(-0.00241912 -0.0184946 0)
(-0.000391495 -0.00831688 0)
(-0.000389043 0.00894304 0)
(-0.00235212 0.0197602 0)
(-0.00563706 0.0249216 0)
(-0.0093286 0.0265706 0)
(-0.0129619 0.0263618 0)
(-0.0165017 0.0252313 0)
(-0.0197862 0.0235981 0)
(-0.0228215 0.0216425 0)
(-0.0255536 0.0194389 0)
(-0.0279667 0.0170316 0)
(-0.0300532 0.014453 0)
(-0.0317978 0.0117291 0)
(-0.0331927 0.00888225 0)
(-0.0342314 0.00593176 0)
(-0.0349057 0.0028949 0)
(-0.0352063 -0.00021201 0)
(-0.0351212 -0.00337322 0)
(-0.0346366 -0.00656892 0)
(-0.0337376 -0.00977618 0)
(-0.0324062 -0.0129656 0)
(-0.0306267 -0.0160996 0)
(-0.0283931 -0.0191312 0)
(-0.0256919 -0.0219979 0)
(-0.0225277 -0.0246148 0)
(-0.0189549 -0.0268532 0)
(-0.0149758 -0.0284573 0)
(-0.0108064 -0.0289151 0)
(-0.00652175 -0.0271825 0)
(-0.00271048 -0.0215097 0)
(-0.000441016 -0.00968875 0)
(-0.000433689 0.0102769 0)
(-0.00260516 0.0226644 0)
(-0.00624203 0.0285443 0)
(-0.0103104 0.0303942 0)
(-0.0143066 0.030118 0)
(-0.0181805 0.0287908 0)
(-0.0217643 0.0268955 0)
(-0.0250607 0.0246409 0)
(-0.028019 0.0221149 0)
(-0.0306248 0.0193694 0)
(-0.0328745 0.0164422 0)
(-0.0347576 0.0133622 0)
(-0.0362698 0.0101527 0)
(-0.0374077 0.00683285 0)
(-0.038165 0.00341824 0)
(-0.0385336 -7.76381e-05 0)
(-0.0384998 -0.00364039 0)
(-0.0380457 -0.00725487 0)
(-0.0371515 -0.0109002 0)
(-0.0357909 -0.0145477 0)
(-0.0339388 -0.0181586 0)
(-0.0315769 -0.0216806 0)
(-0.0286791 -0.0250413 0)
(-0.0252416 -0.0281387 0)
(-0.0213092 -0.0308149 0)
(-0.0168884 -0.0327624 0)
(-0.0122097 -0.0333744 0)
(-0.00738199 -0.0314324 0)
(-0.0030643 -0.0249055 0)
(-0.000500837 -0.0112331 0)
(-0.00048679 0.0117605 0)
(-0.00290494 0.0258892 0)
(-0.00695601 0.0325562 0)
(-0.0114635 0.0346139 0)
(-0.0158771 0.0342466 0)
(-0.02013 0.0326863 0)
(-0.0240474 0.0304882 0)
(-0.0276298 0.027894 0)
(-0.0308313 0.025008 0)
(-0.0336408 0.0218909 0)
(-0.0360609 0.0185865 0)
(-0.0380876 0.0151265 0)
(-0.0397222 0.011535 0)
(-0.0409661 0.0078296 0)
(-0.0418164 0.00402275 0)
(-0.0422651 0.000123567 0)
(-0.0422986 -0.00385811 0)
(-0.0418966 -0.00791333 0)
(-0.0410307 -0.0120261 0)
(-0.0396654 -0.0161715 0)
(-0.0377626 -0.0203113 0)
(-0.0352874 -0.02439 0)
(-0.0321955 -0.0283248 0)
(-0.0284688 -0.0319942 0)
(-0.0241358 -0.0352042 0)
(-0.0192043 -0.0375829 0)
(-0.0139202 -0.0384075 0)
(-0.00843478 -0.0362531 0)
(-0.00349706 -0.0287656 0)
(-0.000573426 -0.0129872 0)
(-0.000550291 0.0134218 0)
(-0.00326178 0.0294929 0)
(-0.00780208 0.037024 0)
(-0.0128219 0.0392921 0)
(-0.0177152 0.0388003 0)
(-0.0223954 0.0369585 0)
(-0.0266811 0.0344057 0)
(-0.0305718 0.0314218 0)
(-0.0340291 0.0281303 0)
(-0.0370478 0.024603 0)
(-0.0396395 0.0208897 0)
(-0.0418096 0.0170253 0)
(-0.0435671 0.0130334 0)
(-0.0449203 0.00892917 0)
(-0.0458713 0.00471998 0)
(-0.0464148 0.00040858 0)
(-0.046537 -0.00400475 0)
(-0.046214 -0.00851828 0)
(-0.04541 -0.013125 0)
(-0.044077 -0.0178075 0)
(-0.0421609 -0.0225323 0)
(-0.0396042 -0.0272436 0)
(-0.036337 -0.0318493 0)
(-0.0323176 -0.0362065 0)
(-0.027548 -0.0400769 0)
(-0.0220309 -0.0430076 0)
(-0.0160261 -0.0441307 0)
(-0.00973801 -0.0417716 0)
(-0.00403232 -0.0331968 0)
(-0.00066217 -0.0149981 0)
(-0.000627017 0.0152954 0)
(-0.00369029 0.0335469 0)
(-0.0088122 0.0420279 0)
(-0.0144318 0.0445017 0)
(-0.019876 0.0438372 0)
(-0.0250352 0.0416499 0)
(-0.0297227 0.0386755 0)
(-0.0339394 0.0352393 0)
(-0.037658 0.0314878 0)
(-0.0408832 0.0275053 0)
(-0.0436393 0.0233488 0)
(-0.0459444 0.0190553 0)
(-0.0478188 0.0146476 0)
(-0.04928 0.0101358 0)
(-0.0503374 0.00552033 0)
(-0.0509902 0.000794223 0)
(-0.0512259 -0.00405382 0)
(-0.0510173 -0.00903478 0)
(-0.0503204 -0.0141551 0)
(-0.0490739 -0.0194101 0)
(-0.0472029 -0.0247772 0)
(-0.0446207 -0.0302053 0)
(-0.0412222 -0.0355974 0)
(-0.0369283 -0.0407882 0)
(-0.031699 -0.0454871 0)
(-0.0255184 -0.0491383 0)
(-0.018655 -0.0506887 0)
(-0.0113771 -0.0481524 0)
(-0.00470497 -0.0383407 0)
(-0.000771873 -0.0173276 0)
(-0.000721176 0.0174257 0)
(-0.00421153 0.0381408 0)
(-0.0100313 0.0476659 0)
(-0.0163568 0.0503281 0)
(-0.0224331 0.0494222 0)
(-0.0281259 0.0468032 0)
(-0.033245 0.0433211 0)
(-0.0377971 0.0393544 0)
(-0.0417717 0.0350772 0)
(-0.0451889 0.030588 0)
(-0.0480904 0.0259511 0)
(-0.0505114 0.0212052 0)
(-0.0524872 0.0163701 0)
(-0.0540481 0.0114491 0)
(-0.0552134 0.0064328 0)
(-0.0559894 0.0013011 0)
(-0.0563665 -0.00397265 0)
(-0.0563158 -0.00941722 0)
(-0.0557859 -0.0150585 0)
(-0.0547007 -0.0209122 0)
(-0.0529612 -0.0269749 0)
(-0.0504439 -0.0332096 0)
(-0.0469964 -0.0395222 0)
(-0.0424831 -0.0457291 0)
(-0.0367976 -0.0514797 0)
(-0.0298814 -0.056089 0)
(-0.021996 -0.0582626 0)
(-0.0134832 -0.0556147 0)
(-0.00556941 -0.0443909 0)
(-0.000909894 -0.0200591 0)
(-0.000839238 0.019871 0)
(-0.00485651 0.0433902 0)
(-0.0115237 0.0540601 0)
(-0.0186848 0.0568726 0)
(-0.0254862 0.0556264 0)
(-0.0317674 0.05246 0)
(-0.0373402 0.0483583 0)
(-0.0422245 0.0437636 0)
(-0.0464339 0.0388817 0)
(-0.0500117 0.0338271 0)
(-0.0530231 0.0286707 0)
(-0.0555261 0.0234516 0)
(-0.0575755 0.0181841 0)
(-0.0592178 0.0128622 0)
(-0.060486 0.00746309 0)
(-0.0613962 0.00195023 0)
(-0.0619447 -0.00372287 0)
(-0.0621036 -0.00960826 0)
(-0.0618161 -0.0157586 0)
(-0.060992 -0.0222194 0)
(-0.0595062 -0.0290186 0)
(-0.0571915 -0.0361474 0)
(-0.0538341 -0.0435304 0)
(-0.0492171 -0.0509768 0)
(-0.0431309 -0.0580745 0)
(-0.0354323 -0.0639797 0)
(-0.0263398 -0.0670803 0)
(-0.016267 -0.0644579 0)
(-0.00671632 -0.0516228 0)
(-0.001089 -0.0233105 0)
(-0.00099163 0.0227106 0)
(-0.00567228 0.0494478 0)
(-0.0133831 0.0613652 0)
(-0.0215402 0.0642559 0)
(-0.0291708 0.0625266 0)
(-0.0360914 0.0586558 0)
(-0.0421258 0.05379 0)
(-0.0473183 0.0484459 0)
(-0.0517184 0.0428654 0)
(-0.0554022 0.0371793 0)
(-0.0584664 0.0314638 0)
(-0.0609982 0.0257554 0)
(-0.0630766 0.0200599 0)
(-0.0647688 0.0143582 0)
(-0.066125 0.00861088 0)
(-0.0671749 0.00276111 0)
(-0.0679243 -0.00326182 0)
(-0.0683507 -0.00953894 0)
(-0.0683964 -0.0161575 0)
(-0.0679609 -0.0232043 0)
(-0.0668944 -0.0307543 0)
(-0.0649825 -0.0388488 0)
(-0.0619367 -0.0474566 0)
(-0.0574284 -0.0564059 0)
(-0.051093 -0.0652359 0)
(-0.0426317 -0.0729179 0)
(-0.0321447 -0.077423 0)
(-0.0200833 -0.0750993 0)
(-0.00830906 -0.060446 0)
(-0.00133511 -0.0272604 0)
(-0.00119615 0.026057 0)
(-0.00673281 0.0565208 0)
(-0.0157492 0.0697792 0)
(-0.0251001 0.0726205 0)
(-0.0336724 0.0702012 0)
(-0.0412709 0.0654137 0)
(-0.0477496 0.0595972 0)
(-0.0531952 0.0533541 0)
(-0.0577092 0.046965 0)
(-0.0614129 0.0405755 0)
(-0.0644443 0.0342632 0)
(-0.0669264 0.0280573 0)
(-0.0689682 0.0219505 0)
(-0.0706616 0.0159069 0)
(-0.0720771 0.0098663 0)
(-0.0732622 0.00374834 0)
(-0.0742372 -0.00254575 0)
(-0.0749908 -0.00913081 0)
(-0.0754722 -0.0161363 0)
(-0.0755795 -0.0237022 0)
(-0.0751461 -0.03197 0)
(-0.0739145 -0.0410602 0)
(-0.0715149 -0.0510273 0)
(-0.0674762 -0.0617681 0)
(-0.0612126 -0.0728151 0)
(-0.0521575 -0.0829526 0)
(-0.0401457 -0.089619 0)
(-0.0255509 -0.0881294 0)
(-0.0106637 -0.0714976 0)
(-0.00170844 -0.0322039 0)
(-0.0014852 0.0300771 0)
(-0.00815888 0.0648969 0)
(-0.0188346 0.0795579 0)
(-0.0296192 0.0821313 0)
(-0.0392441 0.0787223 0)
(-0.0475301 0.0727318 0)
(-0.054393 0.0657262 0)
(-0.0599893 0.058403 0)
(-0.0644934 0.0510803 0)
(-0.0680885 0.0439125 0)
(-0.0709641 0.0369715 0)
(-0.0732867 0.030272 0)
(-0.0751995 0.0237876 0)
(-0.0768223 0.0174599 0)
(-0.0782494 0.0112052 0)
(-0.0795492 0.00491627 0)
(-0.0807617 -0.00153568 0)
(-0.081895 -0.00830206 0)
(-0.0829164 -0.0155597 0)
(-0.0837381 -0.0235125 0)
(-0.0841952 -0.0323883 0)
(-0.0840058 -0.042423 0)
(-0.0827293 -0.0538156 0)
(-0.0797349 -0.0666162 0)
(-0.0741437 -0.0804491 0)
(-0.0649625 -0.0939715 0)
(-0.0514977 -0.103993 0)
(-0.0337543 -0.104372 0)
(-0.0144161 -0.0858063 0)
(-0.00235796 -0.0386787 0)
(-0.00192149 0.0350314 0)
(-0.0101553 0.0749847 0)
(-0.0229672 0.0910294 0)
(-0.0354621 0.0929686 0)
(-0.0462231 0.0881371 0)
(-0.0551455 0.0805609 0)
(-0.0622588 0.0720675 0)
(-0.0678289 0.0634511 0)
(-0.0721314 0.0550584 0)
(-0.0754298 0.0470409 0)
(-0.0779767 0.039452 0)
(-0.079988 0.0322813 0)
(-0.0816442 0.0254744 0)
(-0.0830941 0.018945 0)
(-0.084457 0.0125819 0)
(-0.0858244 0.00625034 0)
(-0.0872607 -0.000208275 0)
(-0.0888016 -0.00698082 0)
(-0.0904474 -0.0142913 0)
(-0.0921469 -0.0224123 0)
(-0.0937686 -0.0316735 0)
(-0.095048 -0.0424626 0)
(-0.0955171 -0.055197 0)
(-0.0944073 -0.0702085 0)
(-0.0905028 -0.0874004 0)
(-0.0821944 -0.105499 0)
(-0.0678445 -0.120708 0)
(-0.0464793 -0.124906 0)
(-0.0208188 -0.105052 0)
(-0.00364479 -0.0477424 0)
(-0.00263235 0.0413497 0)
(-0.0130794 0.0873708 0)
(-0.0286503 0.104601 0)
(-0.0431309 0.105301 0)
(-0.0550192 0.0984278 0)
(-0.0643984 0.0887638 0)
(-0.0714946 0.0784186 0)
(-0.0767368 0.0682693 0)
(-0.0805366 0.0586697 0)
(-0.0832585 0.0497462 0)
(-0.0852281 0.0415139 0)
(-0.0867138 0.0339214 0)
(-0.0879328 0.0268753 0)
(-0.0890605 0.0202543 0)
(-0.0902384 0.0139169 0)
(-0.0915804 0.00770165 0)
(-0.0931762 0.00142397 0)
(-0.095096 -0.00513245 0)
(-0.097388 -0.0122274 0)
(-0.100064 -0.0201974 0)
(-0.10307 -0.0294749 0)
(-0.106226 -0.0406227 0)
(-0.10913 -0.0543495 0)
(-0.110974 -0.0714336 0)
(-0.110254 -0.0923618 0)
(-0.104604 -0.116363 0)
(-0.0909042 -0.139374 0)
(-0.0661532 -0.150871 0)
(-0.0320799 -0.13186 0)
(-0.00636377 -0.0615189 0)
(-0.00388192 0.0497779 0)
(-0.0175582 0.102889 0)
(-0.0366195 0.120723 0)
(-0.0532199 0.119202 0)
(-0.0659671 0.109416 0)
(-0.0753375 0.0970249 0)
(-0.0818768 0.0844047 0)
(-0.0862495 0.0724747 0)
(-0.0890428 0.0615533 0)
(-0.0907418 0.0517047 0)
(-0.0917502 0.0428763 0)
(-0.0923851 0.0349536 0)
(-0.0928925 0.0277893 0)
(-0.0934649 0.0212196 0)
(-0.0942568 0.0150704 0)
(-0.0953965 0.00915671 0)
(-0.0969952 0.00327539 0)
(-0.0991533 -0.0028067 0)
(-0.101976 -0.00936366 0)
(-0.105561 -0.0167724 0)
(-0.109972 -0.0255445 0)
(-0.115198 -0.036406 0)
(-0.121039 -0.0503945 0)
(-0.126853 -0.0688954 0)
(-0.13108 -0.0933819 0)
(-0.130683 -0.124336 0)
(-0.120624 -0.158357 0)
(-0.0945241 -0.1827 0)
(-0.0511739 -0.169708 0)
(-0.0119756 -0.0839799 0)
(-0.00621207 0.0616705 0)
(-0.0246515 0.12266 0)
(-0.0477649 0.139719 0)
(-0.0660396 0.134401 0)
(-0.0786703 0.120511 0)
(-0.0868818 0.104617 0)
(-0.0917182 0.0892766 0)
(-0.0941692 0.075362 0)
(-0.0950377 0.0630809 0)
(-0.0949374 0.0523757 0)
(-0.094339 0.0430823 0)
(-0.0935883 0.0349936 0)
(-0.0929364 0.0278911 0)
(-0.0925696 0.0215597 0)
(-0.0926338 0.0157922 0)
(-0.093253 0.0103855 0)
(-0.0945429 0.0051315 0)
(-0.096615 -0.000199636 0)
(-0.0996207 -0.0058937 0)
(-0.103743 -0.0122987 0)
(-0.109177 -0.0199544 0)
(-0.116129 -0.0296867 0)
(-0.124735 -0.0428187 0)
(-0.134795 -0.0614126 0)
(-0.145172 -0.0883106 0)
(-0.152733 -0.126226 0)
(-0.150727 -0.174114 0)
(-0.128516 -0.218583 0)
(-0.0795548 -0.221478 0)
(-0.022317 -0.12132 0)
(-0.0106866 0.0795808 0)
(-0.0359622 0.147897 0)
(-0.0624248 0.161163 0)
(-0.0800499 0.149566 0)
(-0.0897254 0.13003 0)
(-0.0940055 0.109821 0)
(-0.0946716 0.0914442 0)
(-0.0931189 0.0755466 0)
(-0.0903651 0.0620915 0)
(-0.0871081 0.0508068 0)
(-0.0838241 0.0413566 0)
(-0.0808243 0.0334061 0)
(-0.078308 0.0266486 0)
(-0.0764058 0.020813 0)
(-0.0752121 0.0156611 0)
(-0.0748074 0.0109799 0)
(-0.0752768 0.00656887 0)
(-0.0767322 0.00221949 0)
(-0.0793076 -0.00232104 0)
(-0.0832085 -0.00735509 0)
(-0.0887368 -0.0133568 0)
(-0.0962728 -0.0211369 0)
(-0.106298 -0.0321489 0)
(-0.119249 -0.0490043 0)
(-0.135019 -0.0760278 0)
(-0.151615 -0.118965 0)
(-0.162235 -0.181256 0)
(-0.152927 -0.252541 0)
(-0.110789 -0.285698 0)
(-0.0372788 -0.181153 0)
(-0.0191886 0.107959 0)
(-0.0530972 0.178345 0)
(-0.0772089 0.181997 0)
(-0.0865782 0.160539 0)
(-0.0861562 0.133768 0)
(-0.0805367 0.108899 0)
(-0.0723314 0.0878078 0)
(-0.0632008 0.0705636 0)
(-0.0541645 0.0566714 0)
(-0.0457876 0.0455257 0)
(-0.0383636 0.0365616 0)
(-0.0320191 0.0292963 0)
(-0.0267864 0.0233342 0)
(-0.0226536 0.0183571 0)
(-0.0195972 0.0141094 0)
(-0.0176019 0.0103812 0)
(-0.0166758 0.00699164 0)
(-0.0168645 0.00377051 0)
(-0.0182553 0.000539966 0)
(-0.0210065 -0.00295022 0)
(-0.025385 -0.00704978 0)
(-0.0318173 -0.0124176 0)
(-0.0409621 -0.0203851 0)
(-0.0537973 -0.0336834 0)
(-0.071557 -0.0575748 0)
(-0.0948383 -0.100671 0)
(-0.120301 -0.1724 0)
(-0.134597 -0.271341 0)
(-0.122558 -0.349688 0)
(-0.0493349 -0.269541 0)
(-0.0333665 0.151787 0)
(-0.0720784 0.205425 0)
(-0.0720146 0.190557 0)
(-0.0546932 0.156052 0)
(-0.0306782 0.122452 0)
(-0.00591152 0.0948332 0)
(0.0172081 0.0733068 0)
(0.0377376 0.0568515 0)
(0.0554056 0.0443401 0)
(0.0703118 0.0348019 0)
(0.0827054 0.0274721 0)
(0.0928804 0.0217695 0)
(0.101123 0.0172609 0)
(0.107686 0.0136264 0)
(0.112773 0.0106285 0)
(0.116539 0.00808768 0)
(0.11909 0.00586187 0)
(0.120478 0.00383094 0)
(0.120697 0.00188125 0)
(0.119676 -0.000136373 0)
(0.11727 -0.00244647 0)
(0.113145 -0.00547997 0)
(0.106671 -0.010166 0)
(0.0966622 -0.0186388 0)
(0.0808959 -0.0355949 0)
(0.0560165 -0.0704729 0)
(0.0181092 -0.137975 0)
(-0.0265634 -0.251101 0)
(-0.0771292 -0.380897 0)
(-0.0381904 -0.37147 0)
(-0.0359518 0.241111 0)
(-0.0419109 0.209797 0)
(0.0342828 0.154545 0)
(0.100876 0.112742 0)
(0.158858 0.0812776 0)
(0.206444 0.0584632 0)
(0.244448 0.0424365 0)
(0.274545 0.0312581 0)
(0.298341 0.0234009 0)
(0.317178 0.0177999 0)
(0.332123 0.0137369 0)
(0.344001 0.0107273 0)
(0.353444 0.00844414 0)
(0.360927 0.00666692 0)
(0.366804 0.00524607 0)
(0.371337 0.00407744 0)
(0.374709 0.00308474 0)
(0.377046 0.00220736 0)
(0.37841 0.00139239 0)
(0.378799 0.000583565 0)
(0.378152 -0.000311869 0)
(0.376241 -0.00149756 0)
(0.372526 -0.00342381 0)
(0.36586 -0.00713768 0)
(0.353511 -0.0150725 0)
(0.330676 -0.0332961 0)
(0.286587 -0.0749856 0)
(0.21708 -0.166597 0)
(0.0771968 -0.319213 0)
(0.0408136 -0.400381 0)
(0.232697 0.159894 0)
(0.296487 0.120108 0)
(0.448884 0.077832 0)
(0.547356 0.051061 0)
(0.61075 0.033367 0)
(0.653988 0.0215931 0)
(0.684216 0.0139915 0)
(0.705612 0.00919329 0)
(0.721033 0.00618315 0)
(0.732411 0.00428468 0)
(0.740998 0.00306986 0)
(0.747602 0.00227234 0)
(0.752752 0.00172889 0)
(0.756802 0.00134137 0)
(0.759994 0.00105153 0)
(0.762494 0.000824524 0)
(0.764416 0.000638621 0)
(0.765839 0.000478758 0)
(0.766809 0.000332551 0)
(0.767336 0.000186772 0)
(0.767393 2.90747e-05 0)
(0.766828 -0.000180226 0)
(0.765246 -0.000560729 0)
(0.76193 -0.00137533 0)
(0.754507 -0.00314869 0)
(0.739848 -0.00745144 0)
(0.703568 -0.0174859 0)
(0.641153 -0.0425172 0)
(0.448789 -0.108092 0)
(0.311632 -0.178989 0)
)
;

boundaryField
{
    movingWall
    {
        type            fixedValue;
        value           uniform (1 0 0);
    }
    fixedWalls
    {
        type            noSlip;
    }
    frontAndBack
    {
        type            empty;
    }
}


// ************************************************************************* //
