/*--------------------------------*- C++ -*----------------------------------*\
  =========                 |
  \\      /  F ield         | OpenFOAM: The Open Source CFD Toolbox
   \\    /   O peration     | Website:  https://openfoam.org
    \\  /    A nd           | Version:  7
     \\/     M anipulation  |
\*---------------------------------------------------------------------------*/
FoamFile
{
    version     2.0;
    format      ascii;
    class       surfaceScalarField;
    location    "0.6";
    object      phi;
}
// * * * * * * * * * * * * * * * * * * * * * * * * * * * * * * * * * * * * * //

dimensions      [0 3 -1 0 0 0 0];

internalField   nonuniform List<scalar> 
1740
(
-7.99412e-07
7.99416e-07
-3.52331e-06
2.7239e-06
-7.28936e-06
3.76605e-06
-1.12589e-05
3.96952e-06
-1.52028e-05
3.94391e-06
-1.89304e-05
3.72756e-06
-2.2427e-05
3.49666e-06
-2.56259e-05
3.19884e-06
-2.85068e-05
2.88089e-06
-3.10331e-05
2.52636e-06
-3.31665e-05
2.13339e-06
-3.48873e-05
1.7208e-06
-3.61749e-05
1.28759e-06
-3.70094e-05
8.3446e-07
-3.73774e-05
3.67996e-07
-3.72709e-05
-1.06468e-07
-3.66849e-05
-5.85999e-07
-3.56197e-05
-1.06522e-06
-3.4085e-05
-1.53469e-06
-3.20934e-05
-1.99157e-06
-2.96543e-05
-2.4391e-06
-2.68019e-05
-2.85239e-06
-2.35717e-05
-3.23019e-06
-1.99765e-05
-3.59524e-06
-1.60925e-05
-3.884e-06
-1.19299e-05
-4.16257e-06
-7.72415e-06
-4.20578e-06
-3.72592e-06
-3.99823e-06
-8.53989e-07
-2.87193e-06
-8.53988e-07
-2.78253e-06
3.58194e-06
-8.87931e-06
8.82068e-06
-1.65444e-05
1.14312e-05
-2.46093e-05
1.20344e-05
-3.25862e-05
1.19208e-05
-4.01844e-05
1.13258e-05
-4.72961e-05
1.06084e-05
-5.3808e-05
9.71068e-06
-5.96553e-05
8.72817e-06
-6.47627e-05
7.6338e-06
-6.90707e-05
6.44138e-06
-7.25286e-05
5.17867e-06
-7.50933e-05
3.85234e-06
-7.67315e-05
2.47262e-06
-7.74188e-05
1.0553e-06
-7.71405e-05
-3.84745e-07
-7.58912e-05
-1.83529e-06
-7.36757e-05
-3.28074e-06
-7.05102e-05
-4.70018e-06
-6.64229e-05
-6.07883e-06
-6.14524e-05
-7.4096e-06
-5.565e-05
-8.65484e-06
-4.9088e-05
-9.79216e-06
-4.18285e-05
-1.08548e-05
-3.39943e-05
-1.17182e-05
-2.57029e-05
-1.2454e-05
-1.7287e-05
-1.26217e-05
-9.27192e-06
-1.20133e-05
-2.9098e-06
-9.23405e-06
-3.76379e-06
-3.82437e-06
7.40632e-06
-1.16749e-05
1.66712e-05
-2.12041e-05
2.09604e-05
-3.11681e-05
2.19984e-05
-4.09546e-05
2.17074e-05
-5.02997e-05
2.06709e-05
-5.90225e-05
1.93312e-05
-6.70228e-05
1.7711e-05
-7.41896e-05
1.5895e-05
-8.0445e-05
1.38892e-05
-8.57179e-05
1.17143e-05
-8.99426e-05
9.40336e-06
-9.30674e-05
6.97715e-06
-9.50532e-05
4.45842e-06
-9.58718e-05
1.87389e-06
-9.55057e-05
-7.50835e-07
-9.39495e-05
-3.39148e-06
-9.12111e-05
-6.01917e-06
-8.73098e-05
-8.60143e-06
-8.22794e-05
-1.11093e-05
-7.61736e-05
-1.35153e-05
-6.90561e-05
-1.57723e-05
-6.09989e-05
-1.78494e-05
-5.212e-05
-1.97337e-05
-4.25249e-05
-2.13133e-05
-3.24168e-05
-2.25621e-05
-2.2081e-05
-2.29575e-05
-1.21721e-05
-2.19221e-05
-3.9941e-06
-1.74121e-05
-7.75788e-06
-4.28638e-06
1.16927e-05
-1.30158e-05
2.54006e-05
-2.34671e-05
3.14117e-05
-3.43369e-05
3.28682e-05
-4.49702e-05
3.23406e-05
-5.51203e-05
3.0821e-05
-6.45872e-05
2.8798e-05
-7.32699e-05
2.63937e-05
-8.10455e-05
2.36706e-05
-8.78289e-05
2.06726e-05
-9.35453e-05
1.74306e-05
-9.81243e-05
1.39824e-05
-0.000101511
1.03641e-05
-0.000103665
6.61173e-06
-0.000104553
2.76278e-06
-0.000104159
-1.14563e-06
-0.000102475
-5.0753e-06
-9.95098e-05
-8.98421e-06
-9.52836e-05
-1.28276e-05
-8.98316e-05
-1.65612e-05
-8.32114e-05
-2.01356e-05
-7.54889e-05
-2.34948e-05
-6.67431e-05
-2.65952e-05
-5.71053e-05
-2.93714e-05
-4.66817e-05
-3.1737e-05
-3.57001e-05
-3.35437e-05
-2.44231e-05
-3.42345e-05
-1.35591e-05
-3.27861e-05
-4.46718e-06
-2.6504e-05
-1.22251e-05
-4.55042e-06
1.62431e-05
-1.38266e-05
3.46768e-05
-2.4892e-05
4.24771e-05
-3.63651e-05
4.43413e-05
-4.7567e-05
4.35425e-05
-5.82504e-05
4.15044e-05
-6.821e-05
3.87576e-05
-7.73399e-05
3.55235e-05
-8.55159e-05
3.18467e-05
-9.26482e-05
2.78049e-05
-9.86586e-05
2.34411e-05
-0.000103476
1.88001e-05
-0.000107046
1.39333e-05
-0.000109323
8.88925e-06
-0.000110277
3.71625e-06
-0.000109886
-1.53649e-06
-0.000108143
-6.81765e-06
-0.000105056
-1.20719e-05
-0.000100641
-1.72423e-05
-9.49339e-05
-2.22683e-05
-8.79898e-05
-2.70797e-05
-7.98748e-05
-3.16097e-05
-7.06718e-05
-3.57983e-05
-6.05129e-05
-3.95303e-05
-4.9509e-05
-4.27408e-05
-3.78963e-05
-4.51564e-05
-2.59465e-05
-4.61843e-05
-1.44094e-05
-4.43232e-05
-4.73573e-06
-3.61776e-05
-1.69608e-05
-4.78351e-06
2.10266e-05
-1.45579e-05
4.44512e-05
-2.62252e-05
5.41443e-05
-3.8305e-05
5.64212e-05
-5.00899e-05
5.53274e-05
-6.13146e-05
5.27291e-05
-7.17732e-05
4.92162e-05
-8.13532e-05
4.51035e-05
-8.99312e-05
4.04247e-05
-9.74132e-05
3.5287e-05
-0.00010372
2.97474e-05
-0.00010878
2.38609e-05
-0.000112539
1.76921e-05
-0.000114952
1.13016e-05
-0.000115984
4.74883e-06
-0.000115615
-1.90549e-06
-0.000113835
-8.59784e-06
-0.000110646
-1.5261e-05
-0.000106064
-2.18247e-05
-0.000100119
-2.82126e-05
-9.2864e-05
-3.4335e-05
-8.43621e-05
-4.01116e-05
-7.46984e-05
-4.5462e-05
-6.40017e-05
-5.02269e-05
-5.23916e-05
-5.4351e-05
-4.01087e-05
-5.74392e-05
-2.74548e-05
-5.88382e-05
-1.52244e-05
-5.65536e-05
-4.99058e-06
-4.64115e-05
-2.19514e-05
-5.05067e-06
2.60773e-05
-1.53959e-05
5.47964e-05
-2.77665e-05
6.65149e-05
-4.05652e-05
6.92199e-05
-5.30457e-05
6.78079e-05
-6.49167e-05
6.46001e-05
-7.59692e-05
6.02687e-05
-8.60823e-05
5.52166e-05
-9.51335e-05
4.94759e-05
-0.000103026
4.31795e-05
-0.00010968
3.64019e-05
-0.000115028
2.92082e-05
-0.000119011
2.16759e-05
-0.000121587
1.3877e-05
-0.00012272
5.88149e-06
-0.000122386
-2.23921e-06
-0.000120572
-1.04112e-05
-0.000117277
-1.85561e-05
-0.000112511
-2.65912e-05
-0.000106299
-3.44242e-05
-9.86875e-05
-4.19468e-05
-8.9736e-05
-4.90631e-05
-7.95298e-05
-5.56681e-05
-6.81943e-05
-6.15624e-05
-5.5859e-05
-6.66863e-05
-4.2772e-05
-7.05263e-05
-2.92733e-05
-7.23369e-05
-1.62121e-05
-6.96149e-05
-5.30558e-06
-5.7318e-05
-2.7257e-05
-5.37707e-06
3.14544e-05
-1.6413e-05
6.58323e-05
-2.96314e-05
7.97333e-05
-4.33011e-05
8.28896e-05
-5.66239e-05
8.11307e-05
-6.92773e-05
7.72536e-05
-8.10449e-05
7.20363e-05
-9.17973e-05
6.5969e-05
-0.000101413
5.90915e-05
-0.000109794
5.15605e-05
-0.000116862
4.34696e-05
-0.000122549
3.48955e-05
-0.000126801
2.59277e-05
-0.000129573
1.66489e-05
-0.000130829
7.13827e-06
-0.000130545
-2.52362e-06
-0.000128702
-1.22544e-05
-0.000125292
-2.19661e-05
-0.000120318
-3.15647e-05
-0.0001138
-4.09427e-05
-0.000105773
-4.9974e-05
-9.62909e-05
-5.85447e-05
-8.5438e-05
-6.65211e-05
-7.33357e-05
-7.36648e-05
-6.01241e-05
-7.98978e-05
-4.60622e-05
-8.45882e-05
-3.15333e-05
-8.68659e-05
-1.74538e-05
-8.36944e-05
-5.70801e-06
-6.90637e-05
-3.2965e-05
-5.77704e-06
3.72314e-05
-1.76499e-05
7.77052e-05
-3.18854e-05
9.39689e-05
-4.65984e-05
9.76026e-05
-6.09254e-05
9.54577e-05
-7.45085e-05
9.08367e-05
-8.71213e-05
8.4649e-05
-9.8626e-05
7.74737e-05
-0.000108902
6.93677e-05
-0.000117853
6.05108e-05
-0.000125401
5.10177e-05
-0.000131483
4.09778e-05
-0.000136047
3.04919e-05
-0.000139051
1.96523e-05
-0.000140458
8.5456e-06
-0.00014024
-2.74118e-06
-0.000138375
-1.41198e-05
-0.000134846
-2.54952e-05
-0.000129647
-3.67637e-05
-0.000122786
-4.7804e-05
-0.000114286
-5.84737e-05
-0.000104192
-6.86385e-05
-9.25822e-05
-7.8131e-05
-7.95735e-05
-8.66735e-05
-6.53163e-05
-9.4155e-05
-5.00843e-05
-9.98202e-05
-3.4309e-05
-0.000102641
-1.89909e-05
-9.90125e-05
-6.21039e-06
-8.18442e-05
-3.91754e-05
-6.26392e-06
4.34953e-05
-1.91432e-05
9.05844e-05
-3.45873e-05
0.000109413
-5.05324e-05
0.000113548
-6.60376e-05
0.000110963
-8.07062e-05
0.000105505
-9.42996e-05
9.82424e-05
-0.000106672
8.98463e-05
-0.000117705
8.04009e-05
-0.000127304
7.01095e-05
-0.000135397
5.91108e-05
-0.000141927
4.7508e-05
-0.000146847
3.54121e-05
-0.000150118
2.29232e-05
-0.000151705
1.01326e-05
-0.000151577
-2.86941e-06
-0.000149704
-1.59928e-05
-0.000146061
-2.91385e-05
-0.000140628
-4.21964e-05
-0.000133398
-5.50343e-05
-0.000124377
-6.74946e-05
-0.000113594
-7.94212e-05
-0.000101117
-9.06083e-05
-8.70544e-05
-0.000100736
-7.15658e-05
-0.000109644
-5.49427e-05
-0.000116443
-3.76723e-05
-0.000119912
-2.0861e-05
-0.000115824
-6.82355e-06
-9.58817e-05
-4.59989e-05
-6.84995e-06
5.03453e-05
-2.09287e-05
0.000104663
-3.77982e-05
0.000126283
-5.51852e-05
0.000130935
-7.20581e-05
0.000127836
-8.79784e-05
0.000121426
-0.000102693
0.000112957
-0.000116049
0.000103202
-0.000127932
9.22842e-05
-0.000138254
8.04309e-05
-0.000146951
6.78083e-05
-0.000153977
5.45343e-05
-0.000159294
4.07288e-05
-0.000162868
2.64967e-05
-0.000164666
1.1931e-05
-0.000164656
-2.87962e-06
-0.0001628
-1.78488e-05
-0.00015906
-3.28784e-05
-0.0001534
-4.78565e-05
-0.00014579
-6.26443e-05
-0.000136213
-7.70714e-05
-0.000124675
-9.09592e-05
-0.000111224
-0.000104059
-9.5956e-05
-0.000116004
-7.90335e-05
-0.000126566
-6.07693e-05
-0.000134708
-4.1716e-05
-0.000138965
-2.31144e-05
-0.000134425
-7.56265e-06
-0.000111433
-5.35616e-05
-7.5483e-06
5.78936e-05
-2.30476e-05
0.000120162
-4.15904e-05
0.000144825
-6.06562e-05
0.00015
-7.91063e-05
0.000146286
-9.64554e-05
0.000138775
-0.000112435
0.000128936
-0.000126888
0.000117656
-0.000139709
0.000105105
-0.00015082
9.15414e-05
-0.000160172
7.7161e-05
-0.000167735
6.20972e-05
-0.000173483
4.64767e-05
-0.000177393
3.04062e-05
-0.000179436
1.39748e-05
-0.00017958
-2.7359e-06
-0.000177778
-1.96512e-05
-0.000173976
-3.66804e-05
-0.000168115
-5.37169e-05
-0.000160138
-7.06219e-05
-0.000149993
-8.72164e-05
-0.000137651
-0.000103301
-0.000123131
-0.000118579
-0.000106504
-0.000132632
-8.79283e-05
-0.000145141
-6.774e-05
-0.000154896
-4.65682e-05
-0.000160137
-2.58232e-05
-0.00015517
-8.4507e-06
-0.000128806
-6.20123e-05
-8.37659e-06
6.62702e-05
-2.55536e-05
0.000137339
-4.60572e-05
0.000165329
-6.70719e-05
0.000171015
-8.73314e-05
0.000166545
-0.000106299
0.000157742
-0.00012369
0.000146327
-0.000139349
0.000133315
-0.000153184
0.00011894
-0.000165136
0.000103494
-0.00017518
8.7205e-05
-0.000183307
7.02241e-05
-0.000189512
5.26817e-05
-0.000193786
3.46806e-05
-0.000196111
1.63001e-05
-0.000196453
-2.39383e-06
-0.000194757
-2.13479e-05
-0.00019095
-4.04876e-05
-0.000184944
-5.97226e-05
-0.000176643
-7.89231e-05
-0.00016595
-9.79095e-05
-0.000152786
-0.000116464
-0.000137122
-0.000134243
-0.000118987
-0.000150767
-9.85256e-05
-0.000165603
-7.6092e-05
-0.00017733
-5.24055e-05
-0.000183823
-2.90896e-05
-0.000178486
-9.52125e-06
-0.000148374
-7.15335e-05
-9.35933e-06
7.56295e-05
-2.85193e-05
0.000156499
-5.13218e-05
0.000188131
-7.45963e-05
0.00019429
-9.6924e-05
0.000188873
-0.000117711
0.000178528
-0.000136659
0.000165275
-0.00015362
0.000150277
-0.000168527
0.000133847
-0.000181352
0.000116318
-0.000192102
9.79553e-05
-0.000200802
7.89237e-05
-0.000207475
5.93548e-05
-0.000212136
3.93411e-05
-0.000214778
1.89428e-05
-0.000215372
-1.79962e-06
-0.000213853
-2.28679e-05
-0.000210125
-4.42149e-05
-0.000204067
-6.57813e-05
-0.00019553
-8.74597e-05
-0.000184357
-0.000109083
-0.000170398
-0.000130423
-0.000153551
-0.00015109
-0.000133779
-0.000170538
-0.00011119
-0.000188192
-8.61459e-05
-0.000202373
-5.94712e-05
-0.000210498
-3.30563e-05
-0.000204901
-1.08212e-05
-0.000170609
-8.23547e-05
-1.05307e-05
8.61602e-05
-3.20443e-05
0.000178013
-5.75499e-05
0.000213637
-8.34458e-05
0.000220186
-0.000108131
0.000213558
-0.000130947
0.000201345
-0.00015159
0.000185918
-0.00016993
0.000168617
-0.000185939
0.000149856
-0.000199636
0.000130015
-0.000211075
0.000109395
-0.000220329
8.81769e-05
-0.00022746
6.64861e-05
-0.000232515
4.43957e-05
-0.000235508
2.19359e-05
-0.000236418
-8.89398e-07
-0.000235167
-2.41183e-05
-0.000231641
-4.77415e-05
-0.000225671
-7.17513e-05
-0.000217047
-9.60831e-05
-0.00020553
-0.0001206
-0.000190872
-0.000145081
-0.000172864
-0.000169098
-0.000151364
-0.000192039
-0.000126405
-0.000213151
-9.83393e-05
-0.000230439
-6.8103e-05
-0.000240734
-3.79234e-05
-0.000235081
-1.24159e-05
-0.000196117
-9.47707e-05
-1.19393e-05
9.80995e-05
-3.62675e-05
0.000202341
-6.49682e-05
0.000242338
-9.39108e-05
0.000249128
-0.000121274
0.000240922
-0.000146335
0.000226405
-0.000168791
0.000208374
-0.000188552
0.000188378
-0.000205649
0.000166953
-0.00022017
0.000144535
-0.000232237
0.000121462
-0.000241986
9.79254e-05
-0.000249535
7.40351e-05
-0.000254973
4.98334e-05
-0.000258342
2.53049e-05
-0.000259642
4.11273e-07
-0.000258778
-2.49824e-05
-0.000255617
-5.09032e-05
-0.000249939
-7.74292e-05
-0.000241458
-0.000104564
-0.000229827
-0.000132231
-0.000214669
-0.000160239
-0.000195618
-0.000188149
-0.00017237
-0.000215286
-0.000144826
-0.000240696
-0.000113279
-0.000261985
-7.87799e-05
-0.000275234
-4.3978e-05
-0.000269883
-1.43988e-05
-0.000225696
-0.000109169
-1.36559e-05
0.000111755
-4.13868e-05
0.000230072
-7.3892e-05
0.000274843
-0.000106384
0.00028162
-0.000136781
0.000271318
-0.000164294
0.000253918
-0.000188646
0.000232727
-0.000209815
0.000209547
-0.000227923
0.00018506
-0.000243153
0.000159766
-0.000255725
0.000134034
-0.000265857
0.000108057
-0.000273741
8.19196e-05
-0.000279524
5.56161e-05
-0.00028329
2.90706e-05
-0.000285043
2.16456e-06
-0.000284717
-2.53086e-05
-0.000282136
-5.34838e-05
-0.000277031
-8.2534e-05
-0.000269026
-0.000112569
-0.000257644
-0.000143613
-0.000242333
-0.00017555
-0.000222509
-0.000207972
-0.000197623
-0.000240173
-0.000167344
-0.000270975
-0.000131826
-0.000297504
-9.22017e-05
-0.000314858
-5.16487e-05
-0.000310436
-1.691e-05
-0.000260435
-0.00012608
-1.57844e-05
0.00012754
-4.7687e-05
0.000261975
-8.47644e-05
0.00031192
-0.000121405
0.00031826
-0.000155218
0.000305132
-0.000185367
0.000284066
-0.000211635
0.000258995
-0.000234114
0.000232026
-0.000253061
0.000204007
-0.000268796
0.000175501
-0.000281665
0.000146903
-0.000291997
0.00011839
-0.000300078
9.00005e-05
-0.000306126
6.16642e-05
-0.000310279
3.32235e-05
-0.000312573
4.45891e-06
-0.000312953
-2.49295e-05
-0.000311223
-5.5213e-05
-0.000307063
-8.66947e-05
-0.000299998
-0.000119634
-0.000289398
-0.000154213
-0.000274491
-0.000190457
-0.000254398
-0.000228066
-0.000228203
-0.000266368
-0.000195195
-0.000303983
-0.000155224
-0.000337474
-0.000109423
-0.000360658
-6.16035e-05
-0.000358255
-2.01726e-05
-0.000301865
-0.000146252
-1.84836e-05
0.000146023
-5.55889e-05
0.00029908
-9.82196e-05
0.000354551
-0.000139717
0.000359758
-0.000177345
0.00034276
-0.000210253
0.000316974
-0.000238354
0.000287097
-0.000261919
0.000255591
-0.000281403
0.00022349
-0.000297313
0.000191412
-0.000310162
0.000159751
-0.000320419
0.000128648
-0.000328485
9.80659e-05
-0.000334667
6.7846e-05
-0.000339169
3.77263e-05
-0.000342078
7.36714e-06
-0.000343354
-2.36529e-05
-0.000342803
-5.5764e-05
-0.000340059
-8.94389e-05
-0.000334555
-0.000125138
-0.000325495
-0.000163273
-0.000311843
-0.000204109
-0.000292332
-0.000247577
-0.000265525
-0.000293174
-0.000230096
-0.000339412
-0.000185314
-0.000382256
-0.00013209
-0.000413883
-7.49349e-05
-0.00041541
-2.4568e-05
-0.000352232
-0.00017082
-2.20058e-05
0.000168029
-6.57315e-05
0.000342806
-0.000115182
0.000404002
-0.000162368
0.000406943
-0.000204186
0.000384578
-0.000239859
0.000352647
-0.000269541
0.000316778
-0.000293782
0.000279832
-0.000313318
0.000243026
-0.00032891
0.000207004
-0.000341282
0.000172123
-0.000351073
0.000138439
-0.00035882
0.000105813
-0.000364936
7.39621e-05
-0.000369707
4.24973e-05
-0.000373279
1.09385e-05
-0.000375655
-2.12772e-05
-0.000376656
-5.47623e-05
-0.000375902
-9.0193e-05
-0.000372754
-0.000128286
-0.000366261
-0.000169766
-0.000355102
-0.000215269
-0.000337534
-0.000265145
-0.000311409
-0.000319299
-0.00027445
-0.000376371
-0.000224862
-0.000431843
-0.000162851
-0.000475895
-9.35259e-05
-0.000484735
-3.08052e-05
-0.000414953
-0.000201625
-2.67713e-05
0.000194801
-7.91147e-05
0.000395149
-0.000137025
0.000461912
-0.000190833
0.000460751
-0.000237119
0.000430865
-0.000275349
0.000390877
-0.000306091
0.00034752
-0.000330327
0.000304069
-0.000349184
0.000261883
-0.000363753
0.000221573
-0.000375015
0.000183384
-0.000383811
0.000147235
-0.000390827
0.000112829
-0.000396593
7.97286e-05
-0.000401487
4.73916e-05
-0.000405732
1.51835e-05
-0.000409393
-1.76163e-05
-0.000412346
-5.18097e-05
-0.000414236
-8.83027e-05
-0.00041441
-0.000128112
-0.000411813
-0.000172363
-0.000404867
-0.000222214
-0.000391313
-0.0002787
-0.000368099
-0.000342513
-0.000331555
-0.000412916
-0.000278045
-0.000485353
-0.000206083
-0.000547857
-0.000120782
-0.000570036
-4.03179e-05
-0.000495417
-0.000241943
-3.35189e-05
0.000228319
-9.73498e-05
0.00045898
-0.000165813
0.000530375
-0.000227201
0.000522139
-0.000277979
0.000481643
-0.00031817
0.000431067
-0.000349035
0.000378385
-0.000372195
0.000327229
-0.000389308
0.000278995
-0.000401875
0.000234141
-0.000411183
0.000192692
-0.000418288
0.00015434
-0.000424032
0.000118574
-0.000429063
8.47593e-05
-0.000433852
5.218e-05
-0.000438708
2.00404e-05
-0.000443786
-1.25385e-05
-0.00044906
-4.6536e-05
-0.000454273
-8.30899e-05
-0.000458849
-0.000123535
-0.000461755
-0.000169457
-0.000461279
-0.00022269
-0.000454716
-0.000285263
-0.000438018
-0.000359211
-0.000405641
-0.000445292
-0.000350974
-0.00054002
-0.000268977
-0.000629854
-0.000162992
-0.000676021
-5.61574e-05
-0.000602252
-0.000298101
-4.36127e-05
0.000271932
-0.000123094
0.000538462
-0.000204654
0.000611935
-0.000274353
0.000591838
-0.000329071
0.000536362
-0.000369937
0.000471933
-0.000399323
0.000407771
-0.000419764
0.00034767
-0.000433605
0.000292836
-0.000442839
0.000243375
-0.00044908
0.000198933
-0.000453599
0.000158859
-0.000457375
0.000122349
-0.000461151
8.85359e-05
-0.000465483
5.65115e-05
-0.000470768
2.53256e-05
-0.000477265
-6.04123e-06
-0.000485104
-3.86973e-05
-0.000494211
-7.39827e-05
-0.000504234
-0.000113513
-0.000514365
-0.000159326
-0.000523037
-0.000214018
-0.000527401
-0.000280898
-0.000522598
-0.000364014
-0.000500933
-0.000466957
-0.000451444
-0.00058951
-0.000362448
-0.00071885
-0.000231279
-0.00080719
-8.4736e-05
-0.000748794
-0.000382837
-5.96624e-05
0.000331594
-0.000160728
0.000639527
-0.000258013
0.00070922
-0.000335831
0.000669656
-0.000392647
0.000593178
-0.0004316
0.000510886
-0.000456763
0.000432934
-0.000471917
0.000362825
-0.000480254
0.000301173
-0.0004843
0.000247421
-0.000485979
0.000200611
-0.000486725
0.000159605
-0.000487602
0.000123226
-0.000489399
9.03333e-05
-0.000492717
5.98289e-05
-0.000498024
3.06332e-05
-0.000505664
1.59903e-06
-0.000515999
-2.83624e-05
-0.000529207
-6.07745e-05
-0.000545329
-9.73914e-05
-0.000564071
-0.000140584
-0.000584463
-0.000193626
-0.000604155
-0.000261206
-0.000618227
-0.000349942
-0.000617262
-0.000467922
-0.00058498
-0.000621791
-0.000498917
-0.000804913
-0.000342187
-0.00096392
-0.000138067
-0.000952915
-0.000520904
-8.66627e-05
0.000418257
-0.000217001
0.000769865
-0.000331078
0.000823297
-0.00041391
0.000752488
-0.000467894
0.000647162
-0.000499587
0.000542579
-0.000515525
0.000448872
-0.000521089
0.000368388
-0.000520397
0.000300482
-0.000516453
0.000243478
-0.000511373
0.000195531
-0.000506626
0.000154857
-0.000503233
0.000119833
-0.000501926
8.90268e-05
-0.000503266
6.11694e-05
-0.00050773
3.50964e-05
-0.000515751
9.62081e-06
-0.000527832
-1.62821e-05
-0.000544509
-4.40971e-05
-0.000566329
-7.5572e-05
-0.000593783
-0.00011313
-0.000627028
-0.000160381
-0.000665166
-0.000223068
-0.000704711
-0.000310397
-0.000736385
-0.000436247
-0.000739626
-0.00061855
-0.000678107
-0.000866433
-0.000508996
-0.00113303
-0.000232661
-0.00122925
-0.000753564
-0.000133679
0.000551936
-0.00029979
0.000935976
-0.00042408
0.000947587
-0.000500059
0.000828467
-0.000538388
0.000685491
-0.00055107
0.00055526
-0.000547912
0.000445714
-0.000536023
0.0003565
-0.000520238
0.000284696
-0.00050369
0.000226929
-0.000488335
0.000180177
-0.000475365
0.000141888
-0.00046551
0.000109977
-0.000459244
8.27605e-05
-0.000456931
5.88572e-05
-0.000458927
3.70924e-05
-0.000465666
1.63592e-05
-0.000477623
-4.32544e-06
-0.000495695
-2.60251e-05
-0.000520856
-5.04105e-05
-0.000554434
-7.9552e-05
-0.000598001
-0.000116814
-0.000652934
-0.000168134
-0.000719026
-0.000244306
-0.000790656
-0.000364616
-0.000848451
-0.000560755
-0.000845904
-0.00086898
-0.000706172
-0.00127276
-0.000373465
-0.00156196
-0.00112703
-0.000215123
0.000767059
-0.00040593
0.00112678
-0.000506351
0.00104801
-0.000539133
0.000861249
-0.000530156
0.000676514
-0.000498736
0.000523841
-0.000457648
0.000404626
-0.000414604
0.000313456
-0.000373905
0.000243997
-0.000337708
0.000190733
-0.000306939
0.000149407
-0.000281868
0.000116817
-0.000262462
9.05716e-05
-0.000248605
6.89035e-05
-0.000240206
5.0458e-05
-0.000237292
3.41789e-05
-0.0002401
1.91665e-05
-0.000248902
4.47712e-06
-0.000264655
-1.02724e-05
-0.000288478
-2.65876e-05
-0.000322149
-4.58803e-05
-0.000368279
-7.06851e-05
-0.000430394
-0.000106019
-0.000512456
-0.000162243
-0.000616116
-0.000260957
-0.000733848
-0.000443024
-0.000827374
-0.000775454
-0.000798803
-0.00130133
-0.00051437
-0.00184639
-0.0016414
-0.000339394
0.00110645
-0.00045266
0.00124005
-0.000422341
0.00101769
-0.000325182
0.000764091
-0.000208074
0.000559406
-9.25101e-05
0.000408277
1.1992e-05
0.000300123
0.000102048
0.0002234
0.000177455
0.00016859
0.000239389
0.000128799
0.000289472
9.93248e-05
0.000329303
7.69847e-05
0.000360268
5.96073e-05
0.000383479
4.56927e-05
0.000399736
3.42001e-05
0.000409555
2.43601e-05
0.000413157
1.55652e-05
0.000410343
7.29098e-06
0.00040091
-8.39406e-07
0.000383796
-9.47436e-06
0.000357419
-1.95033e-05
0.000319099
-3.23643e-05
0.000264277
-5.11976e-05
0.000185345
-8.33115e-05
7.0699e-05
-0.00014631
-8.8778e-05
-0.000283547
-0.000293515
-0.000570717
-0.000478929
-0.00111592
-0.000461654
-0.00186367
-0.00210305
-0.000282094
0.00138855
-3.26888e-05
0.000990643
0.000352006
0.000632994
0.00068865
0.000427447
0.000961009
0.000287046
0.00117638
0.000192905
0.00134453
0.000131978
0.00147515
9.27818e-05
0.00157663
6.71029e-05
0.00165566
4.97746e-05
0.0017173
3.76775e-05
0.00176537
2.89213e-05
0.00180263
2.23459e-05
0.0018311
1.72222e-05
0.00185221
1.30877e-05
0.00186694
9.62902e-06
0.00187589
6.61569e-06
0.00187931
3.87124e-06
0.00187719
1.284e-06
0.00186926
-1.54513e-06
0.00185439
-4.63613e-06
0.0018306
-8.57499e-06
0.00179397
-1.4567e-05
0.00173635
-2.56859e-05
0.00164033
-5.02896e-05
0.00146942
-0.000112636
0.00116434
-0.000265641
0.000681176
-0.000632756
0.000167519
-0.00135001
-0.00193553
0.00138855
0.00237919
0.00301219
0.00343963
0.00372668
0.00391958
0.00405156
0.00414434
0.00421145
0.00426122
0.0042989
0.00432782
0.00435016
0.00436739
0.00438047
0.0043901
0.00439672
0.00440059
0.00440187
0.00440033
0.00439569
0.00438712
0.00437255
0.00434687
0.00429658
0.00418394
0.0039183
0.00328554
0.00193553
)
;

boundaryField
{
    movingWall
    {
        type            calculated;
        value           uniform 0;
    }
    fixedWalls
    {
        type            calculated;
        value           uniform 0;
    }
    frontAndBack
    {
        type            empty;
        value           nonuniform 0();
    }
}


// ************************************************************************* //
