/*--------------------------------*- C++ -*----------------------------------*\
  =========                 |
  \\      /  F ield         | OpenFOAM: The Open Source CFD Toolbox
   \\    /   O peration     | Website:  https://openfoam.org
    \\  /    A nd           | Version:  7
     \\/     M anipulation  |
\*---------------------------------------------------------------------------*/
FoamFile
{
    version     2.0;
    format      ascii;
    class       volVectorField;
    location    "0.6";
    object      U;
}
// * * * * * * * * * * * * * * * * * * * * * * * * * * * * * * * * * * * * * //

dimensions      [0 1 -1 0 0 0 0];

internalField   nonuniform List<vector> 
900
(
(1.80879e-05 1.56067e-05 0)
(-0.000329924 0.000143831 0)
(-0.000847054 0.000219515 0)
(-0.00157468 0.000231568 0)
(-0.00218493 0.000231253 0)
(-0.00287051 0.000216895 0)
(-0.00344339 0.000204124 0)
(-0.00402095 0.000186582 0)
(-0.00452141 0.000168664 0)
(-0.00497238 0.000148528 0)
(-0.00536396 0.000125618 0)
(-0.00568529 0.00010187 0)
(-0.00593624 7.69512e-05 0)
(-0.00611359 5.06625e-05 0)
(-0.00621421 2.3507e-05 0)
(-0.00623621 -4.16168e-06 0)
(-0.00617836 -3.22856e-05 0)
(-0.00604033 -6.05098e-05 0)
(-0.00582375 -8.80535e-05 0)
(-0.00553064 -0.000114934 0)
(-0.00515784 -0.000141833 0)
(-0.00471541 -0.000166244 0)
(-0.00421807 -0.000188444 0)
(-0.00362446 -0.000211089 0)
(-0.00303781 -0.000228126 0)
(-0.00231067 -0.000247625 0)
(-0.00167349 -0.000249082 0)
(-0.000891857 -0.000236751 0)
(-0.000355051 -0.000153795 0)
(2.2338e-05 -1.86837e-05 0)
(-5.24745e-05 0.000296053 0)
(-0.000955782 0.000843023 0)
(-0.00199212 0.00113233 0)
(-0.00350675 0.00119346 0)
(-0.0047131 0.00118537 0)
(-0.0061286 0.00112278 0)
(-0.00727957 0.00105296 0)
(-0.00846473 0.000963394 0)
(-0.00947886 0.000867094 0)
(-0.0103918 0.000759596 0)
(-0.0111848 0.000641295 0)
(-0.0118322 0.000516634 0)
(-0.0123344 0.000385725 0)
(-0.0126858 0.000249113 0)
(-0.0128805 0.000108589 0)
(-0.012915 -3.4281e-05 0)
(-0.0127872 -0.000178461 0)
(-0.0124974 -0.000322371 0)
(-0.0120494 -0.000463519 0)
(-0.011447 -0.00060079 0)
(-0.0106825 -0.000734432 0)
(-0.00978218 -0.000858551 0)
(-0.00877545 -0.000971785 0)
(-0.00756088 -0.00108013 0)
(-0.00639645 -0.00116625 0)
(-0.00490942 -0.00124574 0)
(-0.00367715 -0.00125902 0)
(-0.0020669 -0.0011968 0)
(-0.00101405 -0.000885528 0)
(-4.08742e-05 -0.000313255 0)
(-8.22861e-05 0.000891326 0)
(-0.00129176 0.0020755 0)
(-0.0025775 0.00264574 0)
(-0.00447011 0.00278159 0)
(-0.0059391 0.00275075 0)
(-0.00768893 0.00261668 0)
(-0.00909494 0.00244904 0)
(-0.0105545 0.00224277 0)
(-0.0117974 0.00201417 0)
(-0.0129162 0.00176078 0)
(-0.0138875 0.00148542 0)
(-0.0146792 0.00119327 0)
(-0.0152921 0.000886424 0)
(-0.0157194 0.000567566 0)
(-0.0159542 0.000240239 0)
(-0.0159923 -9.22295e-05 0)
(-0.0158314 -0.000426869 0)
(-0.0154722 -0.000760108 0)
(-0.0149195 -0.00108749 0)
(-0.0141776 -0.00140542 0)
(-0.0132374 -0.00171125 0)
(-0.0121319 -0.00199775 0)
(-0.0108982 -0.00226057 0)
(-0.00940411 -0.0025025 0)
(-0.00798825 -0.00270206 0)
(-0.00615735 -0.00286563 0)
(-0.00467074 -0.00290923 0)
(-0.00266629 -0.00277294 0)
(-0.00137041 -0.00216965 0)
(-6.56615e-05 -0.000934767 0)
(-9.22132e-05 0.00158133 0)
(-0.00144733 0.00348465 0)
(-0.00286275 0.00434079 0)
(-0.0049363 0.00454889 0)
(-0.00653048 0.00448241 0)
(-0.00843412 0.0042705 0)
(-0.00995858 0.00399205 0)
(-0.0115438 0.00365809 0)
(-0.0128922 0.00328181 0)
(-0.0141058 0.00286685 0)
(-0.0151588 0.00241762 0)
(-0.0160171 0.0019399 0)
(-0.0166815 0.0014384 0)
(-0.0171446 0.000918123 0)
(-0.0173992 0.000384408 0)
(-0.0174408 -0.000157569 0)
(-0.017267 -0.000702642 0)
(-0.0168782 -0.00124492 0)
(-0.0162795 -0.00177791 0)
(-0.0154756 -0.00229545 0)
(-0.0144563 -0.00279123 0)
(-0.0132574 -0.00325685 0)
(-0.0119186 -0.00368589 0)
(-0.0102958 -0.0040724 0)
(-0.00876045 -0.00439885 0)
(-0.00676835 -0.00465209 0)
(-0.00515559 -0.00474067 0)
(-0.00295898 -0.00453377 0)
(-0.00153371 -0.00363723 0)
(-7.22276e-05 -0.00165466 0)
(-0.000101213 0.00231983 0)
(-0.00153414 0.00498887 0)
(-0.00304245 0.00613637 0)
(-0.00522985 0.00641294 0)
(-0.00691362 0.00630352 0)
(-0.00891548 0.00600833 0)
(-0.0105215 0.00561244 0)
(-0.0121873 0.0051442 0)
(-0.013606 0.00461271 0)
(-0.0148817 0.00402794 0)
(-0.0159887 0.00339599 0)
(-0.0168916 0.00272376 0)
(-0.017591 0.00201858 0)
(-0.0180795 0.00128755 0)
(-0.0183499 0.000537742 0)
(-0.0183974 -0.000223657 0)
(-0.0182192 -0.000989148 0)
(-0.0178153 -0.00175056 0)
(-0.0171907 -0.0024994 0)
(-0.0163498 -0.00322697 0)
(-0.0152818 -0.0039233 0)
(-0.0140239 -0.00457828 0)
(-0.0126146 -0.00518321 0)
(-0.0109078 -0.00572311 0)
(-0.0092852 -0.00618529 0)
(-0.00718442 -0.00653518 0)
(-0.00547226 -0.00667708 0)
(-0.00314834 -0.00640204 0)
(-0.00162408 -0.00520438 0)
(-7.97065e-05 -0.00242358 0)
(-0.000112774 0.00309729 0)
(-0.00160722 0.00657492 0)
(-0.00321023 0.00802799 0)
(-0.00550529 0.00837236 0)
(-0.00728539 0.00821558 0)
(-0.00938372 0.00783074 0)
(-0.0110752 0.00731105 0)
(-0.0128204 0.00670093 0)
(-0.0143109 0.00600675 0)
(-0.0156485 0.00524389 0)
(-0.0168096 0.00442078 0)
(-0.0177575 0.0035457 0)
(-0.0184929 0.00262828 0)
(-0.0190084 0.00167762 0)
(-0.0192967 0.000702667 0)
(-0.0193528 -0.000287345 0)
(-0.0191732 -0.00128276 0)
(-0.0187578 -0.00227333 0)
(-0.0181111 -0.00324849 0)
(-0.0172363 -0.00419689 0)
(-0.0161224 -0.00510511 0)
(-0.0148076 -0.00596097 0)
(-0.0133266 -0.00675279 0)
(-0.0115365 -0.00745776 0)
(-0.00981977 -0.00806602 0)
(-0.00760918 -0.00852223 0)
(-0.00578553 -0.00872309 0)
(-0.00333648 -0.00837862 0)
(-0.00170472 -0.00686053 0)
(-9.18368e-05 -0.0032331 0)
(-0.000127202 0.00391538 0)
(-0.0016894 0.00824802 0)
(-0.00340446 0.0100265 0)
(-0.00582372 0.0104405 0)
(-0.00772093 0.0102327 0)
(-0.00993255 0.00975093 0)
(-0.0117275 0.00909967 0)
(-0.0135659 0.00833848 0)
(-0.0151417 0.00747276 0)
(-0.016552 0.00652252 0)
(-0.0177762 0.00549878 0)
(-0.0187773 0.0044114 0)
(-0.0195552 0.00327218 0)
(-0.020103 0.00209224 0)
(-0.0204134 0.000882412 0)
(-0.0204809 -0.000346231 0)
(-0.0203015 -0.00158215 0)
(-0.0198746 -0.00281319 0)
(-0.0192042 -0.00402663 0)
(-0.0182914 -0.00520838 0)
(-0.0171254 -0.00634188 0)
(-0.0157453 -0.00741253 0)
(-0.0141796 -0.00840496 0)
(-0.0122923 -0.00928938 0)
(-0.0104615 -0.0100564 0)
(-0.00812167 -0.0106307 0)
(-0.00616137 -0.0108964 0)
(-0.00356549 -0.0104801 0)
(-0.00180186 -0.00861703 0)
(-0.00010877 -0.00408881 0)
(-0.000144856 0.00478219 0)
(-0.00178943 0.0100248 0)
(-0.00364011 0.0121529 0)
(-0.00620853 0.0126401 0)
(-0.00824871 0.0123773 0)
(-0.0105966 0.0117894 0)
(-0.0125173 0.0109967 0)
(-0.0144671 0.0100732 0)
(-0.0161453 0.00902492 0)
(-0.0176419 0.00787589 0)
(-0.0189412 0.00664004 0)
(-0.0200054 0.00532909 0)
(-0.0208338 0.00395699 0)
(-0.0214203 0.00253673 0)
(-0.0217574 0.00108078 0)
(-0.0218394 -0.00039812 0)
(-0.0216618 -0.00188683 0)
(-0.0212233 -0.00337151 0)
(-0.0205264 -0.00483737 0)
(-0.0195704 -0.00626764 0)
(-0.0183442 -0.00764278 0)
(-0.0168876 -0.00894544 0)
(-0.0152212 -0.0101558 0)
(-0.0132182 -0.0112375 0)
(-0.0112491 -0.0121794 0)
(-0.00875396 -0.0128863 0)
(-0.00662634 -0.0132247 0)
(-0.00385228 -0.0127343 0)
(-0.00192526 -0.0104982 0)
(-0.000130685 -0.00500364 0)
(-0.000166431 0.00570912 0)
(-0.00191188 0.0119282 0)
(-0.00392591 0.0144341 0)
(-0.00667266 0.0149988 0)
(-0.00888427 0.0146753 0)
(-0.0113939 0.0139702 0)
(-0.013464 0.0130235 0)
(-0.0155448 0.0119239 0)
(-0.0173433 0.0106792 0)
(-0.0189409 0.0093174 0)
(-0.0203273 0.00785575 0)
(-0.0214647 0.00630805 0)
(-0.022352 0.00469022 0)
(-0.0229837 0.00301692 0)
(-0.0233527 0.00130199 0)
(-0.0234529 -0.000440461 0)
(-0.0232792 -0.00219603 0)
(-0.0228294 -0.00394954 0)
(-0.0221043 -0.00568434 0)
(-0.0211005 -0.00738122 0)
(-0.0198068 -0.00901779 0)
(-0.0182625 -0.0105736 0)
(-0.0164786 -0.0120235 0)
(-0.0143401 -0.0133247 0)
(-0.0122059 -0.0144618 0)
(-0.00952566 -0.0153198 0)
(-0.0071958 -0.0157415 0)
(-0.00420615 -0.0151755 0)
(-0.00207917 -0.0125347 0)
(-0.000157984 -0.00599348 0)
(-0.000192835 0.00670955 0)
(-0.00206068 0.0139845 0)
(-0.0042699 0.0169001 0)
(-0.0072276 0.0175464 0)
(-0.00964128 0.0171547 0)
(-0.0123399 0.0163187 0)
(-0.0145841 0.0152024 0)
(-0.0168164 0.0139096 0)
(-0.018753 0.0124517 0)
(-0.0204662 0.0108605 0)
(-0.0219514 0.00915705 0)
(-0.0231717 0.00735742 0)
(-0.0241258 0.00547929 0)
(-0.0248093 0.00353873 0)
(-0.0252157 0.00155066 0)
(-0.0253383 -0.000469966 0)
(-0.0251717 -0.002508 0)
(-0.0247124 -0.00454735 0)
(-0.0239588 -0.00656996 0)
(-0.0229045 -0.00855456 0)
(-0.0215374 -0.010476 0)
(-0.0198951 -0.0123103 0)
(-0.0179778 -0.0140265 0)
(-0.0156831 -0.0155749 0)
(-0.0133555 -0.0169334 0)
(-0.0104566 -0.0179657 0)
(-0.00788471 -0.0184855 0)
(-0.00463606 -0.0178429 0)
(-0.00226705 -0.0147611 0)
(-0.00019123 -0.00707584 0)
(-0.000224873 0.00779892 0)
(-0.00223948 0.0162237 0)
(-0.00468024 0.0195844 0)
(-0.00788551 0.0203159 0)
(-0.0105349 0.0198456 0)
(-0.0134518 0.0188617 0)
(-0.0158962 0.0175564 0)
(-0.0183007 0.0160497 0)
(-0.0203932 0.0143583 0)
(-0.0222358 0.0125181 0)
(-0.0238306 0.0105545 0)
(-0.0251427 0.00848575 0)
(-0.0261708 0.00633123 0)
(-0.0269125 0.00410809 0)
(-0.0273616 0.00183183 0)
(-0.0275117 -0.000482441 0)
(-0.0273568 -0.00281959 0)
(-0.0268915 -0.00516323 0)
(-0.0261116 -0.00749457 0)
(-0.0250066 -0.00979087 0)
(-0.023563 -0.0120246 0)
(-0.0218146 -0.014168 0)
(-0.0197491 -0.0161832 0)
(-0.0172778 -0.0180132 0)
(-0.0147265 -0.0196264 0)
(-0.0115715 -0.0208631 0)
(-0.0087121 -0.021501 0)
(-0.00515381 -0.0207822 0)
(-0.00249362 -0.017217 0)
(-0.000231264 -0.00827027 0)
(-0.000263306 0.00899482 0)
(-0.00245228 0.01868 0)
(-0.00516639 0.0225257 0)
(-0.00866096 0.0233445 0)
(-0.0115837 0.0227813 0)
(-0.014751 0.0216276 0)
(-0.0174226 0.020109 0)
(-0.0200202 0.0183633 0)
(-0.0222854 0.0164142 0)
(-0.0242701 0.0143022 0)
(-0.025984 0.0120574 0)
(-0.0273951 0.00970058 0)
(-0.0285035 0.00725245 0)
(-0.0293088 0.00473081 0)
(-0.0298063 0.00215104 0)
(-0.0299898 -0.000472502 0)
(-0.0298526 -0.00312574 0)
(-0.0293874 -0.00579301 0)
(-0.0285865 -0.00845566 0)
(-0.0274345 -0.0110903 0)
(-0.0259149 -0.0136677 0)
(-0.0240555 -0.0161562 0)
(-0.0218299 -0.0185105 0)
(-0.0191621 -0.0206654 0)
(-0.0163558 -0.022576 0)
(-0.0129031 -0.0240562 0)
(-0.00970379 -0.0248397 0)
(-0.00577614 -0.024047 0)
(-0.00276594 -0.0199487 0)
(-0.000279383 -0.00959938 0)
(-0.00030915 0.0103173 0)
(-0.00270443 0.0213932 0)
(-0.00574068 0.0257684 0)
(-0.00957263 0.0266741 0)
(-0.012811 0.0259983 0)
(-0.0162636 0.024647 0)
(-0.0191907 0.0228848 0)
(-0.0220021 0.0208691 0)
(-0.0244552 0.0186333 0)
(-0.0265927 0.0162229 0)
(-0.0284325 0.0136731 0)
(-0.0299477 0.0110077 0)
(-0.0311407 0.00824818 0)
(-0.032014 0.00541221 0)
(-0.032565 0.00251416 0)
(-0.0327886 -0.000433503 0)
(-0.0326774 -0.00341915 0)
(-0.0322216 -0.00642926 0)
(-0.031409 -0.00944673 0)
(-0.0302187 -0.0124488 0)
(-0.0286294 -0.0154052 0)
(-0.0266594 -0.0182812 0)
(-0.0242662 -0.0210232 0)
(-0.0213846 -0.0235566 0)
(-0.018291 -0.0258199 0)
(-0.014495 -0.0275953 0)
(-0.010895 -0.028562 0)
(-0.00652646 -0.0277015 0)
(-0.00309431 -0.0230123 0)
(-0.00033749 -0.0110904 0)
(-0.000363848 0.0117897 0)
(-0.00300332 0.0244094 0)
(-0.00641957 0.0293639 0)
(-0.010645 0.0303528 0)
(-0.0142471 0.0295374 0)
(-0.018023 0.0279526 0)
(-0.0212347 0.0259083 0)
(-0.0242792 0.0235848 0)
(-0.0269328 0.0210272 0)
(-0.0292304 0.0182874 0)
(-0.0311993 0.0154064 0)
(-0.0328202 0.0124105 0)
(-0.0340991 0.0093217 0)
(-0.035043 0.0061566 0)
(-0.0356521 0.00292721 0)
(-0.0359232 -0.000357388 0)
(-0.0358484 -0.00368978 0)
(-0.0354151 -0.00706039 0)
(-0.034606 -0.0104558 0)
(-0.033393 -0.0138556 0)
(-0.031748 -0.0172304 0)
(-0.0296757 -0.0205428 0)
(-0.0271147 -0.0237313 0)
(-0.0240069 -0.0267107 0)
(-0.0205949 -0.0293981 0)
(-0.0164055 -0.0315372 0)
(-0.0123339 -0.0327397 0)
(-0.00743736 -0.0318243 0)
(-0.00349318 -0.0264772 0)
(-0.000408206 -0.0127772 0)
(-0.000429448 0.0134403 0)
(-0.00335922 0.0277844 0)
(-0.00722546 0.0333736 0)
(-0.0119106 0.0344363 0)
(-0.0159313 0.0334443 0)
(-0.0200718 0.0315788 0)
(-0.0235971 0.0292033 0)
(-0.0268916 0.026525 0)
(-0.0297539 0.0236038 0)
(-0.0322137 0.0204989 0)
(-0.0343096 0.0172574 0)
(-0.0360326 0.0139083 0)
(-0.0373947 0.0104733 0)
(-0.0384086 0.00696659 0)
(-0.0390792 0.0033961 0)
(-0.0394057 -0.000234418 0)
(-0.0393805 -0.00392416 0)
(-0.0389877 -0.00766961 0)
(-0.0382043 -0.0114639 0)
(-0.0369935 -0.0152917 0)
(-0.0353175 -0.0191271 0)
(-0.0331628 -0.0229318 0)
(-0.030445 -0.0266372 0)
(-0.0271073 -0.0301468 0)
(-0.0233493 -0.0333512 0)
(-0.0187135 -0.0359465 0)
(-0.0140868 -0.0374589 0)
(-0.00855436 -0.0365133 0)
(-0.0039828 -0.0304315 0)
(-0.000495102 -0.0147026 0)
(-0.000508928 0.015304 0)
(-0.00378671 0.0315865 0)
(-0.00818941 0.0378714 0)
(-0.0134137 0.0389898 0)
(-0.0179159 0.0377699 0)
(-0.0224651 0.0355614 0)
(-0.0263316 0.0327918 0)
(-0.0298882 0.0297002 0)
(-0.0329605 0.0263649 0)
(-0.035577 0.0228539 0)
(-0.0377902 0.0192202 0)
(-0.0396046 0.0154953 0)
(-0.0410411 0.0116993 0)
(-0.0421204 0.00784216 0)
(-0.0428533 0.00392579 0)
(-0.0432436 -5.42984e-05 0)
(-0.0432838 -0.00410491 0)
(-0.042955 -0.00823351 0)
(-0.0422283 -0.0124428 0)
(-0.0410565 -0.0167265 0)
(-0.0393892 -0.0210657 0)
(-0.0371888 -0.0254249 0)
(-0.0343425 -0.0297309 0)
(-0.030786 -0.0338757 0)
(-0.0266635 -0.0377183 0)
(-0.0215269 -0.0408958 0)
(-0.0162471 -0.0428248 0)
(-0.0099427 -0.0418931 0)
(-0.00459233 -0.0349896 0)
(-0.000603197 -0.0169224 0)
(-0.000606706 0.0174255 0)
(-0.00430677 0.0359017 0)
(-0.0093551 0.0429479 0)
(-0.0152151 0.0440902 0)
(-0.020271 0.0425707 0)
(-0.0252748 0.0399363 0)
(-0.0295061 0.0366915 0)
(-0.033329 0.0331138 0)
(-0.0366022 0.0293039 0)
(-0.0393587 0.0253396 0)
(-0.0416685 0.0212801 0)
(-0.0435539 0.0171579 0)
(-0.0450482 0.0129897 0)
(-0.0461824 0.00877953 0)
(-0.0469759 0.00452028 0)
(-0.0474367 0.000196723 0)
(-0.04756 -0.00420977 0)
(-0.0473258 -0.00872064 0)
(-0.0466975 -0.0133527 0)
(-0.0456168 -0.018114 0)
(-0.0440172 -0.0229985 0)
(-0.0418313 -0.0279787 0)
(-0.0389109 -0.0329821 0)
(-0.0351713 -0.0378922 0)
(-0.0306829 -0.0425317 0)
(-0.0249961 -0.0464649 0)
(-0.0189494 -0.0489663 0)
(-0.0116991 -0.0481256 0)
(-0.0053656 -0.0403048 0)
(-0.000740014 -0.0195109 0)
(-0.000729487 0.0198634 0)
(-0.00495024 0.0408409 0)
(-0.010785 0.0487163 0)
(-0.0173993 0.0498287 0)
(-0.0230911 0.0479086 0)
(-0.0285949 0.0447371 0)
(-0.0332069 0.0409123 0)
(-0.0372874 0.0367581 0)
(-0.0407371 0.0324013 0)
(-0.0436012 0.0279306 0)
(-0.0459723 0.0234103 0)
(-0.0478953 0.0188721 0)
(-0.0494198 0.0143268 0)
(-0.0505902 0.00976929 0)
(-0.0514365 0.00518083 0)
(-0.051974 0.000532319 0)
(-0.0522016 -0.00421216 0)
(-0.0520983 -0.00909067 0)
(-0.051622 -0.0141399 0)
(-0.0507028 -0.0193889 0)
(-0.0492553 -0.0248524 0)
(-0.0471762 -0.0305203 0)
(-0.0442742 -0.0363299 0)
(-0.0404262 -0.0421636 0)
(-0.0356041 -0.047807 0)
(-0.0293339 -0.0527367 0)
(-0.0223931 -0.0560414 0)
(-0.0139723 -0.0554263 0)
(-0.00637221 -0.0465885 0)
(-0.000917818 -0.0225712 0)
(-0.0008879 0.0226975 0)
(-0.00576355 0.046551 0)
(-0.0125699 0.0553204 0)
(-0.0200853 0.0563141 0)
(-0.0265049 0.0538498 0)
(-0.0325493 0.049991 0)
(-0.0375431 0.045451 0)
(-0.0418528 0.0406082 0)
(-0.0454325 0.0356194 0)
(-0.0483503 0.0305837 0)
(-0.0507276 0.0255681 0)
(-0.0526379 0.0206003 0)
(-0.0541513 0.0156817 0)
(-0.0553287 0.0107943 0)
(-0.0562132 0.00590389 0)
(-0.05683 0.000963786 0)
(-0.0571833 -0.00408196 0)
(-0.0572539 -0.00929394 0)
(-0.056996 -0.0147345 0)
(-0.0563299 -0.0204617 0)
(-0.0551502 -0.0265219 0)
(-0.053313 -0.0329356 0)
(-0.0505763 -0.0396663 0)
(-0.0467565 -0.0466106 0)
(-0.0416919 -0.0535246 0)
(-0.034846 -0.0597858 0)
(-0.0268814 -0.0642417 0)
(-0.0170012 -0.0640865 0)
(-0.00772954 -0.0541438 0)
(-0.00115877 -0.0262532 0)
(-0.00109979 0.0260404 0)
(-0.00681932 0.0532314 0)
(-0.0148455 0.0629452 0)
(-0.0234435 0.0636753 0)
(-0.0306897 0.0604611 0)
(-0.0373017 0.0557123 0)
(-0.042653 0.0502825 0)
(-0.0471326 0.0446139 0)
(-0.0507647 0.0388948 0)
(-0.053653 0.033232 0)
(-0.0559558 0.0276902 0)
(-0.0577817 0.022288 0)
(-0.0592258 0.0170122 0)
(-0.0603679 0.0118273 0)
(-0.0612667 0.00667998 0)
(-0.0619596 0.00150209 0)
(-0.0624589 -0.00378592 0)
(-0.0627504 -0.00927171 0)
(-0.0627893 -0.0150494 0)
(-0.06249 -0.0212152 0)
(-0.0617298 -0.0278603 0)
(-0.0603243 -0.0350545 0)
(-0.0579751 -0.0428133 0)
(-0.0544139 -0.0510767 0)
(-0.0493014 -0.0595963 0)
(-0.0419752 -0.0676526 0)
(-0.0328868 -0.0737888 0)
(-0.0211852 -0.0745057 0)
(-0.00965039 -0.0634219 0)
(-0.00150799 -0.0307906 0)
(-0.0013971 0.0300581 0)
(-0.00823577 0.0611597 0)
(-0.0178188 0.0718305 0)
(-0.027721 0.0720614 0)
(-0.0358898 0.0678015 0)
(-0.0430669 0.0618891 0)
(-0.0487088 0.0553474 0)
(-0.0532532 0.0486881 0)
(-0.0568157 0.0421288 0)
(-0.0595528 0.0357772 0)
(-0.0616686 0.029687 0)
(-0.0633125 0.0238591 0)
(-0.0646082 0.018259 0)
(-0.0656566 0.0128285 0)
(-0.0665337 0.00749071 0)
(-0.0672909 0.00215295 0)
(-0.0679516 -0.00329082 0)
(-0.0685114 -0.00895859 0)
(-0.068933 -0.0149815 0)
(-0.0691339 -0.0215023 0)
(-0.0689827 -0.0286721 0)
(-0.0682625 -0.0366341 0)
(-0.066622 -0.045493 0)
(-0.0636878 -0.0552826 0)
(-0.0588936 -0.065806 0)
(-0.0513584 -0.0762852 0)
(-0.0411556 -0.0849074 0)
(-0.0272164 -0.087229 0)
(-0.012548 -0.0751203 0)
(-0.00206775 -0.0365787 0)
(-0.00184087 0.035008 0)
(-0.0102135 0.0707314 0)
(-0.0218125 0.0822867 0)
(-0.0332781 0.0816362 0)
(-0.0424396 0.075905 0)
(-0.050121 0.0684632 0)
(-0.0559166 0.0605316 0)
(-0.0603521 0.0526902 0)
(-0.0636622 0.0451752 0)
(-0.0660757 0.0380814 0)
(-0.0678519 0.0314366 0)
(-0.0691852 0.0252123 0)
(-0.0702295 0.0193435 0)
(-0.0711071 0.0137428 0)
(-0.071911 0.00830572 0)
(-0.0727076 0.00291312 0)
(-0.0735345 -0.00256859 0)
(-0.0744024 -0.00828838 0)
(-0.0752913 -0.014417 0)
(-0.0761354 -0.0211499 0)
(-0.0768124 -0.0287111 0)
(-0.0770955 -0.0373443 0)
(-0.0766015 -0.0472922 0)
(-0.0748505 -0.0587596 0)
(-0.0710116 -0.0717098 0)
(-0.0638669 -0.0854216 0)
(-0.0528432 -0.0977406 0)
(-0.0363019 -0.102972 0)
(-0.0172584 -0.0903495 0)
(-0.00308326 -0.0443518 0)
(-0.00255491 0.0413129 0)
(-0.0131067 0.0825195 0)
(-0.0273358 0.0947056 0)
(-0.0406344 0.0925563 0)
(-0.05078 0.0847454 0)
(-0.0587915 0.0752932 0)
(-0.064487 0.0656353 0)
(-0.0685356 0.0564024 0)
(-0.071324 0.0478235 0)
(-0.0731741 0.0399555 0)
(-0.0744073 0.0327781 0)
(-0.0752634 0.0262164 0)
(-0.0759244 0.0201636 0)
(-0.0765305 0.0144959 0)
(-0.0771891 0.00907823 0)
(-0.0779804 0.0037644 0)
(-0.0789569 -0.00160508 0)
(-0.080151 -0.00720557 0)
(-0.0815713 -0.0132459 0)
(-0.0831871 -0.0199738 0)
(-0.0849141 -0.0276922 0)
(-0.0865573 -0.0367676 0)
(-0.087754 -0.0476342 0)
(-0.0879601 -0.0607723 0)
(-0.0860927 -0.0764865 0)
(-0.0804903 -0.0943717 0)
(-0.0695553 -0.11213 0)
(-0.0504158 -0.122563 0)
(-0.0254326 -0.110897 0)
(-0.0051316 -0.055582 0)
(-0.0037996 0.049708 0)
(-0.0175539 0.0973541 0)
(-0.0351758 0.109545 0)
(-0.0504846 0.104908 0)
(-0.0614005 0.0941629 0)
(-0.069341 0.0820885 0)
(-0.0744745 0.0703198 0)
(-0.0776856 0.0594898 0)
(-0.0795488 0.0497712 0)
(-0.0804947 0.0411407 0)
(-0.0809075 0.0334986 0)
(-0.0810653 0.0267013 0)
(-0.0811689 0.0205864 0)
(-0.0813674 0.0149872 0)
(-0.0817751 0.00973596 0)
(-0.0824808 0.00466218 0)
(-0.0835493 -0.000413198 0)
(-0.0850384 -0.00568778 0)
(-0.086997 -0.0113925 0)
(-0.0894484 -0.0178176 0)
(-0.0923821 -0.0253363 0)
(-0.0956977 -0.0344418 0)
(-0.0991448 -0.0457987 0)
(-0.102232 -0.0602742 0)
(-0.103754 -0.0787708 0)
(-0.101611 -0.101672 0)
(-0.0927798 -0.127131 0)
(-0.0721285 -0.146574 0)
(-0.0399169 -0.139448 0)
(-0.00942376 -0.0732353 0)
(-0.0061218 0.0615478 0)
(-0.0246851 0.116405 0)
(-0.0464149 0.127211 0)
(-0.0634813 0.118527 0)
(-0.0744177 0.103687 0)
(-0.0813847 0.0882566 0)
(-0.0850729 0.0739865 0)
(-0.0866656 0.0614101 0)
(-0.0869518 0.0505572 0)
(-0.0864709 0.0412611 0)
(-0.0856526 0.0332985 0)
(-0.0847909 0.0264306 0)
(-0.0840838 0.0204253 0)
(-0.0836704 0.0150675 0)
(-0.0836558 0.0101582 0)
(-0.084125 0.00550821 0)
(-0.0851504 0.000927755 0)
(-0.0868079 -0.00379064 0)
(-0.0891865 -0.00887577 0)
(-0.0923803 -0.0146361 0)
(-0.0964814 -0.0214834 0)
(-0.101549 -0.0300058 0)
(-0.107563 -0.0410879 0)
(-0.114283 -0.0560492 0)
(-0.120701 -0.0766634 0)
(-0.124571 -0.104791 0)
(-0.121329 -0.14025 0)
(-0.1025 -0.174242 0)
(-0.0639765 -0.179022 0)
(-0.0179008 -0.10259 0)
(-0.0106132 0.0794527 0)
(-0.0362993 0.141116 0)
(-0.0618784 0.147602 0)
(-0.0789384 0.132458 0)
(-0.0876968 0.112041 0)
(-0.0915845 0.0924997 0)
(-0.0920118 0.0754686 0)
(-0.0905157 0.0611884 0)
(-0.0880783 0.0494026 0)
(-0.085296 0.039709 0)
(-0.0825828 0.0317079 0)
(-0.0801923 0.025038 0)
(-0.0782731 0.0193875 0)
(-0.0769172 0.0144934 0)
(-0.0761909 0.0101311 0)
(-0.0761531 0.00610286 0)
(-0.0768651 0.00222031 0)
(-0.0783994 -0.00171055 0)
(-0.0808717 -0.00589986 0)
(-0.0844377 -0.0106295 0)
(-0.0892881 -0.0162957 0)
(-0.0956653 -0.0235055 0)
(-0.103856 -0.033273 0)
(-0.114077 -0.0473158 0)
(-0.125989 -0.0684287 0)
(-0.137974 -0.100631 0)
(-0.144706 -0.147241 0)
(-0.134262 -0.202028 0)
(-0.0963792 -0.230786 0)
(-0.0317605 -0.151548 0)
(-0.0191779 0.108066 0)
(-0.0542775 0.17175 0)
(-0.0789112 0.168326 0)
(-0.0895199 0.143329 0)
(-0.0902311 0.115862 0)
(-0.0862896 0.0919139 0)
(-0.0798429 0.0724445 0)
(-0.0726036 0.057051 0)
(-0.0655325 0.0449862 0)
(-0.0590835 0.035508 0)
(-0.0534898 0.0279992 0)
(-0.0488399 0.0219678 0)
(-0.0451427 0.0170302 0)
(-0.0423784 0.0128901 0)
(-0.0405268 0.00931316 0)
(-0.0395831 0.00610944 0)
(-0.0395643 0.0031125 0)
(-0.0405103 0.000162174 0)
(-0.0425258 -0.00292766 0)
(-0.0457743 -0.00636064 0)
(-0.0504948 -0.0104527 0)
(-0.057045 -0.0157288 0)
(-0.0659539 -0.0231666 0)
(-0.0779234 -0.0346593 0)
(-0.0936112 -0.0538491 0)
(-0.113197 -0.0871029 0)
(-0.132937 -0.143007 0)
(-0.139948 -0.222418 0)
(-0.12043 -0.290014 0)
(-0.0460311 -0.230593 0)
(-0.0333205 0.152583 0)
(-0.074343 0.200339 0)
(-0.0770914 0.178645 0)
(-0.0640622 0.141089 0)
(-0.0445658 0.107153 0)
(-0.0246416 0.0806531 0)
(-0.00610684 0.0608345 0)
(0.0101471 0.0462164 0)
(0.0238809 0.0354216 0)
(0.0352494 0.0273664 0)
(0.0445111 0.0212647 0)
(0.0519385 0.016554 0)
(0.057785 0.012833 0)
(0.0622601 0.00981501 0)
(0.0655215 0.00729188 0)
(0.0676783 0.00510617 0)
(0.0687911 0.00313134 0)
(0.0688671 0.00125702 0)
(0.067865 -0.00063953 0)
(0.0656937 -0.00269033 0)
(0.0621396 -0.00508113 0)
(0.056857 -0.00815934 0)
(0.0492603 -0.0126479 0)
(0.0383896 -0.0201597 0)
(0.0228015 -0.0343719 0)
(-0.000192196 -0.0632339 0)
(-0.0320175 -0.120141 0)
(-0.0644548 -0.218297 0)
(-0.0953912 -0.334899 0)
(-0.0411001 -0.336623 0)
(-0.0354057 0.242812 0)
(-0.043299 0.207636 0)
(0.0288473 0.147996 0)
(0.0890331 0.10427 0)
(0.139823 0.0726679 0)
(0.180246 0.0507102 0)
(0.211797 0.0359265 0)
(0.236312 0.026007 0)
(0.255335 0.0192369 0)
(0.270132 0.0144968 0)
(0.281676 0.0110855 0)
(0.290689 0.00855937 0)
(0.297704 0.00663254 0)
(0.303114 0.00511598 0)
(0.307199 0.00388451 0)
(0.310154 0.00284967 0)
(0.312108 0.00194409 0)
(0.313133 0.00111489 0)
(0.31324 0.00032271 0)
(0.312421 -0.000489857 0)
(0.310553 -0.00141177 0)
(0.307392 -0.00258561 0)
(0.302452 -0.00431665 0)
(0.294772 -0.00740315 0)
(0.282214 -0.0139522 0)
(0.260712 -0.0299789 0)
(0.221901 -0.0685411 0)
(0.164553 -0.156055 0)
(0.0460735 -0.302369 0)
(0.0313781 -0.385148 0)
(0.233947 0.161282 0)
(0.298395 0.120599 0)
(0.448937 0.0771058 0)
(0.543287 0.0494902 0)
(0.601672 0.03149 0)
(0.640061 0.0198138 0)
(0.666162 0.0125363 0)
(0.684282 0.00812506 0)
(0.697186 0.00545822 0)
(0.706646 0.00381582 0)
(0.713756 0.00276886 0)
(0.719193 0.00207011 0)
(0.72339 0.00157934 0)
(0.726637 0.00121644 0)
(0.729129 0.000935344 0)
(0.730998 0.00070834 0)
(0.732337 0.000517139 0)
(0.733201 0.000348286 0)
(0.733621 0.00019354 0)
(0.733603 5.5091e-05 0)
(0.733087 -9.74535e-05 0)
(0.731985 -0.000298448 0)
(0.730017 -0.000597855 0)
(0.726627 -0.00115718 0)
(0.71992 -0.00240581 0)
(0.70699 -0.00583633 0)
(0.674481 -0.0147175 0)
(0.61741 -0.0388459 0)
(0.433976 -0.105084 0)
(0.306868 -0.176806 0)
)
;

boundaryField
{
    movingWall
    {
        type            fixedValue;
        value           uniform (1 0 0);
    }
    fixedWalls
    {
        type            noSlip;
    }
    frontAndBack
    {
        type            empty;
    }
}


// ************************************************************************* //
