/*--------------------------------*- C++ -*----------------------------------*\
  =========                 |
  \\      /  F ield         | OpenFOAM: The Open Source CFD Toolbox
   \\    /   O peration     | Website:  https://openfoam.org
    \\  /    A nd           | Version:  7
     \\/     M anipulation  |
\*---------------------------------------------------------------------------*/
FoamFile
{
    version     2.0;
    format      ascii;
    class       volScalarField;
    location    "5.7";
    object      p;
}
// * * * * * * * * * * * * * * * * * * * * * * * * * * * * * * * * * * * * * //

dimensions      [0 2 -2 0 0 0 0];

internalField   nonuniform List<scalar> 
900
(
8.7696e-09
-0.000126527
-0.0002696
-0.000387211
-0.00044978
-0.000441563
-0.000357035
-0.00019562
4.13554e-05
0.000351936
0.000733789
0.00118382
0.00169743
0.0022676
0.00288403
0.00353245
0.00419437
0.00484717
0.00546519
0.0060215
0.00649028
0.00684986
0.00708583
0.00719371
0.00718083
0.00706707
0.00688455
0.00667375
0.00649057
0.00639189
0.000124745
-3.80843e-06
-0.000102876
-0.000172407
-0.000196011
-0.000161431
-6.34726e-05
9.96364e-05
0.000328088
0.00062111
0.000977073
0.00139322
0.00186513
0.00238607
0.00294637
0.00353287
0.00412912
0.00471518
0.00526885
0.00576717
0.0061886
0.00651552
0.0067369
0.00685041
0.00686369
0.00679438
0.00666899
0.00652087
0.00638695
0.00629212
0.000272994
9.14964e-05
-9.8727e-06
-6.76946e-05
-7.83273e-05
-3.34656e-05
6.98996e-05
0.0002327
0.000455196
0.00073709
0.00107737
0.00147394
0.0019231
0.00241889
0.00295243
0.00351149
0.00408106
0.00464163
0.00517207
0.00565026
0.0060553
0.00637008
0.00658394
0.00669478
0.00671014
0.00664683
0.00652939
0.0063883
0.0062506
0.00611588
0.000398272
0.000153331
3.45757e-05
-2.52032e-05
-3.305e-05
1.52875e-05
0.000120059
0.000280736
0.000497217
0.000769502
0.00109727
0.00147934
0.00191307
0.00239358
0.00291308
0.00346032
0.00402053
0.00457477
0.00510159
0.00557807
0.00598212
0.0062953
0.00650575
0.00661059
0.00661711
0.00654209
0.00641009
0.00625153
0.00608813
0.00590103
0.00046255
0.000155641
1.55049e-05
-5.20183e-05
-6.25457e-05
-1.51678e-05
8.78129e-05
0.000244443
0.000454247
0.000717559
0.00103486
0.00140609
0.00182988
0.00230267
0.00281791
0.00336524
0.00393015
0.00449362
0.00503298
0.0055233
0.00593988
0.00626143
0.00647352
0.00657166
0.00656272
0.00646428
0.0063027
0.00611106
0.00591053
0.00567001
0.000437315
7.34819e-05
-8.91556e-05
-0.000167743
-0.000184757
-0.000141899
-4.35872e-05
0.000107072
0.000309391
0.000564177
0.000872867
0.00123671
0.00165584
0.00212826
0.00264882
0.00320817
0.003792
0.00438072
0.00494969
0.00547091
0.00591555
0.00625778
0.0064791
0.00657219
0.00654323
0.00641133
0.00620658
0.00596769
0.00571952
0.00542382
0.000302176
-0.00011263
-0.000297307
-0.000388601
-0.000414585
-0.000378998
-0.000287918
-0.000145273
4.82788e-05
0.000294203
0.000595089
0.000953709
0.00137197
0.00184973
0.00238356
0.00296538
0.00358121
0.00421083
0.00482709
0.00539788
0.00588875
0.00626742
0.00650917
0.00660225
0.00655129
0.00637749
0.00611651
0.00581584
0.00550797
0.00515108
4.14167e-05
-0.000418947
-0.000624602
-0.000729375
-0.000766112
-0.000740195
-0.000658989
-0.000526938
-0.000344447
-0.000109191
0.000182765
0.000535958
0.000954381
0.00144018
0.00199215
0.00260405
0.00326271
0.00394775
0.00462936
0.0052706
0.00582986
0.006266
0.00654532
0.00664888
0.00657804
0.00635588
0.0060254
0.0056463
0.00526255
0.0048299
-0.000357993
-0.000859565
-0.00108524
-0.00120414
-0.00125339
-0.00123979
-0.00117174
-0.00105401
-0.000886582
-0.000666148
-0.000387261
-4.33969e-05
0.000371878
0.000863531
0.00143339
0.00207797
0.0027859
0.00353819
0.00430272
0.00503766
0.00569289
0.00621566
0.00655927
0.00669321
0.00661196
0.00633893
0.00592569
0.00544815
0.00496595
0.00443089
-0.000907315
-0.0014468
-0.00169196
-0.00182597
-0.00188994
-0.00189204
-0.00184165
-0.00174377
-0.00159796
-0.00139989
-0.0011426
-0.000817418
-0.000415169
7.25483e-05
0.000651604
0.00132268
0.00207785
0.00290309
0.00376484
0.00461774
0.00540273
0.00605254
0.00650204
0.0067022
0.00663384
0.00631627
0.00580939
0.00521
0.00459867
0.00391925
-0.00161642
-0.00219139
-0.00245604
-0.00260667
-0.00268834
-0.00271066
-0.00268407
-0.00261396
-0.00249965
-0.002336
-0.00211469
-0.00182505
-0.00145501
-0.000992248
-0.000425765
0.000251485
0.00103858
0.00192831
0.00289189
0.00388354
0.00483683
0.00566785
0.00628647
0.00661454
0.00660718
0.00626982
0.005667
0.00492113
0.004141
0.00325644
-0.00249386
-0.00310262
-0.00338727
-0.00355664
-0.0036598
-0.00370809
-0.00371331
-0.00368164
-0.00361259
-0.00350076
-0.00333706
-0.00310931
-0.00280292
-0.00240154
-0.00188808
-0.00124619
-0.000463607
0.000455527
0.00150482
0.00264313
0.00380202
0.00488184
0.00576086
0.00631731
0.00646078
0.00616355
0.00548362
0.00457175
0.00357503
0.00240212
-0.00354666
-0.0041882
-0.0044938
-0.00468451
-0.00481358
-0.00489459
-0.00494129
-0.00496132
-0.00495519
-0.00491825
-0.00484172
-0.00471319
-0.00451664
-0.00423239
-0.00383704
-0.00330378
-0.00260528
-0.00172273
-0.000638291
0.000625523
0.00201237
0.00341453
0.00467545
0.00561267
0.00606075
0.00592459
0.00522995
0.00415153
0.00288687
0.00131667
-0.00478015
-0.0054543
-0.00578209
-0.00599676
-0.00615621
-0.00627698
-0.00637566
-0.00646238
-0.0065399
-0.00660578
-0.00665345
-0.00667234
-0.00664732
-0.00655741
-0.00637401
-0.00605907
-0.00556424
-0.00483525
-0.00382987
-0.00251562
-0.000917071
0.000867678
0.00265309
0.0041814
0.00517418
0.00541472
0.00484637
0.00364547
0.00206943
-3.4782e-05
-0.00619778
-0.00690561
-0.00725685
-0.00749747
-0.00769073
-0.00785718
-0.00801754
-0.0081858
-0.00836868
-0.00856796
-0.00878182
-0.00900469
-0.00922596
-0.0094272
-0.00957778
-0.00962942
-0.00951104
-0.00912806
-0.00837648
-0.00716098
-0.0054356
-0.00325431
-0.000809095
0.0015648
0.00343787
0.00439818
0.00422082
0.00302732
0.00112711
-0.00167446
-0.00780124
-0.0085458
-0.00892137
-0.00918815
-0.00941591
-0.00963071
-0.00985904
-0.0101206
-0.010428
-0.0107897
-0.0112117
-0.0116975
-0.0122458
-0.0128461
-0.0134712
-0.0140662
-0.0145371
-0.0147428
-0.0144998
-0.0136228
-0.0119512
-0.00944761
-0.00626596
-0.00279521
0.000363922
0.00252469
0.003169
0.00225306
8.51937e-05
-0.00359628
-0.00959114
-0.0103787
-0.0107784
-0.0110681
-0.0113258
-0.0115853
-0.011881
-0.0122402
-0.0126838
-0.0132293
-0.013894
-0.0146944
-0.0156441
-0.016747
-0.017986
-0.0193056
-0.020592
-0.0216561
-0.022229
-0.0219881
-0.020649
-0.0180174
-0.0141441
-0.009412
-0.00457052
-0.000634942
0.0014387
0.00126244
-0.000992216
-0.0057365
-0.0115685
-0.0124102
-0.012832
-0.0131352
-0.0134098
-0.0137
-0.0140509
-0.0145
-0.015078
-0.015814
-0.0167391
-0.0178867
-0.0192898
-0.0209726
-0.0229349
-0.0251274
-0.0274223
-0.0295852
-0.0312571
-0.0319714
-0.0313044
-0.0288476
-0.0244824
-0.0184993
-0.0117147
-0.00545541
-0.00122699
5.82795e-06
-0.00196976
-0.00792324
-0.0137378
-0.0146523
-0.0150901
-0.0153878
-0.015653
-0.0159448
-0.0163227
-0.0168361
-0.0175276
-0.018439
-0.0196167
-0.0211132
-0.0229837
-0.0252761
-0.0280114
-0.031152
-0.034562
-0.0379684
-0.0409377
-0.042886
-0.0431752
-0.0412305
-0.0367033
-0.0296953
-0.0209582
-0.0120173
-0.00493826
-0.00147633
-0.00258646
-0.00979774
-0.0161123
-0.0171289
-0.0175694
-0.0178273
-0.0180376
-0.0182814
-0.0186365
-0.019167
-0.0199273
-0.0209725
-0.0223641
-0.0241733
-0.0264773
-0.0293478
-0.0328269
-0.0368903
-0.0413983
-0.0460482
-0.0503475
-0.0536241
-0.0550453
-0.0538842
-0.0495554
-0.0419092
-0.0314933
-0.0198365
-0.00942719
-0.00290709
-0.00237236
-0.0107004
-0.0187235
-0.0198857
-0.0203018
-0.0204611
-0.0205441
-0.0206636
-0.0209214
-0.021397
-0.022157
-0.0232675
-0.0248034
-0.026852
-0.0295091
-0.0328659
-0.0369816
-0.0418417
-0.0473035
-0.0530424
-0.0585191
-0.0629872
-0.0655315
-0.0652463
-0.0613584
-0.0534594
-0.0418023
-0.0277086
-0.0138221
-0.00357499
-0.000532449
-0.00952051
-0.0216389
-0.0230061
-0.0233441
-0.023307
-0.0231524
-0.023039
-0.0230974
-0.0234232
-0.0240919
-0.0251779
-0.0267654
-0.0289532
-0.0318498
-0.035559
-0.0401489
-0.0456077
-0.0517862
-0.058342
-0.0647031
-0.0700745
-0.0734918
-0.0739292
-0.0704775
-0.062506
-0.0499651
-0.0338234
-0.0165767
-0.00217107
0.00419526
-0.00452314
-0.0249972
-0.0266371
-0.0267893
-0.026395
-0.0258408
-0.0253482
-0.0250793
-0.0251418
-0.0256154
-0.0265768
-0.0281143
-0.0303321
-0.0333446
-0.0372588
-0.0421423
-0.0479763
-0.0545986
-0.0616485
-0.0685304
-0.0744157
-0.0783012
-0.079092
-0.0757792
-0.0675751
-0.0541681
-0.0361473
-0.0156461
0.00323109
0.0136905
0.00681779
-0.0290827
-0.0310316
-0.0307811
-0.0297665
-0.028581
-0.027522
-0.0267769
-0.026455
-0.0266298
-0.0273724
-0.0287681
-0.0309196
-0.0339389
-0.037928
-0.042943
-0.0489508
-0.0557668
-0.0630051
-0.0700417
-0.0760183
-0.0798951
-0.0805361
-0.0768299
-0.0678836
-0.053146
-0.0329057
-0.00886949
0.0150425
0.0305961
0.0279412
-0.0344885
-0.0366133
-0.035522
-0.0334615
-0.0313233
-0.0294709
-0.0280906
-0.0272702
-0.0270604
-0.0275148
-0.0287061
-0.030728
-0.0336807
-0.0376544
-0.0426834
-0.0487078
-0.055514
-0.0626835
-0.0695594
-0.0752465
-0.0786553
-0.0785818
-0.0738113
-0.0632985
-0.0463543
-0.022974
0.00552754
0.0359
0.0583475
0.0631232
-0.0425002
-0.0440715
-0.0412443
-0.0374699
-0.0339514
-0.031046
-0.0288774
-0.0274716
-0.0268305
-0.0269729
-0.0279461
-0.0298249
-0.0326906
-0.0366071
-0.0415817
-0.0475194
-0.0541683
-0.0610702
-0.0675274
-0.0725966
-0.0751216
-0.0737927
-0.0672542
-0.0542719
-0.0339373
-0.00604088
0.028453
0.0679188
0.100521
0.117186
-0.056218
-0.0545147
-0.0481139
-0.0416133
-0.0361696
-0.0319359
-0.0288591
-0.0268412
-0.0257941
-0.0256762
-0.0264925
-0.028283
-0.0310991
-0.034972
-0.039873
-0.0456656
-0.0520543
-0.0585366
-0.0643697
-0.0685577
-0.0698728
-0.0668607
-0.057985
-0.0417466
-0.0168998
0.0172118
0.0602575
0.111048
0.158818
0.197019
-0.0835186
-0.0692111
-0.0561457
-0.04543
-0.0373671
-0.0315724
-0.0275775
-0.0250505
-0.02375
-0.0235352
-0.0243468
-0.0261784
-0.0290428
-0.0329341
-0.0377849
-0.0434175
-0.0494944
-0.0554707
-0.0605572
-0.0637041
-0.0636309
-0.0587603
-0.0473689
-0.0275697
0.00240362
0.0440553
0.0980756
0.164609
0.233932
0.316405
-0.135869
-0.0845738
-0.0630683
-0.0464964
-0.0353643
-0.0282645
-0.0238484
-0.0213009
-0.0201648
-0.0201944
-0.021271
-0.0233491
-0.0264118
-0.0304265
-0.0352992
-0.0408264
-0.0466473
-0.0521981
-0.0566712
-0.0589795
-0.0577373
-0.0514276
-0.0381694
-0.0156635
0.0185417
0.0674299
0.134037
0.223243
0.331498
0.501394
-0.308356
-0.0942397
-0.0457122
-0.0277806
-0.0180723
-0.0132012
-0.0112565
-0.0108913
-0.0114958
-0.0128781
-0.0150011
-0.0178799
-0.0215399
-0.0259796
-0.0311287
-0.0368043
-0.0426672
-0.0481799
-0.0525743
-0.0548334
-0.0536826
-0.0474558
-0.0341595
-0.0115875
0.0231109
0.074416
0.148958
0.264273
0.439695
0.783633
)
;

boundaryField
{
    movingWall
    {
        type            zeroGradient;
    }
    fixedWalls
    {
        type            zeroGradient;
    }
    frontAndBack
    {
        type            empty;
    }
}


// ************************************************************************* //
