/*--------------------------------*- C++ -*----------------------------------*\
  =========                 |
  \\      /  F ield         | OpenFOAM: The Open Source CFD Toolbox
   \\    /   O peration     | Website:  https://openfoam.org
    \\  /    A nd           | Version:  7
     \\/     M anipulation  |
\*---------------------------------------------------------------------------*/
FoamFile
{
    version     2.0;
    format      ascii;
    class       volVectorField;
    location    "5.7";
    object      U;
}
// * * * * * * * * * * * * * * * * * * * * * * * * * * * * * * * * * * * * * //

dimensions      [0 1 -1 0 0 0 0];

internalField   nonuniform List<vector> 
900
(
(6.93398e-05 -6.84486e-05 0)
(4.47795e-05 7.91445e-06 0)
(-0.000270984 9.93567e-05 0)
(-0.000810811 0.000166917 0)
(-0.00151118 0.00020876 0)
(-0.00231228 0.000230564 0)
(-0.00316453 0.000238772 0)
(-0.0040309 0.000238168 0)
(-0.00488372 0.000231504 0)
(-0.00570063 0.000219904 0)
(-0.00646117 0.000203359 0)
(-0.00714452 0.000181164 0)
(-0.00772817 0.000152304 0)
(-0.00818764 0.000115822 0)
(-0.00849728 7.1178e-05 0)
(-0.00863212 1.8578e-05 0)
(-0.00857031 -4.08582e-05 0)
(-0.00829663 -0.000104644 0)
(-0.0078063 -0.000169004 0)
(-0.0071083 -0.000229029 0)
(-0.00622796 -0.00027906 0)
(-0.00520797 -0.000313349 0)
(-0.00410715 -0.000326852 0)
(-0.00299681 -0.000315997 0)
(-0.00195508 -0.000279259 0)
(-0.00105942 -0.000217433 0)
(-0.000377402 -0.000134366 0)
(3.97056e-05 -3.96291e-05 0)
(0.000175716 5.01419e-05 0)
(8.73525e-05 8.6662e-05 0)
(-5.87809e-06 -4.66673e-05 0)
(-0.00037924 0.000376119 0)
(-0.00137223 0.000824141 0)
(-0.00282507 0.00117555 0)
(-0.00462418 0.00141438 0)
(-0.00665469 0.00155392 0)
(-0.00881032 0.00161504 0)
(-0.011003 0.00161615 0)
(-0.0131609 0.00156971 0)
(-0.0152222 0.00148212 0)
(-0.0171303 0.001355 0)
(-0.0188296 0.00118678 0)
(-0.0202626 0.000974549 0)
(-0.0213704 0.000715914 0)
(-0.022094 0.000410845 0)
(-0.0223786 6.33098e-05 0)
(-0.022179 -0.000317601 0)
(-0.0214667 -0.000715742 0)
(-0.0202377 -0.00110896 0)
(-0.0185191 -0.00146975 0)
(-0.016374 -0.00176741 0)
(-0.0139026 -0.00197158 0)
(-0.0112394 -0.00205629 0)
(-0.00854454 -0.00200416 0)
(-0.00599119 -0.0018099 0)
(-0.00374842 -0.00148269 0)
(-0.00196135 -0.00104922 0)
(-0.000728155 -0.000559995 0)
(-7.38398e-05 -9.65009e-05 0)
(5.54405e-05 0.000173577 0)
(-0.00010388 0.000273718 0)
(-0.0008704 0.00137968 0)
(-0.00254206 0.00244687 0)
(-0.00482324 0.00329339 0)
(-0.00755842 0.00388579 0)
(-0.0106005 0.00424353 0)
(-0.0138082 0.00440424 0)
(-0.0170595 0.00440458 0)
(-0.0202511 0.0042716 0)
(-0.0232916 0.0040208 0)
(-0.0260964 0.00365764 0)
(-0.0285826 0.00318079 0)
(-0.0306667 0.00258612 0)
(-0.0322644 0.0018711 0)
(-0.0332933 0.00103917 0)
(-0.0336787 0.000103642 0)
(-0.0333601 -0.000908955 0)
(-0.0323007 -0.00195682 0)
(-0.0304991 -0.0029834 0)
(-0.0279959 -0.00391987 0)
(-0.024881 -0.00469068 0)
(-0.0212951 -0.0052218 0)
(-0.0174252 -0.00545077 0)
(-0.0134933 -0.00533694 0)
(-0.0097383 -0.00487046 0)
(-0.0063924 -0.0040789 0)
(-0.00365373 -0.00303277 0)
(-0.00165306 -0.00185258 0)
(-0.000434079 -0.000719433 0)
(-1.00111e-05 6.91959e-05 0)
(-0.000188376 0.000857142 0)
(-0.0013194 0.00292693 0)
(-0.00362702 0.00477806 0)
(-0.00666225 0.00622534 0)
(-0.0102212 0.00723891 0)
(-0.0141289 0.00785263 0)
(-0.018219 0.00812392 0)
(-0.0223468 0.00810904 0)
(-0.0263875 0.00785057 0)
(-0.0302294 0.00737394 0)
(-0.0337677 0.00668922 0)
(-0.0368997 0.00579593 0)
(-0.0395223 0.00468954 0)
(-0.0415318 0.00336862 0)
(-0.0428274 0.00184216 0)
(-0.0433175 0.000136291 0)
(-0.0429277 -0.00170002 0)
(-0.0416125 -0.00359285 0)
(-0.0393676 -0.00544256 0)
(-0.0362402 -0.0071287 0)
(-0.032337 -0.00851962 0)
(-0.0278277 -0.00948648 0)
(-0.0229403 -0.00992076 0)
(-0.0179474 -0.00975244 0)
(-0.013144 -0.00896612 0)
(-0.00881805 -0.00761254 0)
(-0.00521657 -0.00581566 0)
(-0.00250457 -0.00377701 0)
(-0.000754845 -0.0017803 0)
(-6.23742e-05 -0.000228907 0)
(-0.000256143 0.0016693 0)
(-0.00170721 0.00497082 0)
(-0.00458952 0.00775679 0)
(-0.00830449 0.00988831 0)
(-0.012597 0.0113669 0)
(-0.0172645 0.0122545 0)
(-0.0221196 0.0126347 0)
(-0.0270015 0.0125859 0)
(-0.0317716 0.0121669 0)
(-0.0363052 0.0114136 0)
(-0.0404843 0.0103403 0)
(-0.0441923 0.00894731 0)
(-0.0473114 0.00722944 0)
(-0.0497221 0.00518629 0)
(-0.0513066 0.00283283 0)
(-0.0519554 0.000209163 0)
(-0.0515772 -0.00261138 0)
(-0.050111 -0.00551806 0)
(-0.047541 -0.00836177 0)
(-0.0439103 -0.0109618 0)
(-0.0393322 -0.0131194 0)
(-0.0339969 -0.0146388 0)
(-0.0281677 -0.0153535 0)
(-0.0221672 -0.0151551 0)
(-0.0163508 -0.0140188 0)
(-0.0110699 -0.0120207 0)
(-0.00662996 -0.00934566 0)
(-0.00323991 -0.00628549 0)
(-0.00100649 -0.00323038 0)
(-9.36828e-05 -0.000679606 0)
(-0.000310271 0.00267588 0)
(-0.00203785 0.00745723 0)
(-0.00543122 0.0113239 0)
(-0.00975625 0.0142183 0)
(-0.0147079 0.0161992 0)
(-0.0200563 0.0173728 0)
(-0.0255956 0.0178576 0)
(-0.0311534 0.0177584 0)
(-0.0365829 0.0171524 0)
(-0.0417524 0.0160856 0)
(-0.0465366 0.0145765 0)
(-0.0508103 0.0126247 0)
(-0.0544446 0.0102225 0)
(-0.057306 0.00736848 0)
(-0.0592591 0.0040815 0)
(-0.060173 0.000413944 0)
(-0.0599321 -0.00353691 0)
(-0.0584493 -0.0076219 0)
(-0.0556841 -0.0116376 0)
(-0.0516611 -0.0153342 0)
(-0.0464871 -0.0184328 0)
(-0.040363 -0.0206538 0)
(-0.0335852 -0.0217551 0)
(-0.0265322 -0.0215742 0)
(-0.0196338 -0.0200673 0)
(-0.0133254 -0.0173355 0)
(-0.00799187 -0.0136334 0)
(-0.00390287 -0.00935865 0)
(-0.00120305 -0.00502386 0)
(-0.000106278 -0.00123993 0)
(-0.000354751 0.00384696 0)
(-0.00232239 0.0103315 0)
(-0.00616967 0.0154158 0)
(-0.0110438 0.0191489 0)
(-0.0165938 0.0216684 0)
(-0.0225642 0.023141 0)
(-0.0287332 0.02373 0)
(-0.0349206 0.0235724 0)
(-0.0409765 0.0227662 0)
(-0.0467675 0.0213686 0)
(-0.0521665 0.0194009 0)
(-0.0570443 0.0168595 0)
(-0.0612645 0.013731 0)
(-0.0646809 0.0100083 0)
(-0.0671387 0.00570897 0)
(-0.0684803 0.000892361 0)
(-0.0685559 -0.00432447 0)
(-0.0672381 -0.0097559 0)
(-0.0644435 -0.0151415 0)
(-0.0601584 -0.0201534 0)
(-0.0544642 -0.0244162 0)
(-0.0475587 -0.0275437 0)
(-0.0397673 -0.0291905 0)
(-0.0315329 -0.0291139 0)
(-0.0233819 -0.0272326 0)
(-0.0158653 -0.0236681 0)
(-0.00948245 -0.0187566 0)
(-0.00459046 -0.013027 0)
(-0.00138181 -0.00714841 0)
(-0.000107047 -0.00188394 0)
(-0.000392721 0.00515994 0)
(-0.002572 0.0135483 0)
(-0.00682593 0.0199784 0)
(-0.0121985 0.0246243 0)
(-0.0182983 0.0277213 0)
(-0.0248469 0.0295111 0)
(-0.03161 0.0302125 0)
(-0.0384036 0.0300014 0)
(-0.0450792 0.0290003 0)
(-0.0515074 0.0272779 0)
(-0.0575649 0.0248572 0)
(-0.063124 0.0217284 0)
(-0.0680446 0.0178668 0)
(-0.0721696 0.0132526 0)
(-0.0753237 0.00789313 0)
(-0.0773164 0.00184514 0)
(-0.0779527 -0.00476386 0)
(-0.0770471 -0.0117188 0)
(-0.0744502 -0.0187029 0)
(-0.0700827 -0.0253025 0)
(-0.0639731 -0.0310265 0)
(-0.056294 -0.0353505 0)
(-0.047389 -0.0377859 0)
(-0.0377722 -0.0379677 0)
(-0.0280935 -0.0357437 0)
(-0.0190645 -0.0312429 0)
(-0.0113498 -0.0248969 0)
(-0.00543821 -0.0174053 0)
(-0.00159276 -0.00964909 0)
(-0.000103702 -0.00260917 0)
(-0.000426205 0.00659838 0)
(-0.00279554 0.0170724 0)
(-0.00741867 0.0249684 0)
(-0.0132492 0.0306006 0)
(-0.0198601 0.0343179 0)
(-0.0269542 0.0364506 0)
(-0.0342881 0.0372841 0)
(-0.0416783 0.0370404 0)
(-0.0489832 0.0358704 0)
(-0.0560834 0.0338562 0)
(-0.062866 0.0310211 0)
(-0.0692109 0.0273451 0)
(-0.0749803 0.0227852 0)
(-0.0800098 0.0172991 0)
(-0.0841033 0.010871 0)
(-0.0870331 0.00353959 0)
(-0.0885474 -0.00457276 0)
(-0.088383 -0.0132355 0)
(-0.0862953 -0.0220825 0)
(-0.0821051 -0.0306098 0)
(-0.0757491 -0.0381897 0)
(-0.0673399 -0.0441201 0)
(-0.0572158 -0.0477126 0)
(-0.0459614 -0.0484153 0)
(-0.0343777 -0.0459495 0)
(-0.0233923 -0.0404217 0)
(-0.0139095 -0.0323709 0)
(-0.00661816 -0.0227211 0)
(-0.00189692 -0.0126471 0)
(-0.000104386 -0.00344261 0)
(-0.00045638 0.00815014 0)
(-0.00299922 0.0208765 0)
(-0.00796213 0.0303518 0)
(-0.014218 0.037043 0)
(-0.0213087 0.0414268 0)
(-0.0289216 0.043936 0)
(-0.0368087 0.0449331 0)
(-0.0447914 0.0446945 0)
(-0.0527409 0.0434048 0)
(-0.0605546 0.0411616 0)
(-0.0681377 0.0379875 0)
(-0.0753864 0.0338481 0)
(-0.0821726 0.0286743 0)
(-0.0883311 0.0223885 0)
(-0.0936483 0.0149342 0)
(-0.0978564 0.00631083 0)
(-0.100638 -0.003389 0)
(-0.101631 -0.0139401 0)
(-0.100465 -0.024946 0)
(-0.0968172 -0.0358146 0)
(-0.0904843 -0.0457626 0)
(-0.081467 -0.0538637 0)
(-0.070057 -0.0591556 0)
(-0.056891 -0.060807 0)
(-0.0429404 -0.058321 0)
(-0.0294122 -0.0517228 0)
(-0.0175484 -0.0416578 0)
(-0.00834256 -0.029342 0)
(-0.00236839 -0.0163585 0)
(-0.000118251 -0.00444626 0)
(-0.000483836 0.00980574 0)
(-0.00318702 0.0249393 0)
(-0.00846607 0.0361011 0)
(-0.0151199 0.0439224 0)
(-0.0226625 0.0490215 0)
(-0.0307688 0.0519465 0)
(-0.0391897 0.0531492 0)
(-0.0477568 0.0529693 0)
(-0.0563599 0.0516316 0)
(-0.0649212 0.0492525 0)
(-0.0733728 0.0458542 0)
(-0.081637 0.0413837 0)
(-0.089606 0.0357371 0)
(-0.0971235 0.0287869 0)
(-0.103965 0.0204148 0)
(-0.109826 0.0105512 0)
(-0.114313 -0.000774085 0)
(-0.116954 -0.0133711 0)
(-0.117219 -0.0268484 0)
(-0.114599 -0.0405389 0)
(-0.10869 -0.0534918 0)
(-0.0993149 -0.0645087 0)
(-0.0866539 -0.0722645 0)
(-0.0713492 -0.0755235 0)
(-0.0545376 -0.0734331 0)
(-0.0377622 -0.065827 0)
(-0.0227227 -0.0534244 0)
(-0.0108675 -0.0378051 0)
(-0.0030968 -0.0211159 0)
(-0.000156036 -0.00572421 0)
(-0.000508805 0.0115573 0)
(-0.00336138 0.0292434 0)
(-0.00893679 0.0421932 0)
(-0.015964 0.0512127 0)
(-0.0239303 0.057075 0)
(-0.0325001 0.0604579 0)
(-0.0414264 0.0619149 0)
(-0.0505554 0.0618597 0)
(-0.0598019 0.0605651 0)
(-0.0691203 0.0581713 0)
(-0.0784793 0.0547014 0)
(-0.0878383 0.0500815 0)
(-0.0971226 0.044164 0)
(-0.106197 0.0367559 0)
(-0.114839 0.027652 0)
(-0.122711 0.0166809 0)
(-0.129346 0.00376634 0)
(-0.13415 -0.0109918 0)
(-0.136424 -0.0272424 0)
(-0.135421 -0.0442756 0)
(-0.130482 -0.0609769 0)
(-0.121177 -0.0758376 0)
(-0.107484 -0.0870757 0)
(-0.089965 -0.0928993 0)
(-0.0698705 -0.0919062 0)
(-0.0491023 -0.0835521 0)
(-0.0299419 -0.0685314 0)
(-0.014493 -0.0488413 0)
(-0.00418937 -0.0273903 0)
(-0.000230611 -0.00743105 0)
(-0.000531396 0.0133979 0)
(-0.00352421 0.0337739 0)
(-0.0093792 0.0486073 0)
(-0.0167559 0.0588873 0)
(-0.0251142 0.065556 0)
(-0.0341082 0.069436 0)
(-0.0434948 0.0711965 0)
(-0.0531385 0.0713376 0)
(-0.062984 0.0701895 0)
(-0.073025 0.0679229 0)
(-0.0832757 0.0645655 0)
(-0.0937434 0.0600209 0)
(-0.104399 0.0540911 0)
(-0.115142 0.0465012 0)
(-0.125766 0.0369335 0)
(-0.135918 0.0250762 0)
(-0.145068 0.0106965 0)
(-0.152506 -0.00625871 0)
(-0.157347 -0.0255238 0)
(-0.158599 -0.0464046 0)
(-0.155306 -0.0676493 0)
(-0.146709 -0.0874225 0)
(-0.132479 -0.103407 0)
(-0.112966 -0.113095 0)
(-0.0894071 -0.114287 0)
(-0.0640115 -0.105774 0)
(-0.0397286 -0.0880071 0)
(-0.019557 -0.0633863 0)
(-0.00577321 -0.0358123 0)
(-0.000357894 -0.00978154 0)
(-0.00055189 0.0153215 0)
(-0.00367836 0.0385188 0)
(-0.00979985 0.055324 0)
(-0.0175028 0.0669175 0)
(-0.0262159 0.074425 0)
(-0.0355808 0.0788305 0)
(-0.0453588 0.0809352 0)
(-0.0554345 0.081339 0)
(-0.065786 0.0804411 0)
(-0.0764507 0.0784512 0)
(-0.0874946 0.0754065 0)
(-0.0989813 0.0711895 0)
(-0.110937 0.0655462 0)
(-0.123312 0.0581063 0)
(-0.13593 0.0484137 0)
(-0.148443 0.0359782 0)
(-0.160284 0.0203599 0)
(-0.170641 0.00129702 0)
(-0.178477 -0.0211141 0)
(-0.182576 -0.0462519 0)
(-0.181668 -0.0727833 0)
(-0.174623 -0.0985737 0)
(-0.160699 -0.120739 0)
(-0.139861 -0.13592 0)
(-0.113123 -0.140853 0)
(-0.0828179 -0.133266 0)
(-0.0525429 -0.112961 0)
(-0.0264198 -0.0825651 0)
(-0.00799815 -0.0471887 0)
(-0.000558769 -0.013062 0)
(-0.000571128 0.017324 0)
(-0.00382951 0.0434702 0)
(-0.0102112 0.0623268 0)
(-0.0182193 0.0752719 0)
(-0.0272437 0.0836311 0)
(-0.0369098 0.0885696 0)
(-0.0469809 0.0910382 0)
(-0.0573614 0.0917521 0)
(-0.0680637 0.0911914 0)
(-0.0791698 0.0896145 0)
(-0.0907992 0.087075 0)
(-0.103075 0.0834375 0)
(-0.116084 0.0783893 0)
(-0.129835 0.0714546 0)
(-0.1442 0.0620192 0)
(-0.15886 0.0493826 0)
(-0.173246 0.0328553 0)
(-0.186501 0.0119111 0)
(-0.197487 -0.013601 0)
(-0.204821 -0.0432002 0)
(-0.206979 -0.0755598 0)
(-0.202462 -0.108331 0)
(-0.190042 -0.13811 0)
(-0.169117 -0.160638 0)
(-0.14018 -0.171352 0)
(-0.105351 -0.166437 0)
(-0.0686476 -0.144404 0)
(-0.0354274 -0.107627 0)
(-0.0110392 -0.0625068 0)
(-0.000862493 -0.0176443 0)
(-0.000591038 0.0194055 0)
(-0.00398875 0.0486287 0)
(-0.0106371 0.0696054 0)
(-0.0189356 0.0839179 0)
(-0.0282238 0.0931123 0)
(-0.0381033 0.098557 0)
(-0.0483361 0.101373 0)
(-0.0588441 0.102407 0)
(-0.0696705 0.102232 0)
(-0.0809389 0.101165 0)
(-0.0928175 0.0992829 0)
(-0.105484 0.0964372 0)
(-0.119086 0.0922575 0)
(-0.133692 0.0861586 0)
(-0.149236 0.0773574 0)
(-0.165453 0.0649255 0)
(-0.18182 0.0478958 0)
(-0.197511 0.0254401 0)
(-0.211375 -0.00288504 0)
(-0.221976 -0.0368375 0)
(-0.227652 -0.07519 0)
(-0.226613 -0.115533 0)
(-0.217141 -0.154097 0)
(-0.197927 -0.185816 0)
(-0.168619 -0.204719 0)
(-0.130629 -0.204987 0)
(-0.0878962 -0.18296 0)
(-0.0468334 -0.139802 0)
(-0.0150929 -0.0829152 0)
(-0.00131154 -0.0240016 0)
(-0.000615381 0.021574 0)
(-0.00417607 0.0540105 0)
(-0.0111198 0.0771625 0)
(-0.0197076 0.0928264 0)
(-0.0292112 0.102796 0)
(-0.0391999 0.108671 0)
(-0.0494292 0.111764 0)
(-0.0598344 0.11307 0)
(-0.0704845 0.113267 0)
(-0.0815358 0.112737 0)
(-0.0931949 0.111587 0)
(-0.105683 0.109661 0)
(-0.119196 0.106536 0)
(-0.133861 0.10152 0)
(-0.149678 0.0936667 0)
(-0.166465 0.0818211 0)
(-0.183797 0.0647389 0)
(-0.200962 0.0412823 0)
(-0.216929 0.0106903 0)
(-0.230339 -0.0270972 0)
(-0.239563 -0.0710762 0)
(-0.242694 -0.118972 0)
(-0.237615 -0.166918 0)
(-0.222271 -0.209307 0)
(-0.195208 -0.238886 0)
(-0.156575 -0.247532 0)
(-0.109451 -0.228441 0)
(-0.060657 -0.180027 0)
(-0.0203612 -0.109654 0)
(-0.00196795 -0.0327229 0)
(-0.000650903 0.0238516 0)
(-0.00442519 0.0596583 0)
(-0.0117294 0.0850234 0)
(-0.0206286 0.101978 0)
(-0.0303039 0.112602 0)
(-0.0402827 0.118763 0)
(-0.0503108 0.121992 0)
(-0.0603332 0.123446 0)
(-0.0704379 0.123914 0)
(-0.0808031 0.123851 0)
(-0.091658 0.123398 0)
(-0.103249 0.122393 0)
(-0.115807 0.120371 0)
(-0.129505 0.116548 0)
(-0.144415 0.109834 0)
(-0.160457 0.0988752 0)
(-0.177355 0.0821827 0)
(-0.194596 0.0583391 0)
(-0.211392 0.0262826 0)
(-0.226621 -0.0143732 0)
(-0.238885 -0.0630139 0)
(-0.246377 -0.117663 0)
(-0.246783 -0.174709 0)
(-0.237429 -0.228459 0)
(-0.215669 -0.270794 0)
(-0.179937 -0.291355 0)
(-0.131524 -0.279384 0)
(-0.076479 -0.228537 0)
(-0.0270138 -0.1439 0)
(-0.00292174 -0.04452 0)
(-0.000709312 0.026284 0)
(-0.00479084 0.065657 0)
(-0.0125761 0.0932497 0)
(-0.0218435 0.111371 0)
(-0.0316558 0.122448 0)
(-0.0414927 0.128665 0)
(-0.0510909 0.131799 0)
(-0.0604062 0.133183 0)
(-0.0695411 0.133721 0)
(-0.0786847 0.133938 0)
(-0.0880731 0.134009 0)
(-0.0979603 0.133775 0)
(-0.108592 0.132737 0)
(-0.120176 0.130046 0)
(-0.132854 0.1245 0)
(-0.146668 0.114602 0)
(-0.161528 0.0986783 0)
(-0.177182 0.0750975 0)
(-0.193185 0.042547 0)
(-0.208835 0.000325209 0)
(-0.223099 -0.0514083 0)
(-0.234467 -0.111172 0)
(-0.240758 -0.175971 0)
(-0.23896 -0.240598 0)
(-0.225401 -0.296777 0)
(-0.196624 -0.332474 0)
(-0.151327 -0.332709 0)
(-0.0932361 -0.284334 0)
(-0.0351313 -0.186495 0)
(-0.00430292 -0.0602181 0)
(-0.000811068 0.0289556 0)
(-0.00536064 0.0721571 0)
(-0.0138273 0.101956 0)
(-0.0235654 0.121028 0)
(-0.0334892 0.13225 0)
(-0.0430344 0.138185 0)
(-0.0519412 0.140891 0)
(-0.0601859 0.141885 0)
(-0.0678874 0.142184 0)
(-0.07524 0.142376 0)
(-0.0824749 0.142664 0)
(-0.0898387 0.142895 0)
(-0.097578 0.142556 0)
(-0.105927 0.140758 0)
(-0.115096 0.136244 0)
(-0.125256 0.127435 0)
(-0.136526 0.11256 0)
(-0.148952 0.0898551 0)
(-0.162483 0.0578294 0)
(-0.176915 0.0155184 0)
(-0.191709 -0.0373059 0)
(-0.20584 -0.0998619 0)
(-0.217543 -0.170048 0)
(-0.223874 -0.243704 0)
(-0.22057 -0.313295 0)
(-0.202507 -0.366187 0)
(-0.165393 -0.383773 0)
(-0.109127 -0.344723 0)
(-0.0446328 -0.237543 0)
(-0.00629887 -0.0807283 0)
(-0.000993248 0.0320143 0)
(-0.00627587 0.079406 0)
(-0.0157336 0.111327 0)
(-0.0260946 0.131002 0)
(-0.0361006 0.141915 0)
(-0.0451691 0.147102 0)
(-0.0530762 0.148937 0)
(-0.0598435 0.149122 0)
(-0.0656199 0.148776 0)
(-0.0706078 0.148533 0)
(-0.0750307 0.148618 0)
(-0.0791213 0.148887 0)
(-0.0831213 0.148827 0)
(-0.0872866 0.14755 0)
(-0.091894 0.143795 0)
(-0.0972469 0.135981 0)
(-0.103676 0.122324 0)
(-0.111528 0.101027 0)
(-0.121142 0.0705078 0)
(-0.132787 0.0296136 0)
(-0.146486 -0.0222189 0)
(-0.161827 -0.0849128 0)
(-0.177637 -0.157404 0)
(-0.191477 -0.237004 0)
(-0.199113 -0.31781 0)
(-0.194396 -0.388027 0)
(-0.170247 -0.426975 0)
(-0.12175 -0.40518 0)
(-0.05519 -0.295934 0)
(-0.00917038 -0.107 0)
(-0.00132648 0.0357153 0)
(-0.00776959 0.0877925 0)
(-0.0186667 0.121633 0)
(-0.0298365 0.141358 0)
(-0.0398515 0.151316 0)
(-0.0481773 0.15514 0)
(-0.0546906 0.155551 0)
(-0.059505 0.154427 0)
(-0.0628274 0.15296 0)
(-0.0648838 0.151808 0)
(-0.065897 0.151207 0)
(-0.0660899 0.15102 0)
(-0.065701 0.150752 0)
(-0.0650078 0.149552 0)
(-0.0643512 0.146211 0)
(-0.0641568 0.139217 0)
(-0.0649478 0.126857 0)
(-0.0673413 0.107385 0)
(-0.0720195 0.079215 0)
(-0.0796618 0.0410851 0)
(-0.0908064 -0.00785696 0)
(-0.105642 -0.0680948 0)
(-0.123696 -0.139573 0)
(-0.143363 -0.22122 0)
(-0.161103 -0.309437 0)
(-0.17069 -0.394753 0)
(-0.163101 -0.456771 0)
(-0.128452 -0.459752 0)
(-0.0661165 -0.358956 0)
(-0.0132395 -0.13995 0)
(-0.00195171 0.0405028 0)
(-0.0102368 0.0979048 0)
(-0.0231719 0.133222 0)
(-0.035306 0.152129 0)
(-0.045114 0.16023 0)
(-0.0522503 0.161908 0)
(-0.0568028 0.160246 0)
(-0.0590502 0.157261 0)
(-0.0593024 0.154175 0)
(-0.0578359 0.151638 0)
(-0.0548909 0.149871 0)
(-0.0506922 0.148744 0)
(-0.0454811 0.147795 0)
(-0.0395564 0.146239 0)
(-0.0333128 0.142969 0)
(-0.0272756 0.136598 0)
(-0.0221198 0.12555 0)
(-0.018672 0.108195 0)
(-0.0178815 0.0830064 0)
(-0.0207487 0.0486819 0)
(-0.028217 0.00417473 0)
(-0.0409765 -0.0513891 0)
(-0.0592388 -0.118774 0)
(-0.082408 -0.198357 0)
(-0.108174 -0.289079 0)
(-0.131272 -0.384973 0)
(-0.142124 -0.468662 0)
(-0.126646 -0.501874 0)
(-0.076207 -0.422128 0)
(-0.0187874 -0.180325 0)
(-0.00315796 0.0471642 0)
(-0.0143587 0.110596 0)
(-0.0300219 0.146464 0)
(-0.0430635 0.16319 0)
(-0.0520884 0.168201 0)
(-0.0572006 0.166773 0)
(-0.0588719 0.162322 0)
(-0.0576482 0.156927 0)
(-0.0540021 0.15177 0)
(-0.0482977 0.147439 0)
(-0.0408158 0.144116 0)
(-0.0317982 0.141667 0)
(-0.0214917 0.139665 0)
(-0.0102085 0.137417 0)
(0.00162512 0.133942 0)
(0.0134261 0.128023 0)
(0.0244243 0.118264 0)
(0.0336627 0.103199 0)
(0.0400211 0.0814096 0)
(0.0422861 0.0516109 0)
(0.0392384 0.0126556 0)
(0.0297873 -0.0365695 0)
(0.0131418 -0.0973504 0)
(-0.011107 -0.171149 0)
(-0.0421611 -0.259025 0)
(-0.0766099 -0.35915 0)
(-0.106057 -0.459732 0)
(-0.113776 -0.525128 0)
(-0.0834706 -0.479204 0)
(-0.0257685 -0.228333 0)
(-0.00553708 0.0571392 0)
(-0.0212994 0.127017 0)
(-0.0401847 0.161538 0)
(-0.0534005 0.173964 0)
(-0.0602335 0.174239 0)
(-0.0616823 0.168589 0)
(-0.058849 0.160633 0)
(-0.0526744 0.152371 0)
(-0.0438615 0.144832 0)
(-0.0328985 0.138477 0)
(-0.0201253 0.133405 0)
(-0.00580743 0.129453 0)
(0.00981495 0.126229 0)
(0.0264399 0.123123 0)
(0.043644 0.119303 0)
(0.0608501 0.113735 0)
(0.0772744 0.105233 0)
(0.0919206 0.0925293 0)
(0.103599 0.0743557 0)
(0.110983 0.0495023 0)
(0.112671 0.0168079 0)
(0.107269 -0.0249531 0)
(0.0934796 -0.0772743 0)
(0.0701277 -0.14219 0)
(0.0365226 -0.222172 0)
(-0.00641884 -0.319168 0)
(-0.0532379 -0.428719 0)
(-0.0866972 -0.52354 0)
(-0.0847296 -0.522141 0)
(-0.0332905 -0.283091 0)
(-0.0102587 0.0731691 0)
(-0.0329181 0.148487 0)
(-0.0543278 0.17787 0)
(-0.065132 0.182772 0)
(-0.0665211 0.176223 0)
(-0.0610737 0.165195 0)
(-0.0508284 0.153185 0)
(-0.0372431 0.141865 0)
(-0.0212893 0.131956 0)
(-0.00357862 0.123688 0)
(0.0155114 0.117016 0)
(0.035729 0.111713 0)
(0.0568687 0.107401 0)
(0.07869 0.103538 0)
(0.100846 0.0994366 0)
(0.122833 0.0942539 0)
(0.143941 0.0870235 0)
(0.163232 0.076697 0)
(0.179547 0.0621975 0)
(0.191534 0.0424541 0)
(0.197673 0.016391 0)
(0.196345 -0.0171922 0)
(0.185857 -0.059753 0)
(0.164392 -0.113365 0)
(0.13009 -0.18115 0)
(0.0815084 -0.26768 0)
(0.0197469 -0.376009 0)
(-0.0403649 -0.491831 0)
(-0.0751612 -0.54127 0)
(-0.0390201 -0.342386 0)
(-0.0193857 0.100186 0)
(-0.0514174 0.175241 0)
(-0.070171 0.192564 0)
(-0.0712653 0.1854 0)
(-0.0602222 0.169784 0)
(-0.0419742 0.152638 0)
(-0.0196507 0.136655 0)
(0.00485282 0.122765 0)
(0.0304428 0.111149 0)
(0.0565395 0.101681 0)
(0.0828642 0.0941049 0)
(0.109295 0.0880878 0)
(0.135766 0.0832362 0)
(0.162184 0.0790742 0)
(0.188355 0.075042 0)
(0.213932 0.0704836 0)
(0.238357 0.0646569 0)
(0.260835 0.056754 0)
(0.280318 0.0459282 0)
(0.295519 0.0313133 0)
(0.304864 0.012024 0)
(0.306588 -0.0129398 0)
(0.298701 -0.0447855 0)
(0.278877 -0.0853362 0)
(0.244362 -0.137552 0)
(0.192024 -0.207052 0)
(0.11907 -0.302768 0)
(0.0340698 -0.42676 0)
(-0.0473554 -0.526626 0)
(-0.0381741 -0.401022 0)
(-0.0346209 0.144085 0)
(-0.0736421 0.199981 0)
(-0.0697901 0.194386 0)
(-0.0444616 0.170813 0)
(-0.00903733 0.145725 0)
(0.029911 0.123834 0)
(0.0691192 0.105873 0)
(0.107122 0.0914777 0)
(0.143354 0.0800718 0)
(0.177732 0.0711052 0)
(0.210401 0.0640987 0)
(0.241593 0.0586264 0)
(0.271536 0.0542899 0)
(0.300388 0.050687 0)
(0.328185 0.0473922 0)
(0.354786 0.0439403 0)
(0.379834 0.0398244 0)
(0.402718 0.034501 0)
(0.422555 0.0274008 0)
(0.438196 0.0179302 0)
(0.448125 0.00544234 0)
(0.45061 -0.010675 0)
(0.443459 -0.0312232 0)
(0.424052 -0.0575532 0)
(0.389031 -0.0919252 0)
(0.334504 -0.139352 0)
(0.254225 -0.21089 0)
(0.150362 -0.325576 0)
(0.0138044 -0.466104 0)
(-0.017561 -0.441446 0)
(-0.0375229 0.236039 0)
(-0.0475361 0.203816 0)
(0.0278736 0.153288 0)
(0.0998246 0.117396 0)
(0.166866 0.0906952 0)
(0.226943 0.0710522 0)
(0.279743 0.0568531 0)
(0.326013 0.0465407 0)
(0.366785 0.0389503 0)
(0.403067 0.0333071 0)
(0.435743 0.0290873 0)
(0.46555 0.0259086 0)
(0.493073 0.0234664 0)
(0.518737 0.0214954 0)
(0.542784 0.0197448 0)
(0.565259 0.0179619 0)
(0.585981 0.015886 0)
(0.604524 0.0132486 0)
(0.620189 0.00977989 0)
(0.631985 0.00521747 0)
(0.638671 -0.000700695 0)
(0.638826 -0.00825886 0)
(0.630328 -0.0179207 0)
(0.610792 -0.030297 0)
(0.57665 -0.0465253 0)
(0.5242 -0.0698354 0)
(0.443692 -0.108294 0)
(0.333884 -0.188817 0)
(0.143278 -0.33624 0)
(0.0605425 -0.412956 0)
(0.231289 0.158589 0)
(0.291458 0.117122 0)
(0.441 0.075937 0)
(0.539845 0.0506019 0)
(0.606826 0.0342594 0)
(0.656227 0.0234889 0)
(0.69419 0.016487 0)
(0.72407 0.0119519 0)
(0.748208 0.00898026 0)
(0.768263 0.00700411 0)
(0.785378 0.00567409 0)
(0.800343 0.00476699 0)
(0.813709 0.00413134 0)
(0.825838 0.0036562 0)
(0.836932 0.00325266 0)
(0.847037 0.00284261 0)
(0.856048 0.00235304 0)
(0.863703 0.00171379 0)
(0.869587 0.00086154 0)
(0.873145 -0.000258409 0)
(0.873641 -0.0016459 0)
(0.870177 -0.00337633 0)
(0.861603 -0.00562272 0)
(0.846837 -0.00848971 0)
(0.823409 -0.0121802 0)
(0.789597 -0.0176928 0)
(0.733805 -0.0271766 0)
(0.656388 -0.0491574 0)
(0.454288 -0.110138 0)
(0.313208 -0.177521 0)
)
;

boundaryField
{
    movingWall
    {
        type            fixedValue;
        value           uniform (1 0 0);
    }
    fixedWalls
    {
        type            noSlip;
    }
    frontAndBack
    {
        type            empty;
    }
}


// ************************************************************************* //
