/*--------------------------------*- C++ -*----------------------------------*\
  =========                 |
  \\      /  F ield         | OpenFOAM: The Open Source CFD Toolbox
   \\    /   O peration     | Website:  https://openfoam.org
    \\  /    A nd           | Version:  7
     \\/     M anipulation  |
\*---------------------------------------------------------------------------*/
FoamFile
{
    version     2.0;
    format      ascii;
    class       volScalarField;
    location    "2.4";
    object      p;
}
// * * * * * * * * * * * * * * * * * * * * * * * * * * * * * * * * * * * * * //

dimensions      [0 2 -2 0 0 0 0];

internalField   nonuniform List<scalar> 
900
(
-1.8167e-08
-0.000120757
-0.000233977
-0.000312386
-0.000330461
-0.00027784
-0.000153421
4.01733e-05
0.00029925
0.000619937
0.000998265
0.0014299
0.00190981
0.00243187
0.00298864
0.00357115
0.0041688
0.00476937
0.00535912
0.00592305
0.00644533
0.0069098
0.00730085
0.00760444
0.00780968
0.00791104
0.00791182
0.00782963
0.00770125
0.00756401
0.000119454
-2.53073e-06
-8.12722e-05
-0.000123746
-0.00011767
-5.37022e-05
7.1017e-05
0.000256378
0.00050095
0.000802467
0.00115796
0.00156368
0.00201494
0.00250591
0.0030294
0.00357679
0.00413787
0.00470103
0.00525327
0.00578056
0.0062683
0.006702
0.00706817
0.0073555
0.00755621
0.00766774
0.00769495
0.00765374
0.00756544
0.00742817
0.000235755
7.33608e-05
-7.41079e-06
-4.25513e-05
-3.00869e-05
3.69151e-05
0.000160607
0.000341107
0.000577681
0.000868821
0.00121221
0.00160465
0.00204189
0.00251845
0.00302748
0.00356061
0.004108
0.00465814
0.00519826
0.00571452
0.00619255
0.00661811
0.00697808
0.00726162
0.00746147
0.00757517
0.00760704
0.00757101
0.00747803
0.00729757
0.000319131
0.000110152
1.64339e-05
-2.14244e-05
-9.33601e-06
5.71097e-05
0.000178721
0.000355193
0.00058601
0.000870151
0.00120587
0.00159051
0.00202034
0.00249033
0.00299398
0.00352322
0.00406832
0.00461784
0.00515892
0.00567745
0.00615867
0.00658789
0.00695147
0.00723806
0.00743987
0.00755365
0.00758265
0.00753936
0.00742832
0.00719739
0.000339805
9.03027e-05
-1.80202e-05
-6.22333e-05
-5.36579e-05
1.02762e-05
0.000129168
0.000302225
0.000529022
0.000808928
0.00114072
0.0015223
0.00195047
0.0024207
0.00292688
0.00346118
0.00401396
0.00457368
0.00512706
0.00565938
0.00615497
0.00659806
0.00697381
0.00726971
0.00747684
0.00759096
0.00761445
0.00755943
0.00742748
0.00715182
0.000281356
-1.98874e-06
-0.000124737
-0.000176946
-0.000173503
-0.00011303
3.15719e-06
0.000173872
0.000398764
0.000677561
0.00100955
0.00139321
0.00182594
0.00230371
0.00282084
0.00336974
0.00394081
0.00452219
0.00509997
0.00565839
0.00618036
0.00664838
0.00704574
0.0073581
0.00757495
0.00769091
0.00770794
0.0076389
0.00748495
0.00716981
0.000135795
-0.000176604
-0.000313121
-0.000373824
-0.000376048
-0.000319153
-0.000205111
-3.53743e-05
0.000189835
0.000470632
0.000806848
0.00119761
0.00164094
0.00213342
0.00266986
0.00324294
0.00384303
0.00445789
0.0050727
0.00567028
0.00623158
0.00673669
0.00716625
0.00750333
0.00773537
0.00785568
0.0078662
0.00778164
0.00760445
0.00725172
-0.000101485
-0.00044078
-0.000590646
-0.000659867
-0.000667716
-0.000614045
-0.000501316
-0.000331139
-0.000103534
0.000182073
0.000526144
0.00092853
0.00138803
0.00190196
0.0024657
0.00307235
0.00371227
0.0043728
0.00503803
0.00568897
0.00630403
0.0068601
0.00733423
0.00770602
0.00796007
0.00808814
0.00809251
0.0079907
0.00778779
0.00739524
-0.00043446
-0.00080099
-0.000964407
-0.0010422
-0.0010555
-0.0010046
-0.000892379
-0.000720553
-0.000488865
-0.000196191
0.00015868
0.000576477
0.00105694
0.00159831
0.00219679
0.00284605
0.00353663
0.00425552
0.00498559
0.00570573
0.00639119
0.0070147
0.00754855
0.00796756
0.00825243
0.00839279
0.00839142
0.00826973
0.00803666
0.00759791
-0.000867824
-0.00126391
-0.00144175
-0.00152842
-0.00154717
-0.00149874
-0.00138652
-0.00121231
-0.000975519
-0.000674371
-0.00030676
0.000129114
0.00063417
0.00120786
0.00184753
0.00254776
0.00329957
0.00408987
0.00490037
0.00570758
0.00648294
0.00719395
0.00780657
0.00828908
0.00861658
0.00877544
0.00876886
0.00862332
0.00835314
0.00785752
-0.00140764
-0.00183711
-0.00203085
-0.00212704
-0.00215149
-0.0021056
-0.00199336
-0.00181672
-0.00157474
-0.00126487
-0.000883944
-0.000428868
0.000102754
0.000711958
0.0013977
0.00215596
0.00297877
0.00385351
0.00476095
0.00567525
0.0065635
0.0073867
0.00810255
0.00867023
0.0090567
0.00924305
0.00923229
0.00905734
0.00873989
0.00817163
-0.00206165
-0.00252951
-0.00274112
-0.00284781
-0.00287854
-0.00283566
-0.002724
-0.00254576
-0.00229965
-0.00198225
-0.00158919
-0.0011158
-0.000557891
8.76327e-05
0.000821907
0.00164304
0.00254477
0.00351607
0.00453727
0.0055806
0.00660852
0.00757431
0.00842501
0.00910731
0.00957602
0.00980358
0.00979118
0.00957946
0.00920032
0.00853643
-0.00283941
-0.00335178
-0.00358368
-0.00370209
-0.00373994
-0.00370094
-0.00359107
-0.00341301
-0.00316512
-0.00284309
-0.00244116
-0.0019529
-0.00137191
-0.000692567
8.91643e-05
0.000974387
0.0019595
0.0030371
0.00418771
0.00538285
0.00658075
0.00772607
0.00875254
0.00958983
0.0101748
0.0104654
0.0104575
0.0102001
0.00973896
0.0089453
-0.00375248
-0.00431669
-0.00457167
-0.00470311
-0.00474901
-0.00471498
-0.00460866
-0.00443346
-0.00418749
-0.00386558
-0.00346048
-0.0029638
-0.00236666
-0.00166037
-0.000837282
0.000108012
0.001177
0.00236393
0.00365544
0.00502356
0.0064237
0.00779199
0.00904648
0.0100944
0.0108462
0.0112357
0.0112461
0.010934
0.0103626
0.00938716
-0.00481472
-0.00543963
-0.00572074
-0.00586637
-0.00592098
-0.00589293
-0.00579216
-0.00562317
-0.0053841
-0.00506891
-0.00466894
-0.00417375
-0.0035718
-0.00285101
-0.00199944
-0.00100632
0.000136175
0.0014284
0.00286412
0.00442008
0.00605262
0.0076916
0.00923865
0.0105729
0.0115672
0.0121159
0.0121749
0.0118028
0.0110831
0.00984556
-0.00604276
-0.00673932
-0.00704974
-0.00721008
-0.00727324
-0.00725149
-0.00715798
-0.00699886
-0.00677253
-0.00647234
-0.00608834
-0.00560818
-0.00501773
-0.0043014
-0.00344262
-0.00242444
-0.00123136
0.000146743
0.00171423
0.00345817
0.00534256
0.00729743
0.00921137
0.0109321
0.0122816
0.0130908
0.0132618
0.0128388
0.0119231
0.0102997
-0.00745695
-0.00823906
-0.00858173
-0.00875587
-0.00882563
-0.00880891
-0.00872325
-0.00857714
-0.00836966
-0.00809382
-0.00773869
-0.00729044
-0.00673277
-0.00604703
-0.0052122
-0.00420512
-0.00300153
-0.00157876
8.17419e-05
0.00198581
0.00411526
0.00641317
0.0087671
0.0109978
0.0128648
0.0141031
0.0145132
0.0140875
0.0129254
0.0107298
-0.00908291
-0.0099686
-0.0103456
-0.0105298
-0.0106009
-0.0105848
-0.0105052
-0.0103736
-0.0101902
-0.00994806
-0.00963575
-0.00923863
-0.00873916
-0.00811676
-0.00734732
-0.00640264
-0.00524989
-0.00385255
-0.00217581
-0.000186059
0.00213064
0.00475167
0.00759
0.0104616
0.0130647
0.0150007
0.0158929
0.0156013
0.0141665
0.0111305
-0.0109542
-0.0119672
-0.0123783
-0.0125636
-0.012625
-0.0126
-0.0125203
-0.0124014
-0.0122449
-0.0120441
-0.0117877
-0.0114612
-0.0110472
-0.0105253
-0.00987071
-0.00905314
-0.00803486
-0.00676902
-0.00520001
-0.00326534
-0.000902709
0.00193027
0.00521715
0.00882255
0.0124183
0.0154484
0.0172538
0.0174133
0.0157709
0.0115388
-0.0131168
-0.014289
-0.0147286
-0.0148966
-0.0149275
-0.0148756
-0.0147828
-0.0146692
-0.0145376
-0.0143818
-0.0141908
-0.0139513
-0.0136479
-0.0132629
-0.012775
-0.0121569
-0.0113725
-0.0103722
-0.00908782
-0.00742643
-0.00527035
-0.00247649
0.00107044
0.00537873
0.0101915
0.0148265
0.0182355
0.0194805
0.0179232
0.0120937
-0.0156379
-0.0170109
-0.0174622
-0.0175777
-0.0175414
-0.0174312
-0.0173019
-0.0171776
-0.0170616
-0.016947
-0.0168236
-0.0166796
-0.0165036
-0.0162837
-0.0160068
-0.0156555
-0.0152049
-0.0146156
-0.0138221
-0.0127126
-0.0111103
-0.00876668
-0.00536006
-0.000606445
0.00548335
0.012243
0.018207
0.0216297
0.0208838
0.0131725
-0.0186216
-0.0202466
-0.0206692
-0.0206666
-0.0205001
-0.0202806
-0.020076
-0.0199128
-0.0197919
-0.0197042
-0.0196387
-0.0195857
-0.0195386
-0.019494
-0.0194514
-0.0194108
-0.0193689
-0.0193109
-0.0191948
-0.0189124
-0.0182348
-0.0168384
-0.014137
-0.00944366
-0.00230626
0.00690057
0.01647
0.0236402
0.025055
0.0156745
-0.022241
-0.0241695
-0.0244724
-0.0242322
-0.0238308
-0.0234208
-0.023081
-0.022834
-0.0226732
-0.0225837
-0.0225513
-0.0225673
-0.0226298
-0.022745
-0.0229276
-0.0232
-0.0235886
-0.0241142
-0.0247723
-0.0254942
-0.0260623
-0.0259666
-0.0244776
-0.0204278
-0.0127115
-0.00108298
0.0129271
0.025645
0.0312054
0.0214999
-0.0268072
-0.0290495
-0.0290359
-0.0283424
-0.0275349
-0.0268107
-0.0262466
-0.0258494
-0.0255963
-0.0254603
-0.0254205
-0.0254663
-0.0255986
-0.0258323
-0.0261966
-0.0267363
-0.0275081
-0.0285713
-0.029963
-0.0316483
-0.0334179
-0.0347099
-0.0346015
-0.0314891
-0.0235926
-0.00981178
0.00901224
0.0288688
0.041003
0.0341104
-0.0329187
-0.0353081
-0.0345592
-0.0330315
-0.0315464
-0.0303249
-0.029411
-0.0287732
-0.0283585
-0.0281191
-0.0280217
-0.0280494
-0.0282028
-0.0285013
-0.0289844
-0.029714
-0.0307686
-0.0322338
-0.0341725
-0.0365635
-0.0391976
-0.0415116
-0.0422414
-0.0396534
-0.0313919
-0.0154914
0.00822871
0.0363959
0.0577996
0.0587372
-0.041819
-0.0435869
-0.0412148
-0.0382082
-0.0356359
-0.0336614
-0.032234
-0.0312474
-0.0305979
-0.0302025
-0.0300077
-0.029984
-0.0301259
-0.0304524
-0.0310031
-0.0318502
-0.0330757
-0.0347677
-0.0369807
-0.0396646
-0.0425458
-0.0449562
-0.045553
-0.042315
-0.0325804
-0.013788
0.0153657
0.0531434
0.0868447
0.101805
-0.0564615
-0.0548319
-0.048984
-0.0434688
-0.0392346
-0.0361883
-0.0340717
-0.0326486
-0.0317336
-0.0311792
-0.0309016
-0.0308484
-0.0310005
-0.0313683
-0.0319892
-0.0329243
-0.0342452
-0.0360139
-0.0382381
-0.0407921
-0.0432901
-0.044917
-0.0441225
-0.0386685
-0.0256162
-0.00193557
0.0343704
0.0838993
0.133462
0.17145
-0.0844083
-0.0699598
-0.0575503
-0.0479836
-0.0413403
-0.0369263
-0.0340406
-0.0322228
-0.0311328
-0.0305398
-0.0303001
-0.03033
-0.0305917
-0.0310836
-0.0318324
-0.0328827
-0.0342797
-0.0360378
-0.0380871
-0.0401865
-0.0418046
-0.0419606
-0.0387925
-0.0298589
-0.011816
0.0190485
0.065747
0.129973
0.201242
0.283598
-0.136786
-0.0850425
-0.0644587
-0.0491136
-0.0395448
-0.0339664
-0.0307774
-0.0290275
-0.0281674
-0.0278708
-0.0279445
-0.0282808
-0.0288304
-0.0295857
-0.030566
-0.031802
-0.0333127
-0.0350674
-0.0369236
-0.0385234
-0.0391507
-0.0375913
-0.0321824
-0.0198604
0.00319706
0.0419021
0.101309
0.187346
0.29624
0.467585
-0.30864
-0.0943285
-0.0465155
-0.0299501
-0.0219128
-0.0186746
-0.0180815
-0.0186413
-0.0196474
-0.0208289
-0.0220797
-0.0233607
-0.0246738
-0.0260483
-0.0275273
-0.0291526
-0.0309418
-0.0328503
-0.0347139
-0.0361619
-0.0365068
-0.0345787
-0.0283947
-0.0149711
0.00961355
0.0513904
0.118788
0.230862
0.406414
0.751498
)
;

boundaryField
{
    movingWall
    {
        type            zeroGradient;
    }
    fixedWalls
    {
        type            zeroGradient;
    }
    frontAndBack
    {
        type            empty;
    }
}


// ************************************************************************* //
