/*--------------------------------*- C++ -*----------------------------------*\
  =========                 |
  \\      /  F ield         | OpenFOAM: The Open Source CFD Toolbox
   \\    /   O peration     | Website:  https://openfoam.org
    \\  /    A nd           | Version:  7
     \\/     M anipulation  |
\*---------------------------------------------------------------------------*/
FoamFile
{
    version     2.0;
    format      ascii;
    class       volVectorField;
    location    "2.4";
    object      U;
}
// * * * * * * * * * * * * * * * * * * * * * * * * * * * * * * * * * * * * * //

dimensions      [0 1 -1 0 0 0 0];

internalField   nonuniform List<vector> 
900
(
(5.5461e-05 -5.48234e-05 0)
(-4.03587e-06 2.4995e-05 0)
(-0.00034153 0.000109929 0)
(-0.000859597 0.000164026 0)
(-0.00148997 0.000190857 0)
(-0.00217238 0.000199003 0)
(-0.00286292 0.000196081 0)
(-0.00353356 0.000187131 0)
(-0.0041668 0.000174796 0)
(-0.00475085 0.000160141 0)
(-0.00527641 0.000143376 0)
(-0.00573498 0.000124339 0)
(-0.00611806 0.000102774 0)
(-0.006417 7.84632e-05 0)
(-0.00662308 5.1299e-05 0)
(-0.00672786 2.13191e-05 0)
(-0.00672361 -1.12597e-05 0)
(-0.00660381 -4.60564e-05 0)
(-0.00636379 -8.24326e-05 0)
(-0.00600154 -0.000119484 0)
(-0.00551858 -0.00015597 0)
(-0.00492121 -0.000190194 0)
(-0.00422211 -0.000219815 0)
(-0.00344254 -0.000241545 0)
(-0.00261519 -0.000250756 0)
(-0.00178765 -0.000241137 0)
(-0.00102483 -0.000205083 0)
(-0.000405358 -0.000135742 0)
(-8.4019e-06 -3.28252e-05 0)
(6.2533e-05 6.07621e-05 0)
(-2.35977e-05 2.98458e-06 0)
(-0.000420205 0.000418426 0)
(-0.00138036 0.000811456 0)
(-0.00269998 0.00108041 0)
(-0.00424937 0.00122837 0)
(-0.00591384 0.00128248 0)
(-0.00759999 0.00127192 0)
(-0.00924124 0.0012192 0)
(-0.0107917 0.00113847 0)
(-0.0122182 0.00103727 0)
(-0.0134949 0.000918879 0)
(-0.0145992 0.000784337 0)
(-0.0155102 0.000633763 0)
(-0.0162076 0.000467175 0)
(-0.0166723 0.000284956 0)
(-0.0168864 8.81301e-05 0)
(-0.0168343 -0.000121465 0)
(-0.0165036 -0.00034084 0)
(-0.0158866 -0.000565792 0)
(-0.0149822 -0.000790565 0)
(-0.0137974 -0.00100744 0)
(-0.0123507 -0.00120612 0)
(-0.010675 -0.00137294 0)
(-0.00882217 -0.00148985 0)
(-0.00686777 -0.00153372 0)
(-0.00491594 -0.00147677 0)
(-0.00309982 -0.00129059 0)
(-0.00156793 -0.000956352 0)
(-0.000470395 -0.000486156 0)
(-2.44951e-05 -6.26755e-06 0)
(-0.000112249 0.000343013 0)
(-0.000839794 0.00138505 0)
(-0.0023479 0.0022878 0)
(-0.00431446 0.00291493 0)
(-0.00656722 0.00327026 0)
(-0.0089619 0.00340456 0)
(-0.0113771 0.00337729 0)
(-0.0137229 0.00323785 0)
(-0.0159347 0.00301995 0)
(-0.0179646 0.00274345 0)
(-0.0197746 0.00241853 0)
(-0.0213321 0.0020498 0)
(-0.0226077 0.00163931 0)
(-0.0235739 0.00118853 0)
(-0.0242048 0.000699564 0)
(-0.0244772 0.000175902 0)
(-0.0243712 -0.000376993 0)
(-0.0238717 -0.000951019 0)
(-0.0229703 -0.00153504 0)
(-0.0216673 -0.00211403 0)
(-0.0199749 -0.0026681 0)
(-0.0179203 -0.00317107 0)
(-0.0155505 -0.0035888 0)
(-0.0129374 -0.00387758 0)
(-0.0101831 -0.00398375 0)
(-0.00742486 -0.00384674 0)
(-0.00483386 -0.00340963 0)
(-0.00259645 -0.00264058 0)
(-0.000911173 -0.00156978 0)
(-0.000116491 -0.000380042 0)
(-0.000175955 0.000887276 0)
(-0.0011692 0.00276446 0)
(-0.00312815 0.00428636 0)
(-0.00561203 0.00532861 0)
(-0.00840964 0.00591606 0)
(-0.0113554 0.00613223 0)
(-0.0143108 0.00607165 0)
(-0.0171721 0.00581387 0)
(-0.0198637 0.00541481 0)
(-0.0223288 0.00490881 0)
(-0.0245218 0.00431464 0)
(-0.0264036 0.00364184 0)
(-0.0279392 0.00289545 0)
(-0.0290962 0.00207927 0)
(-0.0298444 0.00119795 0)
(-0.0301572 0.000258373 0)
(-0.0300114 -0.000729299 0)
(-0.02939 -0.00175067 0)
(-0.0282835 -0.00278595 0)
(-0.0266929 -0.00380872 0)
(-0.024633 -0.00478412 0)
(-0.0221366 -0.00566664 0)
(-0.0192596 -0.00639765 0)
(-0.0160869 -0.00690333 0)
(-0.0127377 -0.00709501 0)
(-0.00937112 -0.00687515 0)
(-0.00618442 -0.00615372 0)
(-0.00339258 -0.00487858 0)
(-0.00123762 -0.00308114 0)
(-0.0001765 -0.000958506 0)
(-0.000217603 0.00158562 0)
(-0.0014111 0.00447146 0)
(-0.0037266 0.0067007 0)
(-0.00662079 0.00819617 0)
(-0.00984624 0.00902542 0)
(-0.0132187 0.00931609 0)
(-0.0165867 0.00920344 0)
(-0.0198381 0.00879997 0)
(-0.0228913 0.0081854 0)
(-0.0256842 0.00740958 0)
(-0.0281669 0.00650072 0)
(-0.0302966 0.00547388 0)
(-0.0320345 0.00433763 0)
(-0.0333447 0.00309852 0)
(-0.034194 0.00176411 0)
(-0.0345521 0.000344998 0)
(-0.0343928 -0.0011436 0)
(-0.033696 -0.00268025 0)
(-0.0324497 -0.00423562 0)
(-0.0306532 -0.00577042 0)
(-0.0283215 -0.00723286 0)
(-0.0254895 -0.00855553 0)
(-0.0222188 -0.00965209 0)
(-0.0186032 -0.010415 0)
(-0.0147758 -0.0107168 0)
(-0.0109145 -0.0104187 0)
(-0.00724035 -0.00939191 0)
(-0.00399707 -0.00755484 0)
(-0.00146834 -0.00492325 0)
(-0.000211441 -0.00168308 0)
(-0.000244766 0.00239482 0)
(-0.00158997 0.00643509 0)
(-0.00419011 0.0094517 0)
(-0.00741812 0.0114352 0)
(-0.0109937 0.0125138 0)
(-0.0147147 0.0128707 0)
(-0.0184187 0.0126887 0)
(-0.0219873 0.0121166 0)
(-0.0253352 0.0112595 0)
(-0.0283978 0.0101835 0)
(-0.031123 0.00892667 0)
(-0.0334657 0.00750961 0)
(-0.0353846 0.00594436 0)
(-0.0368411 0.00424011 0)
(-0.0377987 0.00240711 0)
(-0.0382231 0.000459391 0)
(-0.038084 -0.00158291 0)
(-0.0373561 -0.00369129 0)
(-0.0360225 -0.00582642 0)
(-0.0340783 -0.00793514 0)
(-0.031535 -0.00994687 0)
(-0.0284272 -0.0117695 0)
(-0.0248193 -0.0132853 0)
(-0.0208132 -0.0143485 0)
(-0.0165558 -0.0147876 0)
(-0.0122456 -0.0144166 0)
(-0.00813106 -0.0130616 0)
(-0.00448829 -0.0106029 0)
(-0.00164204 -0.00703009 0)
(-0.000232206 -0.00251005 0)
(-0.00026456 0.0032866 0)
(-0.00173353 0.00860403 0)
(-0.00457535 0.0124811 0)
(-0.00809326 0.0149869 0)
(-0.0119771 0.0163236 0)
(-0.0160072 0.0167408 0)
(-0.0200107 0.0164754 0)
(-0.0238638 0.0157165 0)
(-0.0274789 0.0145966 0)
(-0.0307903 0.0131985 0)
(-0.0337449 0.0115701 0)
(-0.0362963 0.00973749 0)
(-0.0384015 0.00771554 0)
(-0.0400192 0.00551541 0)
(-0.0411091 0.0031492 0)
(-0.0416323 0.000633528 0)
(-0.041552 -0.00200738 0)
(-0.0408359 -0.0047386 0)
(-0.039459 -0.00751081 0)
(-0.0374084 -0.0102562 0)
(-0.0346888 -0.0128835 0)
(-0.0313312 -0.0152724 0)
(-0.0274008 -0.0172689 0)
(-0.0230077 -0.0186825 0)
(-0.018315 -0.0192904 0)
(-0.0135467 -0.018852 0)
(-0.00898546 -0.0171407 0)
(-0.00494578 -0.0139927 0)
(-0.00179554 -0.0093673 0)
(-0.000247523 -0.00341681 0)
(-0.000282181 0.00424819 0)
(-0.001865 0.0109532 0)
(-0.00493284 0.0157604 0)
(-0.00872605 0.018824 0)
(-0.0129061 0.0204302 0)
(-0.0172361 0.0209047 0)
(-0.0215326 0.0205453 0)
(-0.0256669 0.0195857 0)
(-0.0295496 0.0181876 0)
(-0.0331149 0.0164516 0)
(-0.0363094 0.0144351 0)
(-0.0390863 0.0121691 0)
(-0.0414012 0.00967064 0)
(-0.0432101 0.00695149 0)
(-0.0444687 0.00402424 0)
(-0.0451318 0.000906503 0)
(-0.0451546 -0.00237499 0)
(-0.0444947 -0.00578018 0)
(-0.0431153 -0.00925045 0)
(-0.0409912 -0.0127028 0)
(-0.0381161 -0.0160231 0)
(-0.0345132 -0.0190585 0)
(-0.0302464 -0.0216118 0)
(-0.0254338 -0.0234391 0)
(-0.0202585 -0.0242559 0)
(-0.014977 -0.0237568 0)
(-0.00991561 -0.0216546 0)
(-0.00543675 -0.0177374 0)
(-0.00195717 -0.0119362 0)
(-0.000262919 -0.00439996 0)
(-0.000300892 0.00527837 0)
(-0.00200117 0.0134795 0)
(-0.00530132 0.0192876 0)
(-0.00937866 0.0229464 0)
(-0.0138661 0.0248363 0)
(-0.0185088 0.0253675 0)
(-0.0231128 0.024906 0)
(-0.0275445 0.0237344 0)
(-0.0317136 0.0220461 0)
(-0.0355544 0.0199603 0)
(-0.0390144 0.0175441 0)
(-0.042047 0.0148324 0)
(-0.044607 0.0118431 0)
(-0.046648 0.00858721 0)
(-0.048121 0.00507561 0)
(-0.0489737 0.00132461 0)
(-0.0491513 -0.00263905 0)
(-0.0485978 -0.00677247 0)
(-0.0472607 -0.0110092 0)
(-0.0450972 -0.0152512 0)
(-0.0420839 -0.019359 0)
(-0.0382306 -0.023142 0)
(-0.0335961 -0.0263508 0)
(-0.0283056 -0.0286754 0)
(-0.022566 -0.0297554 0)
(-0.0166758 -0.0292071 0)
(-0.0110176 -0.0266728 0)
(-0.00601591 -0.0218902 0)
(-0.00214736 -0.014768 0)
(-0.000281308 -0.00546933 0)
(-0.000322597 0.00638346 0)
(-0.00215327 0.0161961 0)
(-0.00570821 0.0230798 0)
(-0.0100958 0.0273742 0)
(-0.0149182 0.0295632 0)
(-0.0199018 0.0301515 0)
(-0.0248414 0.0295808 0)
(-0.0295991 0.0281873 0)
(-0.0340838 0.0261989 0)
(-0.0382313 0.0237544 0)
(-0.0419909 0.0209304 0)
(-0.0453173 0.017765 0)
(-0.0481654 0.0142756 0)
(-0.050487 0.0104702 0)
(-0.0522286 0.00635539 0)
(-0.05333 0.00194289 0)
(-0.0537246 -0.00274414 0)
(-0.0533398 -0.00766358 0)
(-0.0521021 -0.012744 0)
(-0.0499445 -0.0178735 0)
(-0.0468185 -0.0228854 0)
(-0.0427122 -0.0275449 0)
(-0.0376723 -0.0315388 0)
(-0.0318281 -0.0344744 0)
(-0.0254136 -0.0358953 0)
(-0.0187797 -0.0353197 0)
(-0.0123839 -0.0323065 0)
(-0.006733 -0.0265404 0)
(-0.00238231 -0.017919 0)
(-0.00030403 -0.00664368 0)
(-0.000348414 0.00757464 0)
(-0.00232887 0.019127 0)
(-0.00617265 0.0271679 0)
(-0.0109091 0.032141 0)
(-0.0161055 0.0346453 0)
(-0.0214679 0.0352907 0)
(-0.0267793 0.0346027 0)
(-0.0318977 0.0329772 0)
(-0.0367324 0.0306796 0)
(-0.0412219 0.0278693 0)
(-0.0453188 0.0246327 0)
(-0.0489808 0.0210102 0)
(-0.0521645 0.017017 0)
(-0.0548211 0.0126555 0)
(-0.0568936 0.0079248 0)
(-0.058314 0.00282777 0)
(-0.0590026 -0.002621 0)
(-0.0588672 -0.00838578 0)
(-0.0578076 -0.014395 0)
(-0.0557244 -0.0205259 0)
(-0.0525334 -0.0265842 0)
(-0.0481884 -0.0322846 0)
(-0.0427119 -0.0372357 0)
(-0.03623 -0.0409397 0)
(-0.0290037 -0.0428153 0)
(-0.0214491 -0.0422545 0)
(-0.0141226 -0.0387121 0)
(-0.00764468 -0.0318165 0)
(-0.00267889 -0.0214711 0)
(-0.000331755 -0.00794904 0)
(-0.000379116 0.00886636 0)
(-0.00253361 0.0223043 0)
(-0.00670915 0.0315928 0)
(-0.0118421 0.0372905 0)
(-0.0174595 0.0401252 0)
(-0.0232445 0.0408251 0)
(-0.0289677 0.0400096 0)
(-0.0344836 0.0381404 0)
(-0.0397034 0.035524 0)
(-0.0445702 0.0323424 0)
(-0.0490421 0.0286917 0)
(-0.053082 0.0246139 0)
(-0.0566505 0.0201201 0)
(-0.0597009 0.0152047 0)
(-0.0621745 0.00985512 0)
(-0.0639969 0.00406013 0)
(-0.0650754 -0.00218106 0)
(-0.0652957 -0.00884698 0)
(-0.0645254 -0.0158739 0)
(-0.0626231 -0.0231347 0)
(-0.0594544 -0.0304102 0)
(-0.0549208 -0.037359 0)
(-0.0490013 -0.0434958 0)
(-0.0418017 -0.0481881 0)
(-0.0336049 -0.0506899 0)
(-0.0249035 -0.0502228 0)
(-0.0163855 -0.0461044 0)
(-0.0088312 -0.0378988 0)
(-0.00306083 -0.0255387 0)
(-0.000365295 -0.00942009 0)
(-0.000415451 0.0102758 0)
(-0.00277274 0.0257668 0)
(-0.00733089 0.0364035 0)
(-0.0129155 0.0428734 0)
(-0.0190067 0.046051 0)
(-0.0252613 0.0467983 0)
(-0.0314372 0.0458404 0)
(-0.0373862 0.0437126 0)
(-0.0430236 0.0407667 0)
(-0.0482995 0.0372092 0)
(-0.0531803 0.0331463 0)
(-0.0576373 0.0286214 0)
(-0.0616388 0.0236397 0)
(-0.0651437 0.0181848 0)
(-0.0680953 0.0122281 0)
(-0.0704161 0.00573756 0)
(-0.0720026 -0.00131165 0)
(-0.0727178 -0.00892164 0)
(-0.0723923 -0.0170504 0)
(-0.0708326 -0.0255784 0)
(-0.0678366 -0.0342689 0)
(-0.0632279 -0.0427243 0)
(-0.0569106 -0.0503487 0)
(-0.0489404 -0.0563395 0)
(-0.0396023 -0.0597293 0)
(-0.0294712 -0.0595018 0)
(-0.0194072 -0.05478 0)
(-0.0104209 -0.0450434 0)
(-0.00356774 -0.0302861 0)
(-0.000406662 -0.0111051 0)
(-0.000458399 0.0118229 0)
(-0.00305252 0.02956 0)
(-0.00805272 0.0416563 0)
(-0.014152 0.0489466 0)
(-0.0207743 0.0524743 0)
(-0.0275471 0.0532545 0)
(-0.0342148 0.0521324 0)
(-0.0406285 0.0497259 0)
(-0.0467099 0.0464372 0)
(-0.0524195 0.0424996 0)
(-0.0577355 0.0380306 0)
(-0.062642 0.0330743 0)
(-0.0671194 0.0276295 0)
(-0.0711374 0.021666 0)
(-0.0746478 0.0151347 0)
(-0.0775754 0.00797597 0)
(-0.0798102 0.000130602 0)
(-0.0811966 -0.00844082 0)
(-0.0815279 -0.0177367 0)
(-0.0805482 -0.0276645 0)
(-0.0779673 -0.0379881 0)
(-0.0734979 -0.0482615 0)
(-0.0669228 -0.0577683 0)
(-0.0581943 -0.0654946 0)
(-0.0475554 -0.0701754 0)
(-0.0356523 -0.0704526 0)
(-0.0235619 -0.0651539 0)
(-0.0126269 -0.0536249 0)
(-0.00426916 -0.0359594 0)
(-0.000460877 -0.0130767 0)
(-0.000509427 0.0135316 0)
(-0.00338147 0.0337373 0)
(-0.0088941 0.0474161 0)
(-0.0155795 0.0555734 0)
(-0.022795 0.0594494 0)
(-0.0301347 0.060237 0)
(-0.0373294 0.0589188 0)
(-0.0442319 0.0562059 0)
(-0.0507742 0.0525567 0)
(-0.0569306 0.0482343 0)
(-0.0626961 0.0433689 0)
(-0.0680719 0.0380058 0)
(-0.0730566 0.0321368 0)
(-0.077638 0.0257165 0)
(-0.0817842 0.0186718 0)
(-0.0854322 0.0109086 0)
(-0.0884743 0.00232224 0)
(-0.0907466 -0.0071842 0)
(-0.0920095 -0.0176714 0)
(-0.0919398 -0.0291041 0)
(-0.0901405 -0.0412795 0)
(-0.086173 -0.0537296 0)
(-0.0796338 -0.0656214 0)
(-0.0702872 -0.0756928 0)
(-0.0582491 -0.0822837 0)
(-0.0441882 -0.0835372 0)
(-0.0294328 -0.0778099 0)
(-0.0157978 -0.0642021 0)
(-0.00528565 -0.0429401 0)
(-0.000539028 -0.0154517 0)
(-0.000570835 0.0154313 0)
(-0.00377209 0.0383638 0)
(-0.00988235 0.0537588 0)
(-0.0172366 0.0628239 0)
(-0.0251121 0.0670327 0)
(-0.0330657 0.0677863 0)
(-0.0408158 0.0662257 0)
(-0.0482203 0.0631679 0)
(-0.0552258 0.0591338 0)
(-0.0618257 0.0544197 0)
(-0.0680361 0.0491702 0)
(-0.0738811 0.0434335 0)
(-0.0793843 0.0371949 0)
(-0.0845596 0.0303939 0)
(-0.0894023 0.0229316 0)
(-0.0938748 0.0146743 0)
(-0.0978892 0.00546028 0)
(-0.101289 -0.00488466 0)
(-0.103814 -0.0165128 0)
(-0.105082 -0.0294897 0)
(-0.104576 -0.0436994 0)
(-0.101666 -0.0587065 0)
(-0.0956796 -0.0735965 0)
(-0.0860711 -0.0868404 0)
(-0.0726844 -0.0962728 0)
(-0.0560953 -0.0993147 0)
(-0.0378753 -0.0935542 0)
(-0.020477 -0.0776091 0)
(-0.006817 -0.0518276 0)
(-0.000662986 -0.0184238 0)
(-0.000646293 0.0175596 0)
(-0.00424312 0.0435201 0)
(-0.011057 0.0607751 0)
(-0.0191769 0.070777 0)
(-0.0277841 0.0752815 0)
(-0.0363947 0.0759369 0)
(-0.0447174 0.0740681 0)
(-0.0526207 0.0706118 0)
(-0.0600716 0.0661586 0)
(-0.0670878 0.061041 0)
(-0.0737115 0.0554204 0)
(-0.0799955 0.0493498 0)
(-0.0859947 0.0428109 0)
(-0.0917586 0.0357304 0)
(-0.0973216 0.0279845 0)
(-0.102688 0.0193979 0)
(-0.107813 0.00974318 0)
(-0.112572 -0.00124822 0)
(-0.116713 -0.0138506 0)
(-0.119814 -0.028293 0)
(-0.121247 -0.0446247 0)
(-0.120155 -0.0625368 0)
(-0.115514 -0.0811194 0)
(-0.106313 -0.0986052 0)
(-0.0919115 -0.112224 0)
(-0.0725761 -0.118385 0)
(-0.0500116 -0.113439 0)
(-0.0274444 -0.0950533 0)
(-0.00917379 -0.0635508 0)
(-0.000872288 -0.0223142 0)
(-0.000741786 0.0199667 0)
(-0.00482312 0.0493101 0)
(-0.0124759 0.0685757 0)
(-0.0214762 0.0795218 0)
(-0.0308902 0.0842528 0)
(-0.0401921 0.084714 0)
(-0.0490869 0.0824446 0)
(-0.0574616 0.0785163 0)
(-0.0653107 0.0735955 0)
(-0.0726819 0.0680538 0)
(-0.0796484 0.0620713 0)
(-0.0862962 0.0557089 0)
(-0.0927172 0.0489487 0)
(-0.0990041 0.0417103 0)
(-0.105243 0.0338508 0)
(-0.111498 0.0251573 0)
(-0.117792 0.0153364 0)
(-0.12406 0.00401179 0)
(-0.130106 -0.00925435 0)
(-0.135518 -0.0249126 0)
(-0.139577 -0.043283 0)
(-0.141204 -0.0643269 0)
(-0.138958 -0.0872963 0)
(-0.131208 -0.110297 0)
(-0.116572 -0.129913 0)
(-0.0946715 -0.141226 0)
(-0.0670544 -0.138686 0)
(-0.0376941 -0.11817 0)
(-0.012807 -0.0794915 0)
(-0.00123564 -0.0276391 0)
(-0.000867369 0.0227227 0)
(-0.00555633 0.0558714 0)
(-0.0142237 0.0772976 0)
(-0.0242401 0.0891583 0)
(-0.0345351 0.0939985 0)
(-0.0445446 0.0941253 0)
(-0.0539809 0.0913278 0)
(-0.0627617 0.0868276 0)
(-0.070918 0.0813713 0)
(-0.0785334 0.0753704 0)
(-0.0857157 0.0690248 0)
(-0.0925864 0.0624062 0)
(-0.0992773 0.0555033 0)
(-0.105928 0.0482366 0)
(-0.112684 0.0404552 0)
(-0.119683 0.0319204 0)
(-0.127037 0.0222813 0)
(-0.134785 0.0110507 0)
(-0.142828 -0.00240351 0)
(-0.150821 -0.0188133 0)
(-0.158033 -0.0388903 0)
(-0.163212 -0.0630514 0)
(-0.164508 -0.090948 0)
(-0.159581 -0.120783 0)
(-0.146066 -0.148588 0)
(-0.122533 -0.167868 0)
(-0.0898321 -0.170393 0)
(-0.0522733 -0.14892 0)
(-0.0183336 -0.101573 0)
(-0.00187538 -0.0352009 0)
(-0.00104059 0.0259293 0)
(-0.0065126 0.0633907 0)
(-0.0164254 0.087112 0)
(-0.0276137 0.0997943 0)
(-0.0388507 0.104555 0)
(-0.0495466 0.104147 0)
(-0.059442 0.100648 0)
(-0.0685022 0.0954422 0)
(-0.0768063 0.0893565 0)
(-0.0844796 0.0828397 0)
(-0.0916666 0.0761102 0)
(-0.098524 0.0692527 0)
(-0.105221 0.0622679 0)
(-0.111944 0.0550881 0)
(-0.118893 0.047569 0)
(-0.126285 0.0394644 0)
(-0.13433 0.0303845 0)
(-0.143195 0.0197442 0)
(-0.152926 0.0067163 0)
(-0.163314 -0.00977133 0)
(-0.17372 -0.030935 0)
(-0.182857 -0.0578313 0)
(-0.188594 -0.0908149 0)
(-0.187947 -0.128534 0)
(-0.177486 -0.166753 0)
(-0.154355 -0.197411 0)
(-0.117946 -0.20892 0)
(-0.0718893 -0.189169 0)
(-0.02655 -0.132225 0)
(-0.00302144 -0.0462092 0)
(-0.00129358 0.0297397 0)
(-0.00780491 0.0721254 0)
(-0.0192645 0.0982294 0)
(-0.0317909 0.111535 0)
(-0.0439884 0.115923 0)
(-0.0552745 0.114697 0)
(-0.0654522 0.110263 0)
(-0.0745605 0.104175 0)
(-0.082741 0.097333 0)
(-0.0901671 0.0902138 0)
(-0.0970209 0.0830496 0)
(-0.103491 0.0759371 0)
(-0.109777 0.068893 0)
(-0.1161 0.0618704 0)
(-0.122705 0.0547474 0)
(-0.129869 0.0472929 0)
(-0.13789 0.0391069 0)
(-0.14706 0.0295372 0)
(-0.157592 0.0175834 0)
(-0.169479 0.00182277 0)
(-0.182282 -0.0195429 0)
(-0.194903 -0.0483479 0)
(-0.20524 -0.0859401 0)
(-0.209971 -0.131842 0)
(-0.204804 -0.182085 0)
(-0.185323 -0.22749 0)
(-0.148675 -0.252957 0)
(-0.0961698 -0.239766 0)
(-0.0383636 -0.174063 0)
(-0.00510276 -0.0624412 0)
(-0.00168822 0.0343957 0)
(-0.00962165 0.0824345 0)
(-0.0230114 0.110897 0)
(-0.0370168 0.12445 0)
(-0.0500884 0.128017 0)
(-0.0617183 0.125577 0)
(-0.0718295 0.119902 0)
(-0.0805715 0.112704 0)
(-0.0881685 0.104938 0)
(-0.0948509 0.0970941 0)
(-0.10084 0.0894063 0)
(-0.106352 0.0819781 0)
(-0.111609 0.0748409 0)
(-0.116846 0.0679724 0)
(-0.122329 0.0612836 0)
(-0.128361 0.0545782 0)
(-0.135286 0.0474775 0)
(-0.143479 0.0393073 0)
(-0.153304 0.0289523 0)
(-0.164994 0.0147149 0)
(-0.178393 -0.00574576 0)
(-0.192856 -0.0352352 0)
(-0.20676 -0.0761077 0)
(-0.217019 -0.129201 0)
(-0.219076 -0.19157 0)
(-0.207274 -0.25394 0)
(-0.176054 -0.298508 0)
(-0.122568 -0.299081 0)
(-0.0544092 -0.229015 0)
(-0.00882617 -0.0863827 0)
(-0.00234958 0.0402969 0)
(-0.0122871 0.0948167 0)
(-0.0280598 0.125374 0)
(-0.0435691 0.138506 0)
(-0.0571928 0.140575 0)
(-0.0686272 0.136378 0)
(-0.0780079 0.129064 0)
(-0.085649 0.120469 0)
(-0.0918864 0.111571 0)
(-0.0970232 0.102845 0)
(-0.101327 0.0945108 0)
(-0.105042 0.0866654 0)
(-0.1084 0.0793458 0)
(-0.111637 0.0725479 0)
(-0.115005 0.0662144 0)
(-0.118788 0.0601913 0)
(-0.123313 0.0541447 0)
(-0.128964 0.0474264 0)
(-0.136169 0.038889 0)
(-0.14536 0.0266819 0)
(-0.156878 0.00809427 0)
(-0.170589 -0.0204022 0)
(-0.185693 -0.0622676 0)
(-0.200223 -0.119875 0)
(-0.21027 -0.192093 0)
(-0.209821 -0.271095 0)
(-0.190928 -0.338398 0)
(-0.145349 -0.361419 0)
(-0.0740472 -0.296652 0)
(-0.0150737 -0.121108 0)
(-0.00353903 0.0481358 0)
(-0.0163746 0.109947 0)
(-0.0349634 0.141837 0)
(-0.0516688 0.153401 0)
(-0.0650228 0.15297 0)
(-0.0751635 0.146288 0)
(-0.0825847 0.136834 0)
(-0.0878447 0.126506 0)
(-0.0914368 0.116243 0)
(-0.0937641 0.10647 0)
(-0.0951562 0.0973654 0)
(-0.0958903 0.0889983 0)
(-0.0962076 0.0813916 0)
(-0.0963276 0.0745412 0)
(-0.0964623 0.0684046 0)
(-0.0968333 0.0628599 0)
(-0.0976942 0.0576239 0)
(-0.0993587 0.0521124 0)
(-0.102233 0.0452382 0)
(-0.106848 0.0351638 0)
(-0.113857 0.0190977 0)
(-0.123821 -0.00670541 0)
(-0.137126 -0.0467199 0)
(-0.15335 -0.104649 0)
(-0.170313 -0.181721 0)
(-0.183069 -0.273275 0)
(-0.182665 -0.363264 0)
(-0.155658 -0.416457 0)
(-0.0938669 -0.371884 0)
(-0.0243326 -0.169424 0)
(-0.00580746 0.0591789 0)
(-0.0229018 0.128675 0)
(-0.0444077 0.160135 0)
(-0.0611663 0.16822 0)
(-0.0724043 0.163859 0)
(-0.0791168 0.153756 0)
(-0.082379 0.141589 0)
(-0.0831092 0.129189 0)
(-0.0820223 0.117374 0)
(-0.0796569 0.106463 0)
(-0.0764214 0.0965512 0)
(-0.0726304 0.0876484 0)
(-0.0685282 0.0797335 0)
(-0.0643064 0.0727733 0)
(-0.0601194 0.0667111 0)
(-0.0561017 0.0614325 0)
(-0.052396 0.0566914 0)
(-0.0491927 0.0519827 0)
(-0.0467925 0.0463548 0)
(-0.0456932 0.038166 0)
(-0.0466945 0.0248486 0)
(-0.050988 0.00278499 0)
(-0.0599386 -0.032659 0)
(-0.0747533 -0.0861221 0)
(-0.0958151 -0.161088 0)
(-0.120791 -0.257185 0)
(-0.142145 -0.364295 0)
(-0.143212 -0.450758 0)
(-0.106744 -0.443284 0)
(-0.0354819 -0.231995 0)
(-0.0102875 0.075894 0)
(-0.0335944 0.151866 0)
(-0.0568025 0.179198 0)
(-0.0704576 0.180758 0)
(-0.0756874 0.170539 0)
(-0.0750149 0.155962 0)
(-0.0704056 0.140585 0)
(-0.063268 0.125955 0)
(-0.0545859 0.112636 0)
(-0.0450344 0.100749 0)
(-0.0350777 0.0902516 0)
(-0.0250358 0.0810483 0)
(-0.0151223 0.0730391 0)
(-0.00547188 0.06613 0)
(0.00384103 0.0602227 0)
(0.0127824 0.0551819 0)
(0.0213275 0.0507754 0)
(0.0294174 0.0465724 0)
(0.0368844 0.0417903 0)
(0.0433331 0.0350908 0)
(0.0479704 0.0243528 0)
(0.0493767 0.0064955 0)
(0.0455612 -0.0225567 0)
(0.0340114 -0.0675854 0)
(0.0119982 -0.133422 0)
(-0.0217879 -0.223677 0)
(-0.06408 -0.336493 0)
(-0.0986023 -0.451133 0)
(-0.102852 -0.493922 0)
(-0.0445043 -0.305459 0)
(-0.0190742 0.102896 0)
(-0.0507164 0.179241 0)
(-0.0699444 0.195576 0)
(-0.0726018 0.18618 0)
(-0.0641302 0.167942 0)
(-0.0493943 0.148182 0)
(-0.0314396 0.129669 0)
(-0.0121045 0.113286 0)
(0.00749469 0.0991202 0)
(0.0267074 0.0869826 0)
(0.0451689 0.0766176 0)
(0.0626816 0.0677841 0)
(0.079165 0.0602776 0)
(0.0946178 0.0539277 0)
(0.109093 0.0485821 0)
(0.122676 0.0440747 0)
(0.135459 0.0401774 0)
(0.147495 0.0365263 0)
(0.158728 0.0325091 0)
(0.168869 0.027119 0)
(0.177213 0.0187862 0)
(0.182287 0.00521877 0)
(0.18194 -0.0167415 0)
(0.173025 -0.0510298 0)
(0.151359 -0.102482 0)
(0.112566 -0.176946 0)
(0.0538815 -0.280324 0)
(-0.0136889 -0.408523 0)
(-0.072025 -0.505487 0)
(-0.0442309 -0.38092 0)
(-0.0340775 0.145957 0)
(-0.0717228 0.203275 0)
(-0.0669302 0.197763 0)
(-0.0416194 0.173006 0)
(-0.00706404 0.146292 0)
(0.0301093 0.122684 0)
(0.0666821 0.103023 0)
(0.101236 0.0869524 0)
(0.133185 0.0738614 0)
(0.162389 0.0631755 0)
(0.188926 0.0544143 0)
(0.212972 0.047203 0)
(0.23475 0.0412539 0)
(0.254504 0.0363442 0)
(0.272479 0.0322908 0)
(0.288913 0.0289202 0)
(0.304012 0.0260306 0)
(0.31791 0.0233409 0)
(0.330611 0.0204188 0)
(0.341883 0.0165819 0)
(0.351103 0.010782 0)
(0.3568 0.00149485 0)
(0.35698 -0.0130792 0)
(0.348317 -0.035712 0)
(0.325955 -0.0700076 0)
(0.284057 -0.121582 0)
(0.215111 -0.200298 0)
(0.121455 -0.320373 0)
(-0.00182714 -0.461183 0)
(-0.0216681 -0.436038 0)
(-0.0372147 0.236655 0)
(-0.0457043 0.205654 0)
(0.031457 0.155486 0)
(0.104455 0.11921 0)
(0.172098 0.0917707 0)
(0.232001 0.071269 0)
(0.283799 0.0562063 0)
(0.328266 0.045057 0)
(0.366442 0.0366538 0)
(0.399317 0.0302138 0)
(0.42775 0.0252122 0)
(0.452462 0.0212872 0)
(0.474063 0.018183 0)
(0.493063 0.0157149 0)
(0.509897 0.013741 0)
(0.524922 0.0121381 0)
(0.538415 0.0107769 0)
(0.550548 0.00949341 0)
(0.561327 0.00805516 0)
(0.570501 0.00611918 0)
(0.577422 0.00319074 0)
(0.581003 -0.00144759 0)
(0.579362 -0.0086271 0)
(0.56925 -0.0197636 0)
(0.545846 -0.0366123 0)
(0.503584 -0.0625694 0)
(0.431251 -0.105042 0)
(0.326231 -0.189238 0)
(0.138782 -0.337738 0)
(0.0589574 -0.414391 0)
(0.231277 0.158474 0)
(0.291973 0.117489 0)
(0.442675 0.0764172 0)
(0.542662 0.0510939 0)
(0.610529 0.0346329 0)
(0.660349 0.0236705 0)
(0.6982 0.0164561 0)
(0.727452 0.0117132 0)
(0.750477 0.0085469 0)
(0.768955 0.00639026 0)
(0.784045 0.00489413 0)
(0.79656 0.00383974 0)
(0.807087 0.00308682 0)
(0.816067 0.00254347 0)
(0.823834 0.00214662 0)
(0.830635 0.00184811 0)
(0.836639 0.00160362 0)
(0.841926 0.00136263 0)
(0.846457 0.00105873 0)
(0.85003 0.000604774 0)
(0.852195 -0.000110157 0)
(0.852177 -0.00118621 0)
(0.848591 -0.00293745 0)
(0.839636 -0.00570292 0)
(0.822002 -0.00982358 0)
(0.792871 -0.0162746 0)
(0.739415 -0.026862 0)
(0.661502 -0.0499481 0)
(0.457193 -0.111391 0)
(0.313964 -0.17858 0)
)
;

boundaryField
{
    movingWall
    {
        type            fixedValue;
        value           uniform (1 0 0);
    }
    fixedWalls
    {
        type            noSlip;
    }
    frontAndBack
    {
        type            empty;
    }
}


// ************************************************************************* //
