/*--------------------------------*- C++ -*----------------------------------*\
  =========                 |
  \\      /  F ield         | OpenFOAM: The Open Source CFD Toolbox
   \\    /   O peration     | Website:  https://openfoam.org
    \\  /    A nd           | Version:  7
     \\/     M anipulation  |
\*---------------------------------------------------------------------------*/
FoamFile
{
    version     2.0;
    format      ascii;
    class       volScalarField;
    location    "1";
    object      p;
}
// * * * * * * * * * * * * * * * * * * * * * * * * * * * * * * * * * * * * * //

dimensions      [0 2 -2 0 0 0 0];

internalField   nonuniform List<scalar> 
900
(
1.00184e-08
-0.000143331
-0.000211175
-0.000199337
-9.39263e-05
0.000106555
0.000397144
0.000771925
0.00122499
0.0017502
0.00234072
0.0029889
0.00368625
0.00442333
0.0051898
0.00597448
0.0067654
0.00754998
0.00831511
0.00904742
0.00973347
0.01036
0.010914
0.0113833
0.0117562
0.012022
0.0121725
0.0122089
0.0121478
0.011996
0.000142284
-2.47146e-06
-4.46712e-05
-1.15341e-05
0.000101467
0.000299079
0.000580097
0.000940989
0.00137724
0.00188344
0.00245319
0.00307916
0.0037531
0.00446585
0.00520733
0.00596659
0.006732
0.00749122
0.00823146
0.00893967
0.00960278
0.0102079
0.0107427
0.0111957
0.011557
0.0118185
0.011976
0.0120342
0.0119998
0.011847
0.000212238
3.59957e-05
-8.35397e-06
2.78678e-05
0.000141875
0.000338103
0.000615826
0.000972055
0.00140277
0.00190294
0.00246644
0.00308614
0.00375397
0.00446092
0.00519698
0.00595132
0.00671232
0.0074677
0.00820464
0.00891008
0.00957092
0.0101742
0.0107076
0.0111597
0.0115209
0.0117832
0.0119429
0.0120043
0.0119668
0.0117801
0.000203501
-4.83406e-06
-5.77417e-05
-2.36364e-05
8.96776e-05
0.000285691
0.000563352
0.000919685
0.00135086
0.00185208
0.00241741
0.00303984
0.00371143
0.00442323
0.00516526
0.00592666
0.00669573
0.00746004
0.00820658
0.00892201
0.00959293
0.010206
0.0107485
0.0112089
0.0115769
0.0118442
0.0120063
0.0120665
0.0120195
0.0117983
9.8304e-05
-0.000133823
-0.000194841
-0.000163645
-5.07398e-05
0.00014677
0.00042747
0.000788281
0.00122543
0.00173423
0.00230885
0.00294238
0.0036269
0.00435347
0.00511205
0.00589163
0.00668035
0.00746546
0.00823354
0.0089708
0.00966325
0.0102969
0.0108584
0.0113353
0.0117167
0.0119934
0.0121602
0.0122196
0.0121641
0.0119165
-0.000110162
-0.000361254
-0.000429552
-0.00040086
-0.000287134
-8.57462e-05
0.000201608
0.000571713
0.00102078
0.00154416
0.00213607
0.0027896
0.00349683
0.00424873
0.00503511
0.00584475
0.00666545
0.007484
0.00828644
0.00905824
0.00978456
0.0104505
0.0110415
0.0115441
0.0119464
0.012238
0.0124127
0.0124728
0.0124099
0.0121402
-0.000423916
-0.000692887
-0.000768007
-0.000740952
-0.000624688
-0.000416667
-0.000118789
0.000265597
0.000732658
0.00127774
0.00189506
0.00257766
0.00331756
0.00410559
0.00493135
0.00578329
0.00664879
0.00751404
0.0083643
0.00918413
0.00995756
0.0106683
0.0113005
0.0118391
0.0122705
0.0125832
0.0127699
0.0128328
0.0127632
0.0124712
-0.000845831
-0.00113408
-0.00121602
-0.00118964
-0.00106895
-0.000851373
-0.000538987
-0.000135264
0.000355907
0.000929848
0.00158074
0.00230156
0.00308422
0.00391937
0.00479635
0.00570322
0.00662685
0.0075527
0.00846511
0.00934746
0.0101823
0.0109518
0.011638
0.0122241
0.0126943
0.0130354
0.0132388
0.0133069
0.0132305
0.0129134
-0.00138102
-0.00169151
-0.00178071
-0.00175417
-0.00162713
-0.00139702
-0.00106606
-0.000637889
-0.000116439
0.000493569
0.00118627
0.00195456
0.00279023
0.00368374
0.00462416
0.00559908
0.00659484
0.00759604
0.00858598
0.00954665
0.0104589
0.0113026
0.0120576
0.0127044
0.0132247
0.0136027
0.0138285
0.0139043
0.0138208
0.0134735
-0.00203684
-0.00237356
-0.00247086
-0.00244344
-0.00230817
-0.00206249
-0.00170886
-0.00125105
-0.000693086
-3.97338e-05
0.000703098
0.00152823
0.00242733
0.00339071
0.00440715
0.00546379
0.00654641
0.00763871
0.00872286
0.00977925
0.0107866
0.0117223
0.0125632
0.0132864
0.0138701
0.0142954
0.0145502
0.0146368
0.0145453
0.0141615
-0.00282286
-0.00319061
-0.00329713
-0.00326823
-0.00312285
-0.00285853
-0.00247803
-0.00198532
-0.00138454
-0.000680482
0.000120889
0.00101234
0.00198545
0.00303039
0.00413575
0.00528838
0.00647329
0.00767356
0.00887005
0.0100414
0.011164
0.0122121
0.0131588
0.013977
0.0146404
0.0151257
0.0154179
0.0155189
0.0154183
0.0149899
-0.0037509
-0.00415529
-0.00427242
-0.00424152
-0.0040841
-0.00379795
-0.00338625
-0.00285327
-0.00220323
-0.00144102
-0.000572617
0.000394714
0.0014525
0.00259086
0.00379828
0.00506148
0.00636497
0.00769116
0.00901967
0.0103273
0.0115878
0.0127719
0.0138482
0.014784
0.0155471
0.0161084
0.0164484
0.0165683
0.0164572
0.0159743
-0.00483521
-0.00528285
-0.00541225
-0.00537878
-0.00520724
-0.00489587
-0.00444844
-0.00386958
-0.00316371
-0.00233575
-0.00139173
-0.000338902
0.000814297
0.00205803
0.00338084
0.00476946
0.00620836
0.00767931
0.00916092
0.0106283
0.0120524
0.0134
0.0146342
0.0157153
0.0166033
0.0172609
0.0176623
0.0178072
0.0176836
0.0171335
-0.00609284
-0.00659156
-0.00673516
-0.00669843
-0.0065104
-0.00617005
-0.00568198
-0.00505133
-0.00428274
-0.00338126
-0.00235292
-0.00120495
5.43448e-05
0.00141533
0.00286683
0.00439586
0.00598705
0.00762215
0.00927918
0.0109318
0.0125484
0.0140913
0.0155173
0.0167781
0.017823
0.0186036
0.0190846
0.0192626
0.0191242
0.0184902
-0.00754406
-0.00810346
-0.0082634
-0.00822241
-0.00801497
-0.00764126
-0.00710704
-0.00641813
-0.00557951
-0.0045964
-0.00347487
-0.00222209
-0.00084619
0.000643588
0.00223661
0.00392054
0.00568069
0.00749942
0.0093549
0.01122
0.013061
0.014836
0.0164944
0.0179776
0.0192209
0.02016
0.0207456
0.0209682
0.0208121
0.0200712
-0.00921323
-0.00984521
-0.0100238
-0.00997695
-0.00974623
-0.00933377
-0.0087469
-0.00799242
-0.00707575
-0.00600236
-0.00477845
-0.00341117
-0.00190838
-0.000278838
0.00146768
0.00331996
0.00526467
0.00728568
0.00936237
0.0114681
0.013568
0.0156166
0.0175558
0.0193145
0.0208102
0.0219562
0.0226819
0.0229664
0.022789
0.0219084
-0.0111298
-0.0118496
-0.0120492
-0.0119936
-0.0117342
-0.011276
-0.0106285
-0.00979971
-0.00879579
-0.00762258
-0.00628654
-0.00479486
-0.00315522
-0.00137572
0.000534941
0.00256722
0.00470996
0.00694969
0.00926851
0.0116422
0.0140366
0.0164045
0.0186811
0.0207813
0.0226001
0.0240202
0.0249378
0.0253113
0.0251087
0.0240392
-0.0133302
-0.0141576
-0.0143803
-0.014311
-0.0140148
-0.0135011
-0.0127826
-0.0118688
-0.0107667
-0.00948263
-0.00802365
-0.00639722
-0.00461092
-0.00267227
-0.000588615
0.00163264
0.00398339
0.00645416
0.0090318
0.011697
0.0144199
0.0171546
0.0198324
0.0223547
0.0245896
0.0263778
0.0275655
0.0280731
0.0278436
0.026508
-0.0158606
-0.016822
-0.0170682
-0.0169765
-0.0166312
-0.0160485
-0.015245
-0.0142322
-0.013018
-0.0116098
-0.0100153
-0.00824275
-0.00629991
-0.00419387
-0.00193063
0.000484941
0.00304855
0.00575621
0.00860177
0.0115744
0.014653
0.0177989
0.0209453
0.0239844
0.0267557
0.0290453
0.0306242
0.0313453
0.0310956
0.0293692
-0.0187814
-0.0199123
-0.0201793
-0.0200494
-0.0196358
-0.0189644
-0.0180566
-0.0169261
-0.0155819
-0.0140325
-0.0122872
-0.0103552
-0.00824512
-0.00596418
-0.0035172
-0.00090652
0.00186809
0.00480924
0.00791999
0.0112018
0.0146486
0.0182376
0.0219149
0.0255743
0.0290322
0.0320106
0.0341725
0.0352523
0.0350169
0.0326987
-0.0221759
-0.0235239
-0.0238009
-0.023605
-0.0230927
-0.0223036
-0.0212645
-0.0199907
-0.0184924
-0.0167796
-0.0148634
-0.0127553
-0.0104656
-0.00800219
-0.00536956
-0.00256777
0.00040819
0.00356728
0.00692361
0.0104948
0.0142961
0.0183319
0.0225783
0.0269531
0.0312713
0.0351946
0.0382443
0.0399574
0.0398474
0.0366323
-0.0261659
-0.0277917
-0.0280505
-0.0277391
-0.0270802
-0.0261309
-0.0249223
-0.0234701
-0.0217847
-0.0198781
-0.0177645
-0.0154584
-0.0129729
-0.010318
-0.00749875
-0.0045142
-0.00135572
0.00199333
0.00555396
0.00936454
0.0134661
0.0179011
0.022698
0.0278362
0.0331792
0.0383718
0.0427857
0.0456532
0.0459723
0.0414748
-0.0309442
-0.0329142
-0.033088
-0.0325731
-0.0316925
-0.0305212
-0.0290895
-0.0274097
-0.0254916
-0.0233496
-0.0210019
-0.0184677
-0.0157644
-0.0129053
-0.00989764
-0.00674106
-0.00342489
7.64134e-05
0.00377406
0.00773951
0.0120335
0.016742
0.0219662
0.0277961
0.0342339
0.0410323
0.047507
0.0524898
0.0539805
0.0479668
-0.0368448
-0.0391915
-0.0391303
-0.0382569
-0.0370375
-0.0355546
-0.0338239
-0.0318477
-0.0296331
-0.0271977
-0.0245653
-0.0217616
-0.0188096
-0.0157272
-0.0125254
-0.00920651
-0.00576386
-0.00218117
0.00159952
0.00561072
0.00993608
0.0146993
0.0200782
0.0263118
0.033661
0.0422333
0.0516185
0.0603317
0.0646439
0.0578299
-0.0444967
-0.0470835
-0.0464573
-0.0449546
-0.0432155
-0.0412905
-0.0391518
-0.0367807
-0.0341801
-0.0313717
-0.028387
-0.0252593
-0.022018
-0.0186859
-0.0152776
-0.0117988
-0.00824647
-0.00460406
-0.000834633
0.00310292
0.00727336
0.0118158
0.0169515
0.0230574
0.0307346
0.0407794
0.0537325
0.0684216
0.0788023
0.0745599
-0.0551847
-0.0572827
-0.0553614
-0.0527605
-0.0502195
-0.047656
-0.0449493
-0.0420455
-0.0389409
-0.0356622
-0.0322487
-0.0287401
-0.0251702
-0.0215645
-0.017939
-0.0143015
-0.0106519
-0.00698278
-0.00327312
0.000518786
0.00440087
0.00850342
0.013041
0.0184684
0.025708
0.0364495
0.0530309
0.0760053
0.0976468
0.103657
-0.071894
-0.0707614
-0.0659135
-0.0614
-0.0576062
-0.0541081
-0.0506177
-0.0470266
-0.0433128
-0.0394985
-0.0356219
-0.031721
-0.0278268
-0.0239609
-0.0201365
-0.0163596
-0.0126309
-0.00894822
-0.00530778
-0.00170767
0.00192323
0.00559639
0.00953358
0.0142363
0.0208811
0.031986
0.0521146
0.0853267
0.124257
0.152668
-0.102011
-0.0881692
-0.0775167
-0.0696695
-0.0638985
-0.0591211
-0.0546952
-0.0503958
-0.0461304
-0.0418807
-0.0376598
-0.0334887
-0.0293859
-0.0253634
-0.0214276
-0.01758
-0.0138198
-0.0101439
-0.00654764
-0.00302257
0.000463175
0.00400586
0.00788125
0.0127713
0.0202695
0.0337613
0.0593251
0.105343
0.166222
0.240175
-0.156068
-0.104342
-0.0869553
-0.0737725
-0.0653888
-0.0595399
-0.0547064
-0.0502564
-0.0459555
-0.0417254
-0.0375491
-0.0334326
-0.0293872
-0.0254228
-0.0215456
-0.0177581
-0.0140602
-0.0104484
-0.00691146
-0.0034173
0.000110779
0.00387349
0.00833506
0.0145721
0.0248756
0.0439866
0.0798579
0.145208
0.241932
0.41081
-0.326892
-0.113603
-0.0687729
-0.0551498
-0.0488824
-0.0458091
-0.0438837
-0.0419378
-0.0395917
-0.0368411
-0.0337793
-0.0305035
-0.0270961
-0.0236214
-0.0201264
-0.0166429
-0.0131909
-0.00977853
-0.00639809
-0.00301089
0.000483777
0.00433842
0.00916374
0.0163461
0.02867
0.0522391
0.0979487
0.190663
0.354637
0.697769
)
;

boundaryField
{
    movingWall
    {
        type            zeroGradient;
    }
    fixedWalls
    {
        type            zeroGradient;
    }
    frontAndBack
    {
        type            empty;
    }
}


// ************************************************************************* //
