/*--------------------------------*- C++ -*----------------------------------*\
  =========                 |
  \\      /  F ield         | OpenFOAM: The Open Source CFD Toolbox
   \\    /   O peration     | Website:  https://openfoam.org
    \\  /    A nd           | Version:  7
     \\/     M anipulation  |
\*---------------------------------------------------------------------------*/
FoamFile
{
    version     2.0;
    format      ascii;
    class       surfaceScalarField;
    location    "1";
    object      phi;
}
// * * * * * * * * * * * * * * * * * * * * * * * * * * * * * * * * * * * * * //

dimensions      [0 3 -1 0 0 0 0];

internalField   nonuniform List<scalar> 
1740
(
-3.15735e-07
3.15726e-07
-2.47911e-06
2.16338e-06
-5.89197e-06
3.41286e-06
-9.83598e-06
3.94401e-06
-1.38795e-05
4.04351e-06
-1.78054e-05
3.92591e-06
-2.15101e-05
3.70468e-06
-2.49367e-05
3.42658e-06
-2.80438e-05
3.10711e-06
-3.07943e-05
2.75053e-06
-3.31533e-05
2.35899e-06
-3.50889e-05
1.93562e-06
-3.65723e-05
1.48341e-06
-3.7578e-05
1.00572e-06
-3.80848e-05
5.06807e-07
-3.80763e-05
-8.50346e-09
-3.75414e-05
-5.34887e-07
-3.64754e-05
-1.06607e-06
-3.48804e-05
-1.595e-06
-3.27659e-05
-2.11448e-06
-3.01492e-05
-2.61667e-06
-2.70568e-05
-3.09241e-06
-2.3524e-05
-3.53279e-06
-1.95988e-05
-3.92522e-06
-1.53554e-05
-4.24343e-06
-1.09285e-05
-4.42691e-06
-6.58214e-06
-4.34634e-06
-2.80819e-06
-3.77395e-06
-3.93999e-07
-2.41419e-06
-3.93997e-07
-2.16815e-06
2.48387e-06
-7.83763e-06
7.83286e-06
-1.56371e-05
1.12124e-05
-2.44161e-05
1.2723e-05
-3.34093e-05
1.30367e-05
-4.2175e-05
1.26916e-05
-5.04677e-05
1.19974e-05
-5.81372e-05
1.10961e-05
-6.50756e-05
1.00455e-05
-7.11929e-05
8.86783e-06
-7.64102e-05
7.57634e-06
-8.06581e-05
6.18349e-06
-8.38758e-05
4.70113e-06
-8.60121e-05
3.14197e-06
-8.70257e-05
1.52045e-06
-8.6887e-05
-1.4716e-07
-8.55779e-05
-1.84403e-06
-8.30942e-05
-3.54973e-06
-7.94467e-05
-5.24252e-06
-7.46621e-05
-6.89913e-06
-6.87846e-05
-8.49419e-06
-6.18783e-05
-9.99867e-06
-5.40308e-05
-1.13804e-05
-4.53623e-05
-1.25937e-05
-3.60541e-05
-1.35517e-05
-2.64047e-05
-1.40762e-05
-1.69335e-05
-1.38176e-05
-8.50237e-06
-1.22051e-05
-2.3667e-06
-8.54986e-06
-2.7607e-06
-3.50387e-06
5.98775e-06
-1.14989e-05
1.58279e-05
-2.2039e-05
2.17524e-05
-3.37029e-05
2.43869e-05
-4.55779e-05
2.49117e-05
-5.71309e-05
2.42446e-05
-6.80521e-05
2.29185e-05
-7.81436e-05
2.11876e-05
-8.72597e-05
1.91616e-05
-9.52809e-05
1.68891e-05
-0.000102104
1.43996e-05
-0.000107639
1.17188e-05
-0.00011181
8.87164e-06
-0.000114552
5.88383e-06
-0.000115815
2.78361e-06
-0.000115564
-3.98315e-07
-0.000113779
-3.62892e-06
-0.000110458
-6.87073e-06
-0.000105618
-1.0083e-05
-9.92952e-05
-1.32214e-05
-9.15516e-05
-1.62378e-05
-8.24728e-05
-1.90775e-05
-7.21758e-05
-2.16774e-05
-6.08213e-05
-2.39482e-05
-4.86432e-05
-2.57298e-05
-3.60121e-05
-2.67073e-05
-2.35487e-05
-2.6281e-05
-1.22757e-05
-2.34781e-05
-3.73592e-06
-1.70896e-05
-6.49662e-06
-4.22485e-06
1.02126e-05
-1.36326e-05
2.52357e-05
-2.58353e-05
3.39551e-05
-3.92048e-05
3.77564e-05
-5.27429e-05
3.84499e-05
-6.58793e-05
3.73809e-05
-7.82804e-05
3.53197e-05
-8.97294e-05
3.26366e-05
-0.000100063
2.94953e-05
-0.000109147
2.59734e-05
-0.000116867
2.21193e-05
-0.000123122
1.79739e-05
-0.000127828
1.3577e-05
-0.000130913
8.9693e-06
-0.000132324
4.19441e-06
-0.000132021
-7.00957e-07
-0.000129984
-5.66641e-06
-0.000126209
-1.06454e-05
-0.000120715
-1.55765e-05
-0.000113545
-2.03923e-05
-0.000104764
-2.50185e-05
-9.44695e-05
-2.93719e-05
-8.27926e-05
-3.33543e-05
-6.99126e-05
-3.68281e-05
-5.60863e-05
-3.95562e-05
-4.17144e-05
-4.10792e-05
-2.74643e-05
-4.0531e-05
-1.44579e-05
-3.64845e-05
-4.46141e-06
-2.70861e-05
-1.0958e-05
-4.61655e-06
1.48291e-05
-1.49111e-05
3.55303e-05
-2.8198e-05
4.7242e-05
-4.26843e-05
5.22427e-05
-5.73029e-05
5.30685e-05
-7.14585e-05
5.15364e-05
-8.48063e-05
4.86675e-05
-9.71213e-05
4.49516e-05
-0.000108233
4.06069e-05
-0.000118
3.57406e-05
-0.000126301
3.04207e-05
-0.000133032
2.47046e-05
-0.000138103
1.86474e-05
-0.000141439
1.23054e-05
-0.000142982
5.73764e-06
-0.00014269
-9.9281e-07
-0.000140538
-7.81855e-06
-0.00013652
-1.46634e-05
-0.000130652
-2.14447e-05
-0.000122973
-2.80708e-05
-0.000113552
-3.44398e-05
-0.000102486
-4.04377e-05
-8.99124e-05
-4.59281e-05
-7.60189e-05
-5.07217e-05
-6.10756e-05
-5.44995e-05
-4.55047e-05
-5.66501e-05
-3.00147e-05
-5.6021e-05
-1.58175e-05
-5.06817e-05
-4.86697e-06
-3.80366e-05
-1.5825e-05
-4.89244e-06
1.97216e-05
-1.58709e-05
4.65087e-05
-3.00323e-05
6.14034e-05
-4.54415e-05
6.76518e-05
-6.09625e-05
6.85895e-05
-7.59711e-05
6.65451e-05
-9.01111e-05
6.28075e-05
-0.000103151
5.79918e-05
-0.000114917
5.23725e-05
-0.000125263
4.60869e-05
-0.000134066
3.92234e-05
-0.000141217
3.18558e-05
-0.000146624
2.40547e-05
-0.00015021
1.58915e-05
-0.000151913
7.43996e-06
-0.000151684
-1.22125e-06
-0.000149494
-1.00089e-05
-0.00014533
-1.88276e-05
-0.000139201
-2.75739e-05
-0.00013114
-3.61314e-05
-0.00012121
-4.43699e-05
-0.000109506
-5.21417e-05
-9.61649e-05
-5.9269e-05
-8.13809e-05
-6.55057e-05
-6.5437e-05
-7.04434e-05
-4.87821e-05
-7.3305e-05
-3.21773e-05
-7.26258e-05
-1.69342e-05
-6.59249e-05
-5.18212e-06
-4.97887e-05
-2.10071e-05
-5.16775e-06
2.48893e-05
-1.68246e-05
5.81655e-05
-3.18708e-05
7.64497e-05
-4.82314e-05
8.40124e-05
-6.46938e-05
8.50519e-05
-8.05977e-05
8.2449e-05
-9.55706e-05
7.77804e-05
-0.000109374
7.17952e-05
-0.000121829
6.4828e-05
-0.00013279
5.70473e-05
-0.000142129
4.85627e-05
-0.000149738
3.94646e-05
-0.000155522
2.98387e-05
-0.000159401
1.97702e-05
-0.000161307
9.34629e-06
-0.000161188
-1.34049e-06
-0.000159004
-1.21932e-05
-0.000154733
-2.30986e-05
-0.000148373
-3.39334e-05
-0.000139948
-4.45569e-05
-0.000129508
-5.48092e-05
-0.000117143
-6.45066e-05
-0.000102987
-7.3425e-05
-8.72386e-05
-8.12545e-05
-7.01966e-05
-8.74854e-05
-5.23465e-05
-9.11552e-05
-3.45171e-05
-9.04552e-05
-1.81388e-05
-8.23032e-05
-5.52717e-06
-6.24003e-05
-2.65343e-05
-5.49489e-06
3.03842e-05
-1.79277e-05
7.05983e-05
-3.39841e-05
9.2506e-05
-5.14362e-05
0.000101464
-6.89835e-05
0.000102599
-8.59208e-05
9.93864e-05
-0.000101855
9.37148e-05
-0.000116539
8.6479e-05
-0.00012979
7.80786e-05
-0.000141459
6.87162e-05
-0.000151419
5.85235e-05
-0.000159562
4.76076e-05
-0.000165792
3.60683e-05
-0.000170025
2.40032e-05
-0.000172189
1.15108e-05
-0.000172225
-1.305e-06
-0.000170081
-1.43374e-05
-0.000165723
-2.74568e-05
-0.000159133
-4.05226e-05
-0.00015032
-5.33706e-05
-0.000139318
-6.58108e-05
-0.000126205
-7.76201e-05
-0.000111107
-8.85221e-05
-9.42289e-05
-9.81331e-05
-7.58886e-05
-0.000105826
-5.6617e-05
-0.000110427
-3.73287e-05
-0.000109743
-1.95977e-05
-0.000100034
-5.95635e-06
-7.60416e-05
-3.24906e-05
-5.89628e-06
3.62805e-05
-1.9255e-05
8.3957e-05
-3.65069e-05
0.000109758
-5.52472e-05
0.000120205
-7.40724e-05
0.000121424
-9.22248e-05
0.000117539
-0.000109286
0.000110777
-0.000124999
0.000102192
-0.000139177
9.22564e-05
-0.000151671
8.12102e-05
-0.000162356
6.92085e-05
-0.000171124
5.63755e-05
-0.00017788
4.2824e-05
-0.000182538
2.86616e-05
-0.000185022
1.39952e-05
-0.000185264
-1.06317e-06
-0.000183199
-1.64031e-05
-0.000178775
-3.18807e-05
-0.000171955
-4.73419e-05
-0.000162724
-6.26016e-05
-0.000151096
-7.74392e-05
-0.000137127
-9.15893e-05
-0.000120933
-0.000104716
-0.000102718
-0.000116348
-8.28243e-05
-0.000125719
-6.1838e-05
-0.000131413
-4.07799e-05
-0.000130802
-2.14e-05
-0.000119414
-6.49471e-06
-9.0947e-05
-3.89854e-05
-6.38415e-06
4.26646e-05
-2.08503e-05
9.84232e-05
-3.95207e-05
0.000128428
-5.97802e-05
0.000140464
-8.0105e-05
0.000141749
-9.96761e-05
0.00013711
-0.000118048
0.000129148
-0.00013495
0.000119094
-0.000150196
0.000107502
-0.000163637
9.46517e-05
-0.000175154
8.0725e-05
-0.000184642
6.58632e-05
-0.000192009
5.01909e-05
-0.000197169
3.38226e-05
-0.000200044
1.68693e-05
-0.000200555
-5.51857e-07
-0.000198619
-1.83388e-05
-0.000194166
-3.63335e-05
-0.000187132
-5.43761e-05
-0.000177469
-7.22644e-05
-0.00016516
-8.97489e-05
-0.00015023
-0.000106519
-0.000132776
-0.00012217
-0.000112996
-0.000136128
-9.12551e-05
-0.00014746
-6.82072e-05
-0.000154461
-4.50037e-05
-0.000154005
-2.3614e-05
-0.000140804
-7.15995e-06
-0.000107401
-4.61453e-05
-6.96931e-06
4.9634e-05
-2.27516e-05
0.000114205
-4.3095e-05
0.000148772
-6.51338e-05
0.000162503
-8.72026e-05
0.000163818
-0.000108412
0.000158319
-0.000128286
0.000149022
-0.000146544
0.000137353
-0.000162998
0.000123956
-0.000177508
0.000109162
-0.000189961
9.3178e-05
-0.000200263
7.61646e-05
-0.000208327
5.82553e-05
-0.000214073
3.95681e-05
-0.000217414
2.02108e-05
-0.000218275
3.08743e-07
-0.000216539
-2.00744e-05
-0.000212119
-4.07537e-05
-0.000204913
-6.15816e-05
-0.000194833
-8.23448e-05
-0.000181813
-0.000102768
-0.000165837
-0.000122495
-0.000146963
-0.000141044
-0.000125374
-0.000157717
-0.000101458
-0.000171376
-7.59452e-05
-0.000179974
-5.01498e-05
-0.0001798
-2.63162e-05
-0.000164637
-7.97271e-06
-0.000125744
-5.4118e-05
-7.66481e-06
5.72988e-05
-2.50018e-05
0.000131542
-4.73077e-05
0.000171078
-7.14168e-05
0.000186612
-9.54972e-05
0.000187898
-0.000118579
0.000181401
-0.000140154
0.000170596
-0.000159933
0.000157132
-0.000177733
0.000141756
-0.000193425
0.000124854
-0.000206912
0.000106665
-0.000218115
8.73673e-05
-0.000226961
6.71016e-05
-0.000233378
4.59845e-05
-0.000237282
2.41152e-05
-0.000238571
1.59744e-06
-0.000237139
-2.15063e-05
-0.000232848
-4.50446e-05
-0.000225555
-6.88747e-05
-0.000215115
-9.27851e-05
-0.000201399
-0.000116484
-0.000184322
-0.000139572
-0.000163887
-0.000161479
-0.000140242
-0.000181362
-0.000113785
-0.000197833
-8.53373e-05
-0.000208421
-5.64147e-05
-0.000208723
-2.96092e-05
-0.000191443
-8.96159e-06
-0.000146392
-6.30796e-05
-8.48804e-06
6.57868e-05
-2.76561e-05
0.000150711
-5.22564e-05
0.000195678
-7.8764e-05
0.00021312
-0.00010515
0.000214284
-0.000130353
0.000206605
-0.000153832
0.000194075
-0.000175292
0.000178592
-0.000194564
0.000161028
-0.000211539
0.000141829
-0.000226144
0.00012127
-0.000238324
9.95475e-05
-0.000248029
7.68067e-05
-0.0002552
5.3156e-05
-0.000259762
2.86765e-05
-0.000261605
3.44052e-06
-0.000260601
-2.25095e-05
-0.000256578
-4.90682e-05
-0.000249335
-7.61176e-05
-0.000238654
-0.000103466
-0.000224318
-0.00013082
-0.000206146
-0.000157744
-0.000184046
-0.00018358
-0.000158101
-0.000207307
-0.000128704
-0.00022723
-9.67718e-05
-0.000240354
-6.407e-05
-0.000241425
-3.36365e-05
-0.000221876
-1.01668e-05
-0.000169862
-7.32464e-05
-9.46296e-06
7.52498e-05
-3.07888e-05
0.000172036
-5.80701e-05
0.000222959
-8.73495e-05
0.000242399
-0.000116365
0.0002433
-0.000143953
0.000234193
-0.000169538
0.000219659
-0.00019283
0.000201884
-0.00021368
0.000181879
-0.000232015
0.000160163
-0.000247797
0.000137052
-0.000261011
0.000112761
-0.000271638
8.74337e-05
-0.000279645
6.11631e-05
-0.000284969
3.40005e-05
-0.000287503
5.97461e-06
-0.000287096
-2.29166e-05
-0.000283534
-5.26301e-05
-0.000276551
-8.31006e-05
-0.000265835
-0.000114182
-0.000251049
-0.000145606
-0.000231873
-0.00017692
-0.000208074
-0.000207379
-0.000179617
-0.000235763
-0.000146852
-0.000259995
-0.000110789
-0.000276417
-7.35005e-05
-0.000278713
-3.86026e-05
-0.000256774
-1.16453e-05
-0.000196819
-8.48917e-05
-1.06231e-05
8.58728e-05
-3.45014e-05
0.000195915
-6.49221e-05
0.00025338
-9.74034e-05
0.00027488
-0.000129408
0.000275305
-0.000159656
0.00026444
-0.000187542
0.000247545
-0.000212793
0.000227136
-0.000235299
0.000204385
-0.000255035
0.000179899
-0.000272021
0.000154038
-0.000286292
0.000127032
-0.00029788
9.90221e-05
-0.000306791
7.00741e-05
-0.000312987
4.01961e-05
-0.000316368
9.35601e-06
-0.000316768
-2.25172e-05
-0.000313929
-5.54691e-05
-0.000307509
-8.95208e-05
-0.000297079
-0.000124611
-0.000282148
-0.000160538
-0.0002622
-0.000196868
-0.000236788
-0.000232791
-0.00020568
-0.000266871
-0.00016911
-0.000296565
-0.000128158
-0.000317369
-8.52655e-05
-0.000321605
-4.48085e-05
-0.000297231
-1.34795e-05
-0.000228148
-9.83712e-05
-1.2016e-05
9.78889e-05
-3.89361e-05
0.000222835
-7.30495e-05
0.000287493
-0.000109233
0.000311064
-0.000144623
0.000310695
-0.000177813
0.00029763
-0.000208179
0.000277911
-0.000235482
0.000254438
-0.000259673
0.000228576
-0.0002808
0.000201026
-0.000298961
0.000172199
-0.000314268
0.000142339
-0.000326821
0.000111575
-0.000336681
7.99341e-05
-0.000343851
4.73664e-05
-0.000348254
1.37588e-05
-0.000349715
-2.10557e-05
-0.000347939
-5.72451e-05
-0.000342501
-9.49596e-05
-0.000332835
-0.000134277
-0.000318252
-0.000175122
-0.000297974
-0.000217146
-0.000271237
-0.000259527
-0.000237486
-0.000300622
-0.000196715
-0.000337336
-0.00015
-0.000364084
-0.000100207
-0.000371398
-5.27147e-05
-0.000344723
-1.57943e-05
-0.000265069
-0.000114165
-1.37112e-05
0.0001116
-4.42943e-05
0.000253418
-8.27811e-05
0.00032598
-0.000123256
0.000351539
-0.000162468
0.000349908
-0.00019888
0.000334042
-0.000231868
0.000310899
-0.000261257
0.000283828
-0.000287091
0.00025441
-0.000309525
0.00022346
-0.000328762
0.000191436
-0.000345017
0.000158594
-0.000358482
0.000125039
-0.000369297
9.07491e-05
-0.000377527
5.55966e-05
-0.000383134
1.93662e-05
-0.000385956
-1.82337e-05
-0.000385669
-5.75321e-05
-0.000381769
-9.88595e-05
-0.000373544
-0.000142502
-0.000360064
-0.000188602
-0.000340208
-0.000237002
-0.000312763
-0.000286972
-0.000276662
-0.000336724
-0.000231441
-0.000382557
-0.000178002
-0.000417522
-0.000119642
-0.000429759
-6.30656e-05
-0.0004013
-1.87941e-05
-0.00030934
-0.00013296
-1.58118e-05
0.000127412
-5.08683e-05
0.000288474
-9.45802e-05
0.000369692
-0.00014004
0.000396999
-0.000183548
0.000393415
-0.00022344
0.000373934
-0.000259131
0.000346589
-0.000290554
0.00031525
-0.000317891
0.000281748
-0.000341442
0.000247011
-0.000361555
0.000211549
-0.000378579
0.000175618
-0.000392825
0.000139286
-0.000404541
0.000102465
-0.000413879
6.4934e-05
-0.000420866
2.63533e-05
-0.000425379
-1.37207e-05
-0.000427092
-5.58192e-05
-0.000425443
-0.000100508
-0.000419577
-0.000148368
-0.000408301
-0.000199878
-0.00039007
-0.000255233
-0.000363056
-0.000313985
-0.00032541
-0.00037437
-0.000275853
-0.000432115
-0.000214759
-0.000478617
-0.000145716
-0.000498802
-7.71348e-05
-0.000469881
-2.28452e-05
-0.00036363
-0.000155805
-1.84778e-05
0.00014589
-5.90916e-05
0.000329088
-0.000109109
0.000419709
-0.000160374
0.000448264
-0.000208672
0.000441714
-0.000252249
0.00041751
-0.000290619
0.000384959
-0.000323891
0.000348523
-0.000352448
0.000310304
-0.000376786
0.000271349
-0.000397441
0.000232204
-0.000414932
0.000193109
-0.000429724
0.000154078
-0.000442199
0.00011494
-0.000452626
7.53604e-05
-0.000461131
3.4859e-05
-0.000467672
-7.17991e-06
-0.00047196
-5.15313e-05
-0.000473426
-9.90429e-05
-0.000471111
-0.000150682
-0.000463572
-0.000207417
-0.000448785
-0.00027002
-0.000424138
-0.000338632
-0.000386645
-0.000411862
-0.000333646
-0.000485113
-0.000264302
-0.00054796
-0.000182014
-0.00058109
-9.72083e-05
-0.000554687
-2.86654e-05
-0.000432173
-0.00018447
-2.19662e-05
0.000167856
-6.96231e-05
0.000376745
-0.000127327
0.000477414
-0.000185346
0.000506283
-0.000238915
0.000495282
-0.000286266
0.000464862
-0.000327122
0.000425816
-0.000361866
0.000383268
-0.000391159
0.000339596
-0.000415761
0.000295951
-0.000436446
0.000252889
-0.000453942
0.000210605
-0.000468899
0.000169035
-0.000481863
0.000127904
-0.000493253
8.67495e-05
-0.000503329
4.49358e-05
-0.000512191
1.68146e-06
-0.000519636
-4.40859e-05
-0.000525184
-9.34949e-05
-0.000527867
-0.000148
-0.000526073
-0.000209211
-0.000517331
-0.000278763
-0.000498122
-0.000357841
-0.000463925
-0.000446059
-0.00040989
-0.000539148
-0.000332748
-0.000625102
-0.000234499
-0.000679339
-0.000127461
-0.000661724
-3.77375e-05
-0.000521896
-0.000222208
-2.6709e-05
0.000194565
-8.34881e-05
0.000433524
-0.000150639
0.000544564
-0.000216461
0.000572106
-0.000275674
0.000554494
-0.000326665
0.000515853
-0.000369534
0.000468685
-0.000405074
0.000418808
-0.000434331
0.000368853
-0.000458407
0.000320027
-0.000478365
0.000272847
-0.000495183
0.000227423
-0.000509724
0.000183577
-0.000522722
0.000140903
-0.000534775
9.88018e-05
-0.000546325
5.64864e-05
-0.000557615
1.29716e-05
-0.000568704
-3.29971e-05
-0.000579271
-8.29275e-05
-0.000588517
-0.000138754
-0.000594866
-0.000202862
-0.000595583
-0.000278045
-0.000586297
-0.000367127
-0.000560641
-0.000471715
-0.00051058
-0.000589209
-0.000428493
-0.000707189
-0.000312455
-0.000795377
-0.00017525
-0.00079893
-5.31076e-05
-0.000644038
-0.000275315
-3.3464e-05
0.000228029
-0.000102309
0.000502369
-0.00018108
0.000623335
-0.000255723
0.000646749
-0.00032064
0.000619411
-0.00037469
0.000569903
-0.000418608
0.000512602
-0.000453786
0.000453987
-0.000481785
0.000396852
-0.000504134
0.000342375
-0.000522243
0.000290956
-0.000537369
0.00024255
-0.000550607
0.000196814
-0.000562891
0.000153187
-0.000575008
0.000110918
-0.000587603
6.90811e-05
-0.000601163
2.65321e-05
-0.00061601
-1.8151e-05
-0.000632195
-6.67422e-05
-0.000649318
-0.000121632
-0.000666183
-0.000185996
-0.000680224
-0.000264005
-0.000686611
-0.00036074
-0.000677192
-0.000481134
-0.000639884
-0.000626517
-0.000560204
-0.000786869
-0.000427943
-0.000927638
-0.000252092
-0.000974781
-8.05963e-05
-0.000815534
-0.000355912
-4.3605e-05
0.000271634
-0.000128653
0.000587417
-0.000221485
0.000716167
-0.000305517
0.00073078
-0.00037539
0.000689285
-0.00043098
0.000625493
-0.000474039
0.000555661
-0.000506809
0.000486756
-0.000531522
0.000421566
-0.000550229
0.000361083
-0.000564736
0.000305463
-0.000576595
0.000254409
-0.000587125
0.000207344
-0.000597446
0.000163507
-0.000608519
0.000121992
-0.000621188
8.175e-05
-0.000636201
4.15445e-05
-0.00065417
-1.81943e-07
-0.0006757
-4.52121e-05
-0.000701024
-9.63073e-05
-0.000729776
-0.000157245
-0.000760239
-0.000233542
-0.000788033
-0.000332946
-0.000804061
-0.000465106
-0.00079221
-0.000638368
-0.000728947
-0.000850132
-0.000589966
-0.00106662
-0.000371705
-0.00119304
-0.000129785
-0.00105745
-0.000485696
-5.96577e-05
0.000331292
-0.000166433
0.000694193
-0.000275274
0.000825008
-0.000367651
0.000823157
-0.000439688
0.000761322
-0.000493189
0.000678993
-0.000531476
0.000593949
-0.00055797
0.00051325
-0.000575769
0.000439365
-0.000587537
0.00037285
-0.000595496
0.000313423
-0.000601474
0.000260387
-0.000606964
0.000212834
-0.000613205
0.000169749
-0.000621263
0.00013005
-0.000632106
9.25924e-05
-0.000646676
5.6115e-05
-0.000665914
1.90561e-05
-0.000690826
-2.03e-05
-0.000722569
-6.45647e-05
-0.000761919
-0.000117894
-0.000808767
-0.000186694
-0.00086052
-0.000281193
-0.000909109
-0.000416518
-0.000936459
-0.000611018
-0.000910373
-0.000876217
-0.000787852
-0.00118914
-0.000539782
-0.00144111
-0.000212396
-0.00138484
-0.000698092
-8.62257e-05
0.000417517
-0.000220951
0.000828918
-0.000344677
0.000948734
-0.000439625
0.000918104
-0.000505947
0.000827644
-0.000548871
0.000721917
-0.000574109
0.000619186
-0.000586699
0.00052584
-0.0005908
0.000443467
-0.00058973
0.00037178
-0.000586066
0.000309758
-0.000581784
0.000256105
-0.000578402
0.000209452
-0.000577118
0.000168464
-0.000578934
0.000131867
-0.000584777
9.84353e-05
-0.000595601
6.69393e-05
-0.000612576
3.60308e-05
-0.000636614
3.73734e-06
-0.000669955
-3.12231e-05
-0.000714307
-7.35424e-05
-0.00077155
-0.00012945
-0.00084213
-0.000210613
-0.00092186
-0.000336788
-0.000995747
-0.000537132
-0.00102923
-0.000842729
-0.000962858
-0.00125552
-0.000730076
-0.00167389
-0.000332566
-0.00178235
-0.00103066
-0.000131478
0.000548995
-0.000297006
0.000994447
-0.000423712
0.00107544
-0.000502914
0.000997307
-0.000543722
0.000868452
-0.000557219
0.000735415
-0.000552619
0.000614587
-0.000536967
0.000510188
-0.000515449
0.000421948
-0.000491765
0.000348097
-0.000468489
0.000286482
-0.000447366
0.000234982
-0.00042958
0.000191666
-0.000415958
0.000154841
-0.000407137
0.000123046
-0.000403705
9.50035e-05
-0.00040632
6.9554e-05
-0.000415831
4.55423e-05
-0.000433679
2.15851e-05
-0.000460973
-3.92945e-06
-0.000500703
-3.38123e-05
-0.000556032
-7.41206e-05
-0.000630656
-0.00013599
-0.000726753
-0.000240691
-0.000839318
-0.000424566
-0.000944715
-0.000737332
-0.000983286
-0.00121695
-0.000851517
-0.00180566
-0.000463434
-0.00217043
-0.00149409
-0.000209584
0.000758579
-0.000388296
0.00117316
-0.000474541
0.00116168
-0.000490541
0.00101331
-0.000462634
0.000840545
-0.000410668
0.000683449
-0.000347621
0.00055154
-0.000281725
0.000444292
-0.000217974
0.000358197
-0.000159233
0.000289355
-0.000106996
0.000234245
-6.19114e-05
0.000189898
-2.41424e-05
0.000153897
6.38756e-06
0.000124312
2.98257e-05
9.96077e-05
4.62709e-05
7.85583e-05
5.568e-05
6.0145e-05
5.77738e-05
4.34485e-05
5.18635e-05
2.74954e-05
3.68777e-05
1.10563e-05
1.08711e-05
-7.80563e-06
-2.96085e-05
-3.3641e-05
-9.0395e-05
-7.52033e-05
-0.000180126
-0.00015096
-0.000308562
-0.000296131
-0.000477131
-0.000568764
-0.000656241
-0.00103784
-0.000733792
-0.00172811
-0.000526873
-0.00237735
-0.00202097
-0.00033138
0.00108996
-0.000418539
0.00126032
-0.000350991
0.00109414
-0.000207811
0.000870126
-4.12961e-05
0.00067403
0.000123763
0.00051839
0.000276093
0.00039921
0.00041134
0.000309045
0.000528579
0.000240958
0.000628569
0.000189365
0.000712813
0.000150001
0.000783047
0.000119663
0.000840972
9.5973e-05
0.000888106
7.71771e-05
0.000925727
6.19866e-05
0.000954841
4.94443e-05
0.000976172
3.88142e-05
0.000990141
2.94795e-05
0.000996816
2.08208e-05
0.000995813
1.2059e-05
0.000985819
2.18831e-06
0.000964253
-1.20747e-05
0.00092502
-3.59704e-05
0.000855846
-8.17859e-05
0.000733993
-0.000174278
0.000527049
-0.00036182
0.000211864
-0.000722651
-0.000155462
-0.00136079
-0.000334938
-0.00219788
-0.0023559
-0.000282346
0.00137231
-1.29134e-05
0.000990885
0.000422072
0.00065915
0.000823984
0.000468215
0.00116581
0.000332201
0.00144843
0.000235775
0.00167844
0.000169198
0.00186414
0.000123349
0.00201366
9.14386e-05
0.00213408
6.89461e-05
0.0022312
5.28765e-05
0.00230966
4.12009e-05
0.0023731
3.25381e-05
0.00242432
2.59544e-05
0.00246549
2.08198e-05
0.00249823
1.67045e-05
0.00252374
1.33027e-05
0.00254284
1.03743e-05
0.00255597
7.68943e-06
0.00256306
4.97144e-06
0.00256346
1.78672e-06
0.00255468
-3.29544e-06
0.00253109
-1.23736e-05
0.00247978
-3.04796e-05
0.00237345
-6.79493e-05
0.00216049
-0.000148862
0.00175895
-0.000321105
0.00110333
-0.000705172
0.000343342
-0.00143788
-0.00201256
0.00137231
0.00236319
0.00302234
0.00349056
0.00382276
0.00405853
0.00422773
0.00435108
0.00444252
0.00451146
0.00456434
0.00460554
0.00463808
0.00466403
0.00468485
0.00470156
0.00471486
0.00472523
0.00473292
0.00473789
0.00473968
0.00473639
0.00472401
0.00469353
0.00462558
0.00447672
0.00415562
0.00345044
0.00201256
)
;

boundaryField
{
    movingWall
    {
        type            calculated;
        value           uniform 0;
    }
    fixedWalls
    {
        type            calculated;
        value           uniform 0;
    }
    frontAndBack
    {
        type            empty;
        value           nonuniform 0();
    }
}


// ************************************************************************* //
