/*--------------------------------*- C++ -*----------------------------------*\
  =========                 |
  \\      /  F ield         | OpenFOAM: The Open Source CFD Toolbox
   \\    /   O peration     | Website:  https://openfoam.org
    \\  /    A nd           | Version:  7
     \\/     M anipulation  |
\*---------------------------------------------------------------------------*/
FoamFile
{
    version     2.0;
    format      ascii;
    class       volScalarField;
    location    "4";
    object      p;
}
// * * * * * * * * * * * * * * * * * * * * * * * * * * * * * * * * * * * * * //

dimensions      [0 2 -2 0 0 0 0];

internalField   nonuniform List<scalar> 
900
(
-2.03067e-09
-0.000115128
-0.00023938
-0.000337118
-0.000381271
-0.000358064
-0.000263174
-9.68766e-05
0.000138723
0.000440907
0.000806666
0.0012325
0.00171397
0.00224507
0.00281773
0.00342132
0.00404236
0.00466453
0.00526895
0.00583502
0.00634154
0.00676846
0.00709883
0.00732104
0.00743105
0.00743433
0.00734814
0.0072036
0.00704066
0.00692249
0.000113675
-2.94978e-06
-8.86327e-05
-0.00014464
-0.000156398
-0.000112873
-9.5308e-06
0.000154944
0.000380306
0.000665336
0.00100803
0.00140548
0.00185355
0.00234652
0.00287662
0.00343377
0.0040053
0.00457634
0.00512982
0.00564743
0.00611076
0.00650286
0.00681001
0.00702363
0.00714197
0.00717128
0.00712675
0.00703343
0.00692081
0.00680384
0.000241771
7.96744e-05
-8.05228e-06
-5.4484e-05
-5.62153e-05
-5.46862e-06
0.000100692
0.000263173
0.000482088
0.000756871
0.00108621
0.00146784
0.00189823
0.00237218
0.00288244
0.00341941
0.00397119
0.00452315
0.00505879
0.00556032
0.00600983
0.00639085
0.00669016
0.00689968
0.00701797
0.00705095
0.00701251
0.00692509
0.0068077
0.00664348
0.000345742
0.000129782
2.70647e-05
-2.16808e-05
-2.21105e-05
3.02714e-05
0.000136299
0.000295891
0.000509074
0.000775694
0.0010951
0.00146577
0.00188497
0.00234822
0.00284895
0.00337813
0.0039241
0.00447244
0.00500649
0.005508
0.00595836
0.00634026
0.00663968
0.00684785
0.00696285
0.00699012
0.00694292
0.00684286
0.00670296
0.00648588
0.000392831
0.000125981
5.22e-06
-5.07065e-05
-5.43579e-05
-3.8257e-06
9.9824e-05
0.000255537
0.000463198
0.000723035
0.00103508
0.00139868
0.00181198
0.0022714
0.00277112
0.00330266
0.00385455
0.00441225
0.00495836
0.00547342
0.00593716
0.00633038
0.00663716
0.00684727
0.00695788
0.00697414
0.00690966
0.00678718
0.00661777
0.00634979
0.000360631
4.84011e-05
-9.10466e-05
-0.00015681
-0.000166622
-0.000120469
-2.09303e-05
0.00013017
0.00033267
0.00058724
0.000894672
0.00125527
0.00166821
0.00213094
0.0026385
0.00318298
0.00375308
0.00433376
0.00490643
0.00544965
0.00594052
0.00635678
0.00667954
0.00689616
0.00700252
0.00700379
0.00691512
0.00676241
0.00655835
0.00624257
0.000234799
-0.000117368
-0.000275002
-0.000351811
-0.000369481
-0.000329354
-0.000235148
-8.92049e-05
0.000108426
0.00035898
0.000664133
0.00102529
0.00144284
0.00191543
0.00243914
0.00300676
0.00360712
0.00422461
0.00483896
0.00542603
0.00595924
0.00641204
0.0067612
0.00699057
0.00709413
0.00707734
0.00695809
0.00676763
0.00652327
0.00616013
5.37864e-06
-0.000382689
-0.00055776
-0.000646099
-0.000672611
-0.000639649
-0.000551776
-0.000411626
-0.00021897
2.81456e-05
0.000332447
0.000696629
0.00112253
0.00161026
0.00215726
0.00275727
0.00339944
0.00406762
0.00473955
0.00538778
0.00598092
0.00648658
0.00687549
0.00712638
0.00723032
0.00719304
0.00703637
0.00679923
0.0065064
0.0060909
-0.000335458
-0.000757233
-0.000949356
-0.00104961
-0.00108579
-0.00106108
-0.000980726
-0.000847498
-0.000660748
-0.000417657
-0.000114266
0.000253653
0.000689691
0.00119582
0.00177128
0.00241128
0.00310565
0.00383818
0.00458452
0.00531338
0.00598745
0.00656668
0.0070134
0.00729881
0.00740922
0.00735002
0.00714798
0.00685237
0.00649856
0.00601819
-0.000794674
-0.00124971
-0.0014591
-0.00157192
-0.00161881
-0.00160378
-0.00153271
-0.00140846
-0.00122989
-0.000993185
-0.000692981
-0.000323258
0.000121702
0.000646245
0.00125208
0.00193659
0.00269096
0.00350037
0.00433828
0.00516951
0.00594987
0.00662955
0.00715936
0.0074993
0.00762764
0.00754757
0.0072913
0.00692162
0.00648822
0.00592043
-0.00137911
-0.00186845
-0.00209594
-0.0022224
-0.00228149
-0.00227818
-0.00221908
-0.00210722
-0.00194096
-0.00171544
-0.00142377
-0.00105789
-0.000609566
-7.14819e-05
0.000561362
0.00128953
0.00210644
0.00300223
0.00394738
0.00490398
0.00582064
0.00663571
0.00728452
0.00771044
0.007878
0.00778403
0.00746536
0.0070018
0.0064622
0.00577083
-0.0020959
-0.00262183
-0.00286886
-0.00301048
-0.00308379
-0.00309498
-0.00305167
-0.00295724
-0.0028097
-0.00260324
-0.00232937
-0.00197789
-0.00153769
-0.000997934
-0.000349369
0.000413854
0.00129172
0.00227116
0.00333276
0.00443572
0.00552196
0.00651667
0.00733519
0.00789658
0.00814218
0.00805405
0.00766972
0.00708928
0.00640701
0.00553713
-0.00295266
-0.00351858
-0.00378709
-0.00394577
-0.00403574
-0.00406489
-0.00404231
-0.00397209
-0.0038522
-0.00367612
-0.003434
-0.00311354
-0.00270069
-0.00218069
-0.0015392
-0.000763997
0.000151902
0.00120351
0.00237944
0.00364126
0.00492882
0.00615555
0.00721314
0.0079865
0.0083789
0.00834171
0.00790271
0.00718325
0.00631087
0.00518226
-0.00395761
-0.00456809
-0.00486038
-0.00503812
-0.00514732
-0.00519825
-0.00520211
-0.00516435
-0.00508342
-0.00495262
-0.00476123
-0.00449533
-0.00413832
-0.00367159
-0.00307531
-0.00232978
-0.00141865
-0.000335346
0.000928162
0.00233959
0.00384704
0.00535931
0.00674463
0.00784344
0.00849933
0.00860498
0.00815514
0.00728613
0.00616684
0.0046664
-0.00511977
-0.00578078
-0.00609933
-0.00629779
-0.00642828
-0.00650441
-0.00654047
-0.00654414
-0.00651519
-0.00644755
-0.00633062
-0.00614989
-0.0058873
-0.0055214
-0.00502754
-0.00437832
-0.00354428
-0.00249676
-0.00122652
0.000280573
0.00199163
0.00382634
0.00563911
0.00721996
0.00832575
0.00874545
0.00839464
0.00740072
0.00597689
0.00395113
-0.00644927
-0.00716872
-0.00751587
-0.00773562
-0.00788789
-0.00799102
-0.00806377
-0.00811719
-0.00815349
-0.00816848
-0.00815308
-0.00809399
-0.00797378
-0.00777055
-0.00745721
-0.0070005
-0.00635961
-0.0054866
-0.00433454
-0.00285103
-0.00101895
0.00112581
0.00345162
0.00570654
0.00753532
0.0085601
0.0085355
0.00752102
0.00575683
0.00300703
-0.00795817
-0.00874676
-0.00912421
-0.00936346
-0.00953479
-0.00966325
-0.00977385
-0.0098825
-0.00999522
-0.0101113
-0.0102249
-0.0103266
-0.0104027
-0.0104348
-0.010398
-0.0102579
-0.00996579
-0.00945342
-0.00862897
-0.00738786
-0.00562234
-0.00327557
-0.000413015
0.00270794
0.00561293
0.00768599
0.00839578
0.00761549
0.00554399
0.00182892
-0.00966192
-0.0105344
-0.0109423
-0.011195
-0.011377
-0.0115229
-0.0116664
-0.0118299
-0.0120247
-0.0122552
-0.0125213
-0.01282
-0.0131455
-0.0134884
-0.0138326
-0.0141503
-0.0143927
-0.0144767
-0.0142686
-0.0135777
-0.0121914
-0.00988834
-0.00659005
-0.00248366
0.00187408
0.00557992
0.00766288
0.00760876
0.00541187
0.000468355
-0.011582
-0.0125593
-0.0129943
-0.0132469
-0.0134218
-0.0135675
-0.0137291
-0.0139373
-0.0142103
-0.0145588
-0.0149903
-0.0155113
-0.0161283
-0.0168466
-0.0176671
-0.0185785
-0.0195427
-0.0204717
-0.0211967
-0.0214405
-0.0208255
-0.0189484
-0.0154852
-0.01044
-0.00434991
0.00161697
0.00592079
0.00738782
0.00550157
-0.000899295
-0.0137509
-0.014862
-0.0153146
-0.0155409
-0.0156765
-0.0157895
-0.0159401
-0.0161691
-0.016502
-0.0169566
-0.0175493
-0.0182983
-0.0192257
-0.0203568
-0.0217166
-0.0233195
-0.0251492
-0.0271248
-0.0290542
-0.0305784
-0.031139
-0.0301361
-0.0269187
-0.0211923
-0.0133223
-0.00460953
0.00282447
0.00688575
0.00608559
-0.0018511
-0.0162203
-0.0175058
-0.0179533
-0.0181058
-0.0181474
-0.0181744
-0.018266
-0.0184738
-0.0188299
-0.0193591
-0.0200862
-0.0210421
-0.0222657
-0.0238052
-0.0257133
-0.0280357
-0.0307846
-0.0338949
-0.0371604
-0.0401572
-0.0421831
-0.0424106
-0.0398601
-0.0338602
-0.0244495
-0.0128331
-0.00154179
0.00629553
0.00768454
-0.00151777
-0.0190781
-0.0205906
-0.0209841
-0.0209798
-0.0208391
-0.0206985
-0.0206591
-0.0207826
-0.0211053
-0.0216561
-0.0224668
-0.0235791
-0.0250484
-0.0269443
-0.0293468
-0.0323311
-0.0359372
-0.0401156
-0.044651
-0.0490807
-0.0526331
-0.0541463
-0.0524828
-0.0465731
-0.0360292
-0.0217178
-0.00623434
0.00640704
0.0112595
0.00168252
-0.022481
-0.0242771
-0.0245149
-0.0242101
-0.0237491
-0.023322
-0.0230524
-0.0230068
-0.0232206
-0.023722
-0.0245458
-0.0257414
-0.0273765
-0.0295384
-0.0323278
-0.0358417
-0.0401372
-0.0451713
-0.0507155
-0.0562635
-0.0609607
-0.0635673
-0.0626715
-0.0569218
-0.045522
-0.0288616
-0.00922009
0.00891958
0.0184853
0.0103171
-0.0267252
-0.0288264
-0.028698
-0.0278468
-0.0268555
-0.0259772
-0.0253491
-0.0250314
-0.0250486
-0.0254208
-0.0261799
-0.0273774
-0.0290883
-0.0314098
-0.0344539
-0.0383255
-0.0430829
-0.0486716
-0.0548376
-0.0610308
-0.0663308
-0.0694344
-0.0687635
-0.0627709
-0.0503359
-0.0313816
-0.00763116
0.016519
0.0320566
0.028106
-0.032403
-0.0346599
-0.0337315
-0.0319205
-0.0300901
-0.0285431
-0.027403
-0.0267007
-0.0264339
-0.026604
-0.0272321
-0.0283647
-0.0300763
-0.0324654
-0.0356429
-0.0397056
-0.0446958
-0.0505274
-0.056902
-0.0632097
-0.0684597
-0.0712842
-0.0699885
-0.0629073
-0.0486754
-0.0268311
0.00147781
0.0325747
0.0558102
0.0597931
-0.0407745
-0.0424412
-0.0398153
-0.036376
-0.0332744
-0.0307894
-0.0289696
-0.0277783
-0.0271622
-0.0270882
-0.0275558
-0.028596
-0.0302763
-0.0326834
-0.0359146
-0.0400444
-0.0450765
-0.0508754
-0.0570784
-0.0630023
-0.0675772
-0.069347
-0.0665037
-0.0572285
-0.0399576
-0.0139576
0.0201788
0.0601999
0.094055
0.110705
-0.0548684
-0.053204
-0.0470299
-0.0409327
-0.0359922
-0.0322665
-0.0296169
-0.0278797
-0.0269121
-0.0266215
-0.0269693
-0.0279621
-0.0296439
-0.0320821
-0.0353466
-0.0394744
-0.0444181
-0.0499761
-0.0557082
-0.0608482
-0.0642409
-0.0643168
-0.0591342
-0.0466438
-0.0250045
0.00695077
0.0491861
0.100509
0.149464
0.187973
-0.0824269
-0.0680725
-0.0552575
-0.0449878
-0.0374882
-0.0322611
-0.0287412
-0.0265331
-0.0253423
-0.0249811
-0.0253512
-0.0264217
-0.0282075
-0.0307483
-0.03408
-0.0381951
-0.042989
-0.0481894
-0.0532742
-0.0573871
-0.0592911
-0.0573205
-0.0494409
-0.033226
-0.00637379
0.033082
0.0861045
0.152841
0.223196
0.305794
-0.134791
-0.0833397
-0.0621643
-0.046054
-0.0355249
-0.0290326
-0.0251263
-0.0229251
-0.0219216
-0.0218278
-0.0224921
-0.0238518
-0.0259005
-0.0286566
-0.0321294
-0.0362767
-0.0409507
-0.0458305
-0.0503456
-0.0535861
-0.0542364
-0.0504982
-0.0404104
-0.0212042
0.0100966
0.0568987
0.122479
0.211633
0.320479
0.490762
-0.307056
-0.0928719
-0.0446015
-0.0271731
-0.0180968
-0.0138632
-0.0124642
-0.0124852
-0.0132659
-0.0145737
-0.0163412
-0.0185696
-0.0212963
-0.0245687
-0.0284126
-0.0327932
-0.0375642
-0.0424064
-0.0467591
-0.0497509
-0.0501633
-0.046394
-0.0360279
-0.0164729
0.0154817
0.0647036
0.13809
0.253209
0.429055
0.773317
)
;

boundaryField
{
    movingWall
    {
        type            zeroGradient;
    }
    fixedWalls
    {
        type            zeroGradient;
    }
    frontAndBack
    {
        type            empty;
    }
}


// ************************************************************************* //
