/*--------------------------------*- C++ -*----------------------------------*\
  =========                 |
  \\      /  F ield         | OpenFOAM: The Open Source CFD Toolbox
   \\    /   O peration     | Website:  https://openfoam.org
    \\  /    A nd           | Version:  7
     \\/     M anipulation  |
\*---------------------------------------------------------------------------*/
FoamFile
{
    version     2.0;
    format      ascii;
    class       surfaceScalarField;
    location    "0.81";
    object      phi;
}
// * * * * * * * * * * * * * * * * * * * * * * * * * * * * * * * * * * * * * //

dimensions      [0 3 -1 0 0 0 0];

internalField   nonuniform List<scalar> 
3784
(
-0.00247116
0.00247117
-0.00227784
-0.000193318
-0.000849835
-0.00142801
-1.56559e-05
-0.00083418
0.000331711
-0.000347366
0.00081757
-0.00048586
0.00122498
-0.000407412
0.00125247
-2.74906e-05
0.000675405
0.000577069
-0.000238552
0.000913957
-0.000896397
0.000657846
-0.000802406
-9.39906e-05
0.000219509
-0.00102192
0.00149566
-0.00127615
0.0016722
-0.00017654
0.000402484
0.00126972
-0.000997135
0.00139962
-0.00138973
0.000392599
-0.000539899
-0.000849835
0.00100192
-0.00154181
0.0017426
-0.000740679
0.000771002
0.000971594
-0.00078718
0.00155818
-0.00137921
0.000592025
-0.000500471
-0.000878735
0.000937097
-0.00143757
0.00155074
-0.000613645
0.000675065
0.000875676
-0.000843912
0.00151898
-0.00165461
0.000810699
-0.00106334
-0.000591272
0.000433276
-0.00149661
0.00150261
-0.00106934
0.00100432
0.000498288
-0.000500959
0.00150528
-0.00153002
0.00102906
-0.00115287
-0.000377146
0.000284261
-0.00143713
0.00153611
-0.00125185
0.00139477
0.000141337
-2.57572e-06
0.00139735
-0.00129384
0.00129127
-0.00124722
-4.66207e-05
-0.00124722
-0.00340197
0.00587313
-0.00340508
-0.000190198
-0.000972915
-0.00386017
-4.85915e-05
-0.0017585
0.000194156
-0.000590117
0.000816842
-0.00110855
0.00129214
-0.00088271
0.00128908
-2.44324e-05
0.000706932
0.00115922
-8.47361e-05
0.00170562
-0.000917424
0.00149053
-0.00120629
0.000194875
0.000164685
-0.00239289
0.00186345
-0.00297491
0.00166121
2.56959e-05
0.000390048
0.00254087
-0.00080741
0.00259708
-0.00174386
0.00132905
-0.000844729
-0.00174896
0.00137819
-0.00376474
0.0018092
-0.00117168
0.000665799
0.00211499
-0.000612663
0.00283664
-0.00165493
0.00163429
-0.000786893
-0.00174677
0.00134763
-0.00357209
0.00170102
-0.000967039
0.000530834
0.00204587
-0.00068135
0.00273116
-0.00182345
0.00195279
-0.00150946
-0.00090526
0.000677833
-0.0036839
0.00176804
-0.00215954
0.00084624
0.00142009
-0.000389686
0.00274121
-0.00156154
0.00220091
-0.00161597
-0.000322719
0.000423559
-0.00347666
0.00192195
-0.00275024
0.00125491
0.000808378
3.89878e-05
0.00261327
-0.00120282
0.00253307
-0.00171952
0.000470073
-0.00296674
-0.00320096
0.00907409
-0.00370118
0.000310025
-0.00141928
-0.00614208
-0.000105601
-0.00307218
0.000279168
-0.000974881
0.000888401
-0.00171778
0.00138806
-0.00138238
0.00130343
6.01979e-05
0.000542427
0.00192023
-0.000434501
0.00268255
-0.00133069
0.00238671
-0.00138063
0.000244823
0.000396764
-0.00417029
0.00226485
-0.004843
0.00192692
0.000363621
0.000360532
0.00410727
-0.00113271
0.00409032
-0.00206226
0.00225859
-0.000796574
-0.00301465
0.00171199
-0.0062733
0.00206622
-0.00152591
0.000612766
0.00356845
-0.000955518
0.00440493
-0.00204067
0.00271945
-0.000923739
-0.00286371
0.00156902
-0.00606485
0.00208863
-0.00148665
0.000745116
0.00338938
-0.000834276
0.00431055
-0.00215808
0.0032766
-0.00162861
-0.00143474
0.000913037
-0.00622555
0.00213555
-0.00338206
0.00106552
0.00249012
-0.00049489
0.00430162
-0.00189303
0.00359906
-0.00182208
-0.000393674
0.000550599
-0.00584934
0.0022318
-0.00443144
0.00143413
0.00160604
-0.000124468
0.00417187
-0.00161604
0.00402465
-0.00203567
0.0008897
-0.00500241
-0.0024794
0.0115535
-0.00336356
0.00119419
-0.00191132
-0.00759432
-0.000583914
-0.00439959
4.21306e-05
-0.00160093
0.000558408
-0.00223406
0.00090326
-0.00172723
0.000753963
0.000209495
0.000141314
0.00253288
-0.000538066
0.00336193
-0.00107245
0.0029211
-0.000923598
9.59704e-05
0.000467959
-0.00556185
0.0017181
-0.00609314
0.00135214
0.00072959
0.000248048
0.00521135
-0.000796543
0.00513492
-0.00141753
0.00287959
-0.000437134
-0.00399505
0.00126536
-0.00797579
0.00133224
-0.00159279
0.000265842
0.00463484
-0.000739452
0.00541022
-0.00144412
0.00342412
-0.00063642
-0.00367141
0.00111882
-0.00782009
0.00149581
-0.00186365
0.000562221
0.00432297
-0.000549255
0.00542203
-0.00150135
0.0042287
-0.00108153
-0.00185456
0.000709845
-0.00801692
0.00148677
-0.00415898
0.000715583
0.0032613
-0.00032876
0.00534597
-0.00130268
0.00457298
-0.00122723
-0.000469128
0.000440131
-0.0075167
0.00154061
-0.00553192
0.000890018
0.00225664
-0.000204541
0.00526643
-0.00118878
0.00500889
-0.00143034
0.00113127
-0.00643275
-0.00175853
0.013312
-0.00294888
0.00238453
-0.00231861
-0.0082246
-0.00114413
-0.00557407
-0.000339202
-0.00240585
6.27756e-05
-0.00263603
0.000246272
-0.00191072
8.9253e-05
0.000366514
-0.00027068
0.00289281
-0.000610156
0.00370141
-0.000775004
0.00308595
-0.000443142
-0.00023589
0.000496415
-0.00650141
0.00108289
-0.00667961
0.000702918
0.00110956
0.00014608
0.00576819
-0.00040463
0.00568563
-0.000732257
0.00320721
-5.73845e-05
-0.00466992
0.000767249
-0.00880042
0.000568866
-0.00139441
1.0566e-05
0.00519314
-0.000461324
0.00588211
-0.00081877
0.00378157
-0.00034091
-0.00414927
0.000636356
-0.00879735
0.000829834
-0.00205712
0.000350093
0.00480271
-0.000262098
0.00603422
-0.000768843
0.00473544
-0.000484777
-0.00213863
0.000487175
-0.00898887
0.000811024
-0.00448283
0.000351026
0.00372129
-0.000159101
0.00585609
-0.00062892
0.0050428
-0.00059811
-0.000499939
0.000315511
-0.00843032
0.000824649
-0.00604106
0.000346215
0.00273507
-0.000223358
0.005836
-0.000668451
0.00545398
-0.000791018
0.00125383
-0.00722377
-0.000966604
0.0142786
-0.00236306
0.00378099
-0.00255088
-0.00803679
-0.00168607
-0.00643887
-0.000847428
-0.0032445
-0.00054851
-0.00293495
-0.0005043
-0.00195493
-0.000598732
0.000460946
-0.000603097
0.00289718
-0.000531532
0.00362984
-0.000365524
0.00291994
3.35969e-05
-0.000635008
0.000440762
-0.00690857
0.000374684
-0.00661354
6.29899e-05
0.00142126
4.15088e-05
0.00578967
-2.55407e-06
0.00572969
-1.136e-06
0.0032058
0.000292981
-0.00496404
0.000263075
-0.00877052
-0.000114968
-0.00101636
-0.000165878
0.00524405
-0.000123541
0.00583977
-0.000117113
0.00377514
-3.13934e-05
-0.00423499
0.000124802
-0.00895355
0.00011057
-0.00204289
7.68522e-05
0.00483643
2.8715e-05
0.00608235
9.10805e-06
0.00475505
0.000114704
-0.00224422
0.000244722
-0.00911889
9.10584e-05
-0.00432917
-1.05868e-05
0.00382294
1.99228e-05
0.00582558
4.06089e-05
0.00502212
4.4513e-05
-0.000503843
0.000170073
-0.00855588
9.14978e-05
-0.00596248
-0.000126026
0.0029526
-0.000162815
0.00587279
-0.000125412
0.00541658
-0.000150709
0.00127913
-0.00737448
-0.000106925
0.0143855
-0.00148153
0.0051556
-0.0024422
-0.00707612
-0.00209525
-0.00678582
-0.00138505
-0.0039547
-0.00117894
-0.00314105
-0.00121072
-0.00192316
-0.00114904
0.000399268
-0.000813025
0.00256117
-0.00038236
0.00319918
2.68202e-05
0.00251076
0.000457686
-0.00106587
0.000277655
-0.00672854
-0.000357591
-0.00597829
-0.000507499
0.00157117
-4.67539e-05
0.00532892
0.000389833
0.0052931
0.000694408
0.00290122
0.000557032
-0.00482666
-0.000236477
-0.00797701
-0.000660051
-0.000592787
-0.000270622
0.00485462
0.000239287
0.00532987
0.000551258
0.00346317
0.000254189
-0.00393792
-0.000353962
-0.0083454
-0.000569387
-0.00182747
-0.000211914
0.00447896
0.000296566
0.00557387
0.000722354
0.00432926
0.000621879
-0.00214375
-3.65676e-05
-0.00846045
-0.000559795
-0.00380594
-0.000334876
0.00359802
0.000193221
0.00529749
0.00064541
0.00456993
0.000619132
-0.000477565
-7.94276e-07
-0.00793595
-0.00057451
-0.00538876
-0.00049775
0.00287583
-5.14926e-05
0.00542653
0.000382276
0.00498281
0.000480153
0.00118125
-0.00689432
0.000907996
0.0134775
-0.000150112
0.0062137
-0.00183676
-0.00538947
-0.00217449
-0.00644809
-0.00178254
-0.00434665
-0.00168867
-0.00323491
-0.00172621
-0.00188562
-0.00149455
0.000167605
-0.000897102
0.00196372
-0.000233985
0.00253606
0.000390088
0.00188669
0.000745626
-0.00142141
2.49396e-05
-0.00600785
-0.00104331
-0.00491004
-0.000953721
0.00148158
-9.47028e-05
0.0044699
0.000739535
0.00445887
0.00127714
0.00236362
0.000686618
-0.00423614
-0.000695098
-0.00659529
-0.00101395
-0.000273931
-0.000300328
0.004141
0.000567631
0.00446191
0.0011021
0.0029287
0.000480927
-0.00331675
-0.000777382
-0.00708709
-0.00105816
-0.0015467
-0.000420056
0.00384086
0.000507484
0.00464633
0.00121264
0.0036241
0.000974618
-0.00190572
-0.000330843
-0.00715499
-0.00107802
-0.00305876
-0.000573614
0.00309361
0.00032883
0.00439504
0.00105201
0.00384675
0.00106226
-0.000487809
-0.000178065
-0.00669564
-0.00114162
-0.00442521
-0.000771049
0.00250527
5.1328e-05
0.00460415
0.00078925
0.00424489
0.00100069
0.00096982
-0.00589364
0.00194612
0.0115314
0.00155768
0.00660214
-0.000645313
-0.00318649
-0.00173368
-0.00535973
-0.00183511
-0.00424522
-0.00191437
-0.00315565
-0.00194393
-0.00185606
-0.00159151
-0.000184814
-0.000850888
0.00122309
-5.43107e-05
0.00173948
0.000672523
0.00115986
0.000846342
-0.00159522
-0.000292507
-0.00486901
-0.00155482
-0.00364773
-0.00119782
0.00112458
-0.000120319
0.0033924
0.000907572
0.00343098
0.00161738
0.00165381
0.000665979
-0.00328474
-0.00103752
-0.00489179
-0.0011776
-0.000133843
-0.000288154
0.00325155
0.000749811
0.00342394
0.00144451
0.002234
0.000628055
-0.00250029
-0.00105357
-0.00540547
-0.00138452
-0.00121575
-0.000520624
0.00297697
0.000622988
0.00350272
0.00149118
0.00275591
0.00113322
-0.00154776
-0.000588964
-0.00543281
-0.00141567
-0.00223205
-0.000689555
0.00236749
0.000399054
0.00330643
0.00128566
0.00296014
0.00130195
-0.000504099
-0.000328178
-0.0050655
-0.00151036
-0.00324303
-0.000892892
0.0018878
0.000127857
0.00358341
0.00102596
0.00334678
0.00136901
0.000626766
-0.00452462
0.00259448
0.00893695
0.00311244
0.00608419
0.000917079
-0.000991124
-0.000737956
-0.00370469
-0.00140159
-0.00358158
-0.00173738
-0.00281987
-0.00181521
-0.00177822
-0.0014486
-0.000551422
-0.000712061
0.000486552
9.80677e-05
0.000929353
0.000794878
0.000463044
0.00074107
-0.00154141
-0.000585445
-0.00354249
-0.0017747
-0.00245849
-0.00129551
0.000645395
-0.000159021
0.00225592
0.000942074
0.00232988
0.00160614
0.000989748
0.000523227
-0.00220182
-0.00120031
-0.00316826
-0.00125435
-7.98001e-05
-0.000282572
0.00227977
0.000761448
0.00237992
0.0015007
0.00149475
0.000661962
-0.00166155
-0.00113462
-0.00360889
-0.0014791
-0.000871262
-0.000504815
0.00200268
0.000597274
0.00240063
0.00152523
0.00182795
0.00110286
-0.00112539
-0.000712099
-0.00361785
-0.00147667
-0.00146748
-0.000658613
0.00154944
0.000392142
0.00225568
0.00135607
0.00199621
0.0013154
-0.000463422
-0.000404979
-0.00334513
-0.0015649
-0.00208312
-0.000895771
0.00121868
0.000182454
0.00250518
0.00117833
0.00235091
0.00148794
0.000317155
-0.00303668
0.00257223
0.00636471
0.00373529
0.00492113
0.00224043
0.000503737
0.000505685
-0.00196995
-0.000554441
-0.00252145
-0.00115746
-0.00221685
-0.0013648
-0.00157088
-0.00111079
-0.000805434
-0.000510128
-0.000114105
0.000199024
0.000220201
0.000746155
-8.40931e-05
0.000495689
-0.00129095
-0.000756384
-0.00229042
-0.00166707
-0.0015478
-0.00122444
0.000202761
-0.000206592
0.00123807
0.000784791
0.0013385
0.00127594
0.000498598
0.000317475
-0.00124335
-0.00112836
-0.00172242
-0.00115832
-4.98413e-05
-0.000243603
0.00136505
0.000664077
0.00147225
0.00129367
0.000865157
0.000578571
-0.000946452
-0.00100171
-0.0020286
-0.00131962
-0.000553353
-0.000441637
0.00112469
0.000519107
0.00143988
0.00132498
0.00102207
0.00090742
-0.000707825
-0.000670833
-0.00203959
-0.00127642
-0.000861897
-0.000564159
0.000837177
0.000349776
0.00134174
0.0012134
0.00113258
0.00109636
-0.00034637
-0.000388472
-0.0018603
-0.00132522
-0.00114637
-0.000775929
0.000669389
0.000200803
0.00152845
0.00113284
0.00141887
0.00132466
0.000125336
-0.00171202
0.00211537
0.00424934
0.00346512
0.00357138
0.00274506
0.00122379
0.00146888
-0.000693759
0.000356714
-0.00140929
-0.000378282
-0.00148185
-0.000710384
-0.00123878
-0.000646256
-0.000869564
-0.000240892
-0.000519471
0.000271564
-0.000292256
0.000605157
-0.000417687
0.000272204
-0.000957995
-0.000689937
-0.00132827
-0.00129536
-0.000942367
-0.000987758
-0.000104842
-0.000235725
0.000486043
0.00049923
0.000603543
0.000798048
0.000199781
0.000122165
-0.000567472
-0.000851963
-0.000748293
-0.000879244
-2.256e-05
-0.000190299
0.000676114
0.000493334
0.000788615
0.000924238
0.000434252
0.000408434
-0.000430648
-0.000705165
-0.000915004
-0.000957946
-0.000300573
-0.000330675
0.000497419
0.000394623
0.000714585
0.000956947
0.00045975
0.000616578
-0.000367456
-0.000486055
-0.000936958
-0.000905123
-0.000442832
-0.00041552
0.000347573
0.0002716
0.000654622
0.000886407
0.000517774
0.000737686
-0.000197649
-0.000287029
-0.000835592
-0.000915027
-0.000518374
-0.000556475
0.000310839
0.00018088
0.000791101
0.000880535
0.000719217
0.000953797
5.2073e-05
-0.00075823
0.0013344
0.00291494
0.00249147
0.00241431
0.0024991
0.00121616
0.00173197
7.3374e-05
0.000898345
-0.000575667
0.000261127
-0.000844641
-8.90223e-05
-0.000888632
-0.000140302
-0.000818285
3.78698e-05
-0.000697646
0.000316252
-0.000570643
0.000450111
-0.000551545
0.000160329
-0.000668207
-0.000440864
-0.000727076
-0.000813963
-0.00056927
-0.000672453
-0.000246351
-0.000229271
4.28654e-05
0.000219805
0.000154468
0.000372422
4.7159e-05
-1.92209e-06
-0.00019313
-0.000511683
-0.000238531
-0.000539611
5.3711e-06
-0.000133874
0.000270379
0.000302761
0.00035198
0.000535836
0.000201176
0.000228274
-0.000123084
-0.000380584
-0.000306143
-0.000550208
-0.00013095
-0.000204479
0.000151687
0.000250035
0.000260069
0.000555826
0.000153958
0.000334008
-0.00014564
-0.00026634
-0.000336609
-0.000517346
-0.000191829
-0.000258005
8.82311e-05
0.000169634
0.000226984
0.000511468
0.000175938
0.000390247
-7.64296e-05
-0.000164417
-0.000280928
-0.000511527
-0.000171263
-0.000326705
0.00012602
0.000129764
0.000334633
0.000543377
0.000305604
0.000543939
5.1512e-05
-0.000214292
0.000831116
0.00208382
0.00151649
0.00172893
0.00172693
0.00100572
0.00140919
0.000391115
0.000954592
-0.000121069
0.000545928
-0.000435977
0.000286092
-0.000628802
0.000187752
-0.000719949
0.000211866
-0.00072176
0.000291048
-0.000649821
0.000293339
-0.000553836
0.000105818
-0.000480684
-0.000195086
-0.000426168
-0.00040081
-0.000363545
-0.000380335
-0.000266826
-0.000185839
-0.000151628
3.35288e-05
-6.49001e-05
0.000101431
-2.07467e-05
-5.27263e-05
-3.89736e-05
-0.000257284
-3.39704e-05
-0.000268745
1.6832e-05
-8.67621e-05
8.83951e-05
0.000138273
0.000126945
0.000243676
9.57738e-05
0.000103836
1.67577e-05
-0.000153997
-4.83092e-05
-0.000245258
-3.96934e-05
-0.000104687
1.11109e-05
0.000114672
4.07107e-05
0.0002429
2.57314e-05
0.000134003
-3.67439e-05
-0.000118453
-8.41522e-05
-0.000242205
-6.80775e-05
-0.000138196
-1.57794e-05
6.66604e-05
2.21271e-05
0.000214139
2.84578e-05
0.000148496
-1.07854e-05
-8.70979e-05
-4.5332e-05
-0.000236724
-2.16356e-05
-0.000161274
5.05715e-05
6.27712e-05
0.000110589
0.000254081
0.000114292
0.00023653
6.90631e-05
2.22398e-05
0.000566043
0.00151778
0.000943377
0.0013516
0.00107357
0.000875531
0.00100663
0.000458052
0.000779672
0.000105883
0.000561022
-0.000217325
0.000387407
-0.000455186
0.000272429
-0.000604975
0.000206932
-0.000656264
0.000169407
-0.000612291
0.000121492
-0.000505917
3.41738e-05
-0.000393369
-7.8212e-05
-0.000313783
-0.000166167
-0.000275586
-0.000184364
-0.000248627
-0.000132913
-0.00020308
-6.4951e-05
-0.000132863
-2.91332e-05
-5.65651e-05
-6.17684e-05
-6.33903e-06
-0.000114571
1.88317e-05
-0.000115873
1.81316e-05
-5.21866e-05
2.47084e-05
3.4434e-05
4.03284e-05
7.46398e-05
5.55714e-05
3.86618e-05
5.27346e-05
-4.01822e-05
3.05311e-05
-7.65074e-05
-3.37254e-06
-4.26876e-05
-2.27114e-05
2.40897e-05
-2.60648e-05
5.98343e-05
-1.00096e-05
2.48569e-05
-1.76676e-06
-5.26363e-05
-6.66091e-06
-9.59512e-05
-2.47636e-05
-7.28572e-05
-3.88733e-05
-1.14558e-05
-3.92719e-05
3.32667e-05
-1.62642e-05
1.30358e-05
9.44543e-06
-5.28055e-05
2.05111e-05
-9.38405e-05
1.94007e-05
-6.79913e-05
2.4722e-05
7.34357e-06
3.52563e-05
7.0464e-05
5.11727e-05
6.52812e-05
7.42441e-05
8.75212e-05
0.000433432
0.00108435
0.000725759
0.00105926
0.000825316
0.000775975
0.000801308
0.000482062
0.000708756
0.000198432
0.000546278
-5.48513e-05
0.000389957
-0.000298863
0.000244663
-0.000459679
0.00012066
-0.000532261
2.82958e-05
-0.000519927
-2.8323e-05
-0.000449298
-6.20847e-05
-0.000359608
-8.41945e-05
-0.000291673
-0.000104313
-0.000255464
-0.000118607
-0.000234329
-0.000119591
-0.000202097
-0.00010658
-0.000145877
-8.59939e-05
-7.71513e-05
-7.18233e-05
-2.05113e-05
-6.03017e-05
7.30732e-06
-5.10108e-05
8.8406e-06
-3.32854e-05
6.98548e-06
-8.5662e-06
1.56127e-05
1.17165e-05
3.52892e-05
1.73855e-05
4.70605e-05
9.42181e-06
3.84891e-05
-4.76259e-06
1.0811e-05
-1.09166e-05
-1.65555e-05
-1.14467e-05
-2.55327e-05
-8.46339e-06
-1.29913e-05
-1.29614e-05
2.73064e-06
-2.39916e-05
4.36791e-06
-3.6642e-05
-1.21123e-05
-4.30334e-05
-3.248e-05
-4.50499e-05
-3.72524e-05
-4.10472e-05
-2.02659e-05
-3.92329e-05
7.62869e-06
-4.35706e-05
2.48479e-05
-4.97018e-05
2.55353e-05
-4.43033e-05
1.93264e-05
-2.97984e-05
2.07516e-05
-1.5894e-05
3.72702e-05
-7.27855e-06
6.56287e-05
8.02415e-05
0.000329682
0.000754668
0.000601238
0.000787706
0.000736013
0.000641195
0.000761982
0.000456095
0.000708968
0.000251448
0.000607869
4.62467e-05
0.000446401
-0.000137395
0.000276659
-0.000289933
0.000119281
-0.00037488
-3.20359e-06
-0.000397445
-7.95817e-05
-0.000372922
-0.000111423
-0.000327765
-0.000118335
-0.000284758
-0.000121103
-0.000252694
-0.000128795
-0.000226637
-0.000136398
-0.000194496
-0.000133143
-0.000149134
-0.0001138
-9.64945e-05
-8.40024e-05
-5.03109e-05
-5.51202e-05
-2.15767e-05
-3.63072e-05
-9.96983e-06
-2.47795e-05
-4.53903e-06
-1.41894e-05
5.02136e-06
1.15712e-06
1.99385e-05
1.84828e-05
2.97304e-05
2.92387e-05
2.77303e-05
2.69416e-05
1.31088e-05
1.37784e-05
-3.38978e-06
-1.21948e-06
-1.05343e-05
-7.63559e-06
-6.57575e-06
-6.37365e-06
1.46864e-06
-4.00047e-06
1.9958e-06
-8.77663e-06
-7.3334e-06
-2.26661e-05
-1.85894e-05
-3.82611e-05
-2.1658e-05
-4.71675e-05
-1.13596e-05
-4.4766e-05
5.22748e-06
-3.77326e-05
1.7814e-05
-3.38164e-05
2.16207e-05
-3.44469e-05
1.99615e-05
-3.60451e-05
2.23496e-05
-3.34725e-05
3.46957e-05
-2.08129e-05
5.29704e-05
5.94297e-05
0.000237061
0.000517607
0.000465213
0.000559555
0.000620749
0.000485656
0.000697221
0.000379622
0.000699176
0.000249495
0.000637173
0.000108252
0.000528124
-2.83449e-05
0.000379738
-0.000141546
0.00022789
-0.000223032
9.67649e-05
-0.000266321
1.98844e-06
-0.000278146
-5.61554e-05
-0.000269619
-8.91437e-05
-0.000251766
-0.000109739
-0.000232099
-0.000126107
-0.000210272
-0.00013757
-0.000183035
-0.000137595
-0.000149108
-0.000122424
-0.000111666
-9.56349e-05
-7.71019e-05
-6.65716e-05
-5.06394e-05
-4.36455e-05
-3.28932e-05
-2.79326e-05
-2.02521e-05
-1.45693e-05
-8.3471e-06
2.19787e-06
3.16621e-06
2.0376e-05
1.15503e-05
3.46583e-05
1.34471e-05
3.85892e-05
9.17715e-06
3.24445e-05
2.75521e-06
2.301e-05
-1.09974e-06
1.67513e-05
-3.16763e-07
1.62502e-05
1.9706e-06
1.65294e-05
1.71733e-06
1.15464e-05
-2.34957e-06
-2.9263e-07
-6.7505e-06
-1.46478e-05
-7.30438e-06
-2.39551e-05
-2.05303e-06
-2.5617e-05
6.8923e-06
-2.27586e-05
1.49589e-05
-2.07074e-05
1.95669e-05
-2.25749e-05
2.18276e-05
-2.60761e-05
2.58513e-05
-2.49486e-05
3.35671e-05
-1.51175e-05
4.31395e-05
4.43139e-05
0.00016578
0.000351825
0.000339228
0.000386106
0.000478817
0.000346067
0.000572741
0.0002857
0.000613933
0.000208304
0.000601686
0.000120499
0.000542482
3.08601e-05
0.000448243
-4.73057e-05
0.000338097
-0.000112886
0.000229499
-0.000157723
0.000135264
-0.00018391
6.07917e-05
-0.000195146
5.01729e-06
-0.000195992
-3.74796e-05
-0.000189603
-7.02008e-05
-0.000177552
-9.29936e-05
-0.000160241
-0.000103786
-0.000138316
-0.000101523
-0.000113931
-8.87728e-05
-8.9852e-05
-7.08094e-05
-6.86e-05
-5.27305e-05
-5.09719e-05
-3.67165e-05
-3.62714e-05
-2.1373e-05
-2.36962e-05
-5.23999e-06
-1.29696e-05
1.10956e-05
-4.78723e-06
2.44682e-05
7.21249e-08
3.20044e-05
1.64e-06
3.33113e-05
1.44798e-06
3.09245e-05
1.28662e-06
2.84191e-05
2.18916e-06
2.71624e-05
3.22791e-06
2.54278e-05
3.45105e-06
2.0499e-05
2.57725e-06
1.20755e-05
1.67197e-06
2.16236e-06
2.6106e-06
-6.05976e-06
6.16972e-06
-9.83625e-06
1.06682e-05
-1.08518e-05
1.59776e-05
-1.15798e-05
2.02941e-05
-1.37142e-05
2.39571e-05
-1.57193e-05
2.78551e-05
-1.46801e-05
3.25299e-05
-8.85314e-06
3.73148e-05
3.54616e-05
0.000116866
0.000234959
0.000243341
0.00025963
0.000352807
0.000236602
0.000436775
0.000201733
0.000488418
0.000156661
0.000504173
0.000104743
0.000484649
5.03852e-05
0.000440507
-3.16391e-06
0.000373387
-4.57659e-05
0.000298988
-8.33253e-05
0.00022495
-0.000109873
0.000156956
-0.000127152
9.73888e-05
-0.000136426
4.67584e-05
-0.000138973
5.03713e-06
-0.000135829
-2.73179e-05
-0.000127884
-4.94709e-05
-0.000116164
-6.14815e-05
-0.000101923
-6.45542e-05
-8.67776e-05
-6.12875e-05
-7.18643e-05
-5.43032e-05
-5.796e-05
-4.52879e-05
-4.5294e-05
-3.49377e-05
-3.40495e-05
-2.35536e-05
-2.43545e-05
-1.19473e-05
-1.63972e-05
-1.56521e-06
-1.03133e-05
6.02711e-06
-5.95177e-06
1.04331e-05
-2.95729e-06
1.25166e-05
-7.978e-07
1.33248e-05
1.38008e-06
1.33876e-05
3.16376e-06
1.23291e-05
4.50912e-06
9.34316e-06
5.56297e-06
4.2503e-06
6.76261e-06
-1.70446e-06
8.56709e-06
-6.65475e-06
1.11238e-05
-9.99153e-06
1.40027e-05
-1.11166e-05
1.71009e-05
-1.18201e-05
2.09995e-05
-1.22137e-05
2.43511e-05
-1.18845e-05
2.75256e-05
-9.88155e-06
3.05286e-05
-5.59233e-06
3.3028e-05
2.98698e-05
8.32094e-05
0.00015175
0.000174413
0.000168426
0.000255774
0.000155241
0.00032209
0.000135417
0.000368922
0.000109827
0.000393576
8.0087e-05
0.000395696
4.82639e-05
0.000376027
1.65057e-05
0.000342997
-1.27362e-05
0.000297517
-3.78471e-05
0.000246889
-5.92456e-05
0.000194977
-7.5241e-05
0.000144749
-8.61986e-05
9.8232e-05
-9.2455e-05
5.68623e-05
-9.44581e-05
2.17368e-05
-9.27596e-05
-6.38843e-06
-8.80408e-05
-2.72078e-05
-8.11035e-05
-4.13221e-05
-7.26619e-05
-4.96833e-05
-6.35046e-05
-5.34891e-05
-5.41602e-05
-5.36996e-05
-4.50883e-05
-5.12339e-05
-3.65163e-05
-4.68841e-05
-2.87061e-05
-4.1453e-05
-2.18323e-05
-3.58064e-05
-1.59608e-05
-3.07112e-05
-1.10456e-05
-2.66935e-05
-6.97606e-06
-2.38073e-05
-3.68471e-06
-2.16384e-05
-7.88313e-07
-2.02467e-05
1.76892e-06
-1.96952e-05
3.95609e-06
-2.00763e-05
5.94753e-06
-2.1227e-05
7.91284e-06
-2.26248e-05
9.96292e-06
-2.36482e-05
1.21504e-05
-2.39138e-05
1.42697e-05
-2.32808e-05
1.64657e-05
-2.15388e-05
1.92578e-05
-1.89846e-05
2.17997e-05
-1.55545e-05
2.40978e-05
-1.10685e-05
2.60437e-05
-5.53367e-06
2.74938e-05
2.43362e-05
5.85715e-05
9.31788e-05
0.000123139
0.000103858
0.00018176
9.6621e-05
0.000231347
8.58297e-05
0.000269243
7.19289e-05
0.000293665
5.56633e-05
0.000303968
3.79612e-05
0.000300636
1.98386e-05
0.000286299
1.60071e-06
0.000262184
-1.37325e-05
0.000230996
-2.80578e-05
0.00019558
-3.98249e-05
0.000158255
-4.8873e-05
0.000120993
-5.51914e-05
8.54195e-05
-5.88843e-05
5.28246e-05
-6.01657e-05
2.4131e-05
-5.93479e-05
-1.59742e-07
-5.68123e-05
-1.98554e-05
-5.29671e-05
-3.51797e-05
-4.81842e-05
-4.64921e-05
-4.28514e-05
-5.43302e-05
-3.72505e-05
-5.92048e-05
-3.16419e-05
-6.16828e-05
-2.62314e-05
-6.2348e-05
-2.1169e-05
-6.17596e-05
-1.65459e-05
-6.04072e-05
-1.23962e-05
-5.86739e-05
-8.71276e-06
-5.68649e-05
-5.49417e-06
-5.50376e-05
-2.61215e-06
-5.31778e-05
-9.28462e-08
-5.14203e-05
2.19504e-06
-4.97358e-05
4.26638e-06
-4.80137e-05
6.19358e-06
-4.6079e-05
8.02626e-06
-4.36188e-05
9.69062e-06
-4.07915e-05
1.14452e-05
-3.75085e-05
1.31835e-05
-3.3112e-05
1.4861e-05
-2.78017e-05
1.649e-05
-2.15915e-05
1.78891e-05
-1.45726e-05
1.90261e-05
-6.91693e-06
1.98391e-05
1.74197e-05
3.71803e-05
5.59978e-05
7.83864e-05
6.26509e-05
0.000116404
5.86056e-05
0.000149606
5.26276e-05
0.000176583
4.49498e-05
0.000196313
3.59323e-05
0.000208262
2.6013e-05
0.000212443
1.56587e-05
0.000208868
5.17633e-06
0.000199568
-4.4331e-06
0.000184648
-1.31373e-05
0.000165638
-2.08154e-05
0.000143823
-2.70575e-05
0.000120438
-3.18063e-05
9.65982e-05
-3.50455e-05
7.32702e-05
-3.68385e-05
5.12313e-05
-3.73089e-05
3.10481e-05
-3.66294e-05
1.30802e-05
-3.50017e-05
-2.46965e-06
-3.26383e-05
-1.55921e-05
-2.97301e-05
-2.63551e-05
-2.64857e-05
-3.4931e-05
-2.30658e-05
-4.15472e-05
-1.96181e-05
-4.64642e-05
-1.62524e-05
-4.99505e-05
-1.30552e-05
-5.22671e-05
-1.00776e-05
-5.36389e-05
-7.34444e-06
-5.42794e-05
-4.85469e-06
-5.437e-05
-2.51828e-06
-5.38127e-05
-6.50548e-07
-5.27524e-05
1.13118e-06
-5.13572e-05
2.8719e-06
-4.93823e-05
4.22136e-06
-4.69053e-05
5.54922e-06
-4.3995e-05
6.77979e-06
-4.05233e-05
7.97496e-06
-3.64177e-05
9.07958e-06
-3.16411e-05
1.00849e-05
-2.61299e-05
1.09788e-05
-1.99835e-05
1.17427e-05
-1.33019e-05
1.23449e-05
-6.21997e-06
1.27575e-05
1.11997e-05
2.31984e-05
3.27985e-05
4.91494e-05
3.67016e-05
7.3423e-05
3.4336e-05
9.51867e-05
3.08654e-05
0.000113718
2.6419e-05
0.000128457
2.11955e-05
0.000139045
1.54274e-05
0.000145324
9.38055e-06
0.000147395
3.10637e-06
0.000145557
-2.59533e-06
0.000140263
-7.84153e-06
0.000132004
-1.25556e-05
0.000121422
-1.64751e-05
0.000109145
-1.95301e-05
9.57899e-05
-2.16903e-05
8.1924e-05
-2.29722e-05
6.8047e-05
-2.34309e-05
5.4571e-05
-2.31531e-05
4.18143e-05
-2.22467e-05
3.00063e-05
-2.08324e-05
1.9312e-05
-1.90354e-05
9.80025e-06
-1.6971e-05
1.48739e-06
-1.47517e-05
-5.6622e-06
-1.24698e-05
-1.17009e-05
-1.02133e-05
-1.67118e-05
-8.04062e-06
-2.07911e-05
-5.99654e-06
-2.4031e-05
-4.10678e-06
-2.65363e-05
-2.35063e-06
-2.82743e-05
-7.78378e-07
-2.94692e-05
5.44514e-07
-3.00644e-05
1.72401e-06
-2.99872e-05
2.79385e-06
-2.94841e-05
3.71945e-06
-2.84847e-05
4.55017e-06
-2.70036e-05
5.29811e-06
-2.49986e-05
5.96993e-06
-2.24887e-05
6.57026e-06
-1.95032e-05
7.09979e-06
-1.60797e-05
7.55509e-06
-1.22688e-05
7.93123e-06
-8.14711e-06
8.22241e-06
-3.80205e-06
8.41162e-06
7.39631e-06
1.61639e-05
1.66345e-05
3.43788e-05
1.84899e-05
5.15793e-05
1.71395e-05
6.72625e-05
1.51834e-05
8.10639e-05
1.26188e-05
9.2651e-05
9.61159e-06
0.000101756
6.32487e-06
0.000108247
2.88932e-06
0.000111872
-5.18422e-07
0.000113029
-3.7521e-06
0.000111885
-6.69611e-06
0.000108603
-9.27186e-06
0.000103505
-1.13773e-05
9.69387e-05
-1.29634e-05
8.92599e-05
-1.40113e-05
8.0817e-05
-1.45284e-05
7.19334e-05
-1.45458e-05
6.28954e-05
-1.41142e-05
5.39461e-05
-1.32982e-05
4.52871e-05
-1.21745e-05
3.70723e-05
-1.08197e-05
2.94128e-05
-9.309e-06
2.2379e-05
-7.71657e-06
1.60149e-05
-6.10647e-06
1.03322e-05
-4.53059e-06
5.32737e-06
-3.03359e-06
9.79761e-07
-1.64776e-06
-2.74433e-06
-3.84329e-07
-5.82994e-06
7.33578e-07
-8.31204e-06
1.7044e-06
-1.02996e-05
2.53225e-06
-1.17942e-05
3.21682e-06
-1.27964e-05
3.79442e-06
-1.33511e-05
4.27381e-06
-1.3478e-05
4.67672e-06
-1.31922e-05
5.01125e-06
-1.25105e-05
5.28717e-06
-1.1457e-05
5.5159e-06
-1.00653e-05
5.70738e-06
-8.37714e-06
5.86587e-06
-6.44038e-06
5.99294e-06
-4.30611e-06
6.08616e-06
-2.03958e-06
6.14274e-06
5.35479e-06
1.15244e-05
5.11186e-06
2.45426e-05
5.47582e-06
3.69472e-05
4.73808e-06
4.83587e-05
3.77259e-06
5.85546e-05
2.42506e-06
6.74044e-05
7.6541e-07
7.46251e-05
-8.94157e-07
8.0081e-05
-2.56619e-06
8.37228e-05
-4.15929e-06
8.56238e-05
-5.65157e-06
8.58564e-05
-6.9268e-06
8.45452e-05
-7.95889e-06
8.18606e-05
-8.69132e-06
7.80078e-05
-9.10966e-06
7.32042e-05
-9.2069e-06
6.76736e-05
-8.99645e-06
6.16336e-05
-8.50386e-06
5.52836e-05
-7.76282e-06
4.88092e-05
-6.82386e-06
4.23906e-05
-5.7566e-06
3.61515e-05
-4.57997e-06
3.01957e-05
-3.35148e-06
2.46046e-05
-2.12469e-06
1.94267e-05
-9.2941e-07
1.47035e-05
1.92198e-07
1.04487e-05
1.22242e-06
6.68007e-06
2.12186e-06
3.3882e-06
2.90676e-06
5.66133e-07
3.55481e-06
-1.80144e-06
4.07252e-06
-3.73202e-06
4.46342e-06
-5.25991e-06
4.74405e-06
-6.3973e-06
4.93071e-06
-7.16553e-06
5.04142e-06
-7.58288e-06
5.09358e-06
-7.66391e-06
5.09131e-06
-7.43357e-06
5.05537e-06
-6.92143e-06
5.00206e-06
-6.15414e-06
4.93822e-06
-5.16577e-06
4.87535e-06
-3.99512e-06
4.8198e-06
-2.68499e-06
4.77327e-06
-1.28369e-06
4.73864e-06
4.07002e-06
7.69699e-06
-2.58321e-06
1.64082e-05
-3.23283e-06
2.47428e-05
-3.59569e-06
3.25637e-05
-4.04873e-06
3.95826e-05
-4.59141e-06
4.55279e-05
-5.17656e-06
5.03666e-05
-5.73157e-06
5.40133e-05
-6.21187e-06
5.6444e-05
-6.58853e-06
5.76278e-05
-6.83391e-06
5.76215e-05
-6.91883e-06
5.64891e-05
-6.82468e-06
5.43467e-05
-6.54743e-06
5.13309e-05
-6.09305e-06
4.7592e-05
-5.46742e-06
4.32853e-05
-4.68874e-06
3.85651e-05
-3.78227e-06
3.36036e-05
-2.80038e-06
2.8497e-05
-1.71749e-06
2.35396e-05
-8.00139e-07
1.87108e-05
2.48514e-07
1.41357e-05
1.22425e-06
9.85225e-06
2.15887e-06
5.91961e-06
3.00219e-06
2.37703e-06
3.73406e-06
-7.43169e-07
4.34333e-06
-3.441e-06
4.82076e-06
-5.70933e-06
5.17529e-06
-7.56056e-06
5.40609e-06
-9.00933e-06
5.52223e-06
-1.00808e-05
5.53603e-06
-1.07994e-05
5.46299e-06
-1.11849e-05
5.31591e-06
-1.12514e-05
5.10762e-06
-1.10111e-05
4.85306e-06
-1.04994e-05
4.57898e-06
-9.74168e-06
4.29646e-06
-8.75668e-06
4.0154e-06
-7.57435e-06
3.75388e-06
-6.22335e-06
3.52213e-06
-4.73455e-06
3.32874e-06
-3.1419e-06
3.17849e-06
-1.47949e-06
3.07448e-06
2.59051e-06
4.37645e-06
-6.95853e-06
9.28932e-06
-8.1443e-06
1.39828e-05
-8.28949e-06
1.8293e-05
-8.3589e-06
2.2052e-05
-8.3472e-06
2.51096e-05
-8.23099e-06
2.73718e-05
-7.99238e-06
2.87808e-05
-7.61949e-06
2.92996e-05
-7.10597e-06
2.89202e-05
-6.4536e-06
2.76706e-05
-5.66818e-06
2.56259e-05
-4.77873e-06
2.28805e-05
-3.80125e-06
1.95397e-05
-2.75205e-06
1.57485e-05
-1.67635e-06
1.16177e-05
-5.57819e-07
7.15529e-06
6.80601e-07
2.79335e-06
1.56171e-06
-1.42821e-06
2.50328e-06
-5.61085e-06
3.3811e-06
-9.53241e-06
4.16919e-06
-1.31514e-05
4.84315e-06
-1.63855e-05
5.39269e-06
-1.91942e-05
5.80995e-06
-2.1548e-05
6.08707e-06
-2.34291e-05
6.22479e-06
-2.48381e-05
6.23072e-06
-2.5778e-05
6.11575e-06
-2.62651e-05
5.89344e-06
-2.63246e-05
5.5824e-06
-2.59849e-05
5.19718e-06
-2.5277e-05
4.75546e-06
-2.42361e-05