/*--------------------------------*- C++ -*----------------------------------*\
  =========                 |
  \\      /  F ield         | OpenFOAM: The Open Source CFD Toolbox
   \\    /   O peration     | Website:  https://openfoam.org
    \\  /    A nd           | Version:  7
     \\/     M anipulation  |
\*---------------------------------------------------------------------------*/
FoamFile
{
    version     2.0;
    format      ascii;
    class       surfaceScalarField;
    location    "8.3";
    object      phi;
}
// * * * * * * * * * * * * * * * * * * * * * * * * * * * * * * * * * * * * * //

dimensions      [0 3 -1 0 0 0 0];

internalField   nonuniform List<scalar> 
1740
(
5.99162e-07
-5.99904e-07
-4.52432e-07
1.0516e-06
-3.30106e-06
2.84863e-06
-7.57805e-06
4.27698e-06
-1.28268e-05
5.24871e-06
-1.86527e-05
5.8259e-06
-2.47551e-05
6.10247e-06
-3.09091e-05
6.15399e-06
-3.69327e-05
6.02355e-06
-4.2657e-05
5.72429e-06
-4.79043e-05
5.24737e-06
-5.2476e-05
4.57168e-06
-5.61503e-05
3.67432e-06
-5.86915e-05
2.54118e-06
-5.98687e-05
1.17721e-06
-5.94835e-05
-3.85203e-07
-5.74018e-05
-2.08171e-06
-5.35926e-05
-3.80918e-06
-4.81577e-05
-5.43497e-06
-4.13499e-05
-6.80778e-06
-3.35738e-05
-7.77611e-06
-2.53618e-05
-8.21195e-06
-1.7327e-05
-8.03483e-06
-1.00956e-05
-7.23137e-06
-4.23091e-06
-5.86467e-06
-1.50882e-07
-4.08003e-06
1.98776e-06
-2.13864e-06
2.25281e-06
-2.65036e-07
1.16806e-06
1.08476e-06
1.16808e-06
-1.05302e-06
4.53116e-07
-5.78637e-06
5.78495e-06
-1.4251e-05
1.13133e-05
-2.5733e-05
1.57589e-05
-3.93928e-05
1.89086e-05
-5.44334e-05
2.08665e-05
-7.01692e-05
2.18383e-05
-8.60242e-05
2.20089e-05
-0.000101494
2.1493e-05
-0.0001161
2.03308e-05
-0.000129358
1.85049e-05
-0.000140752
1.59659e-05
-0.000149742
1.26641e-05
-0.000155782
8.58113e-06
-0.000158362
3.75782e-06
-0.000157083
-1.66439e-06
-0.000151688
-7.47723e-06
-0.000142172
-1.33246e-05
-0.000128823
-1.87842e-05
-0.000112251
-2.33796e-05
-9.33869e-05
-2.66403e-05
-7.34261e-05
-2.81728e-05
-5.37281e-05
-2.77328e-05
-3.56734e-05
-2.52861e-05
-2.04956e-05
-2.10425e-05
-9.1093e-06
-1.54663e-05
-1.98136e-06
-9.26659e-06
1.11299e-06
-3.3594e-06
1.14599e-06
1.05173e-06
2.31407e-06
-3.0667e-06
3.51982e-06
-1.20121e-05
1.47304e-05
-2.60437e-05
2.53448e-05
-4.41159e-05
3.38312e-05
-6.51035e-05
3.98961e-05
-8.79492e-05
4.37122e-05
-0.000111716
4.56055e-05
-0.000135582
4.58745e-05
-0.000158798
4.47093e-05
-0.000180646
4.21783e-05
-0.000200395
3.82544e-05
-0.00021729
3.28603e-05
-0.00023055
2.59243e-05
-0.000239408
1.74391e-05
-0.000243169
7.51864e-06
-0.000241276
-3.55726e-06
-0.000233409
-1.53439e-05
-0.000219579
-2.71548e-05
-0.000200193
-3.81702e-05
-0.000176099
-4.74734e-05
-0.000148579
-5.41599e-05
-0.000119283
-5.74693e-05
-9.00926e-05
-5.69231e-05
-6.29358e-05
-5.24429e-05
-3.95552e-05
-4.4423e-05
-2.12738e-05
-3.37477e-05
-8.77986e-06
-2.17605e-05
-1.93734e-06
-1.02019e-05
3.14787e-07
-1.20041e-06
2.62886e-06
-4.99632e-06
8.51614e-06
-1.80338e-05
2.77679e-05
-3.74324e-05
4.47434e-05
-6.1645e-05
5.80438e-05
-8.92516e-05
6.75027e-05
-0.000118986
7.34468e-05
-0.000149737
7.63558e-05
-0.000180513
7.66509e-05
-0.000210399
7.45957e-05
-0.000238503
7.02819e-05
-0.000263915
6.36668e-05
-0.000285696
5.46407e-05
-0.000302881
4.31092e-05
-0.000314523
2.90815e-05
-0.000319759
1.2755e-05
-0.000317896
-5.42057e-06
-0.000308507
-2.47327e-05
-0.000291558
-4.41036e-05
-0.000267487
-6.22416e-05
-0.000237265
-7.76952e-05
-0.000202407
-8.9018e-05
-0.000164904
-9.49726e-05
-0.000127076
-9.47505e-05
-9.13492e-05
-8.81701e-05
-5.99656e-05
-7.58066e-05
-3.46866e-05
-5.90267e-05
-1.65187e-05
-3.99285e-05
-5.5078e-06
-2.12128e-05
-6.70804e-07
-6.03741e-06
1.95805e-06
-6.72364e-06
1.52398e-05
-2.35744e-05
4.46186e-05
-4.80003e-05
6.91693e-05
-7.79205e-05
8.79641e-05
-0.000111602
0.000101184
-0.000147589
0.000109434
-0.000184638
0.000113406
-0.000221653
0.000113666
-0.000257612
0.000110555
-0.000291511
0.00010418
-0.000322318
9.4474e-05
-0.000348956
8.12789e-05
-0.000370309
6.44627e-05
-0.000385263
4.40353e-05
-0.000392773
2.02645e-05
-0.000391966
-6.22743e-06
-0.000382227
-3.44714e-05
-0.000363376
-6.2955e-05
-0.000335758
-8.98589e-05
-0.00030035
-0.000113103
-0.000258796
-0.000130572
-0.000213369
-0.000140399
-0.000166824
-0.000141296
-0.000122135
-0.000132859
-8.21518e-05
-0.00011579
-4.92083e-05
-9.19702e-05
-2.47694e-05
-6.43674e-05
-9.18087e-06
-3.68013e-05
-1.58171e-06
-1.36366e-05
3.76342e-07
-8.24662e-06
2.34864e-05
-2.85717e-05
6.49437e-05
-5.76327e-05
9.82303e-05
-9.28347e-05
0.000123166
-0.000132139
0.000140488
-0.000173918
0.000151213
-0.000216834
0.000156322
-0.000259729
0.000156561
-0.000301532
0.000152357
-0.000341182
0.000143831
-0.000377577
0.000130869
-0.00040954
0.000113242
-0.000435821
9.07438e-05
-0.000455129
6.33436e-05
-0.000466197
3.13326e-05
-0.000467906
-4.51889e-06
-0.000459322
-4.30558e-05
-0.000439985
-8.22917e-05
-0.000409997
-0.000119847
-0.000370187
-0.000152913
-0.00032222
-0.000178539
-0.000268601
-0.000194019
-0.000212549
-0.000197348
-0.000157714
-0.000187694
-0.000107747
-0.000165757
-6.57863e-05
-0.000133931
-3.39706e-05
-9.61832e-05
-1.30889e-05
-5.7683e-05
-2.45593e-06
-2.42695e-05
-2.07959e-06
-9.59137e-06
3.30778e-05
-3.30472e-05
8.83996e-05
-6.63372e-05
0.00013152
-0.000106404
0.000163233
-0.000150931
0.000185015
-0.00019815
0.000198431
-0.00024666
0.000204832
-0.00029529
0.000205191
-0.00034297
0.000200037
-0.000388637
0.000189499
-0.000431164
0.000173395
-0.000469308
0.000151386
-0.000501699
0.000123135
-0.000526854
8.8498e-05
-0.00054322
4.76991e-05
-0.000549353
1.61392e-06
-0.000543843
-4.85657e-05
-0.000525796
-0.000100339
-0.000494868
-0.000150775
-0.00045156
-0.000196221
-0.0003974
-0.000232698
-0.000335048
-0.000256371
-0.000268216
-0.00026418
-0.000201382
-0.000254527
-0.000139265
-0.000227874
-8.61393e-05
-0.000187057
-4.51358e-05
-0.000137187
-1.77087e-05
-8.511e-05
-3.41957e-06
-3.85587e-05
-5.49915e-06
-1.0779e-05
4.38568e-05
-3.70312e-05
0.000114652
-7.41417e-05
0.000168631
-0.000118657
0.000207748
-0.000168031
0.000234389
-0.000220385
0.000250785
-0.000274301
0.000258749
-0.000328638
0.000259527
-0.000382378
0.000253777
-0.00043451
0.000241631
-0.000483929
0.000222814
-0.000529366
0.000196823
-0.000569345
0.000163114
-0.000602174
0.000121327
-0.000625988
7.15134e-05
-0.000638779
1.44045e-05
-0.000638743
-4.86014e-05
-0.000624219
-0.000114863
-0.000594222
-0.000180771
-0.000548688
-0.000241756
-0.0004888
-0.000292586
-0.00041722
-0.000327951
-0.000338126
-0.000343274
-0.000256954
-0.000335699
-0.000179799
-0.000305029
-0.000112508
-0.000254348
-5.96585e-05
-0.000190036
-2.3722e-05
-0.000121047
-4.67095e-06
-5.76097e-05
-1.01701e-05
-1.18163e-05
5.56731e-05
-4.05301e-05
0.000143366
-8.10422e-05
0.000209143
-0.000129576
0.000256282
-0.000183404
0.000288217
-0.000240586
0.000307967
-0.000299724
0.000317887
-0.000359753
0.000319556
-0.000419762
0.000313787
-0.000478844
0.000300712
-0.000535968
0.000279938
-0.000589879
0.000250734
-0.000639018
0.000212253
-0.000681482
0.000163791
-0.00071503
0.000105062
-0.000737141
3.65153e-05
-0.000745282
-4.04604e-05
-0.000736965
-0.000123181
-0.000710314
-0.000207422
-0.000664426
-0.000287644
-0.000599847
-0.000357166
-0.000518985
-0.000408812
-0.000426331
-0.000435929
-0.00032832
-0.00043371
-0.000232712
-0.000400637
-0.000147446
-0.000339615
-7.91745e-05
-0.000258307
-3.19368e-05
-0.000168284
-6.43787e-06
-8.31086e-05
-1.6608e-05
-1.26967e-05
6.83698e-05
-4.35203e-05
0.000174189
-8.69864e-05
0.000252609
-0.000139067
0.000308363
-0.000196906
0.000346056
-0.000258541
0.000369602
-0.000322636
0.000381981
-0.000388247
0.000385167
-0.000454617
0.000380156
-0.000520995
0.000367091
-0.000586479
0.000345422
-0.000649873
0.000314128
-0.000709575
0.000271954
-0.000763488
0.000217704
-0.000808996
0.000150571
-0.000843006
7.05247e-05
-0.000862212
-2.12546e-05
-0.000863124
-0.000122269
-0.000842793
-0.000227752
-0.000799191
-0.000331246
-0.000731871
-0.000424486
-0.000642598
-0.000498085
-0.000535836
-0.000542691
-0.000418861
-0.000550684
-0.000301263
-0.000518235
-0.000193613
-0.000447264
-0.000105465
-0.000346456
-4.32476e-05
-0.000230501
-8.96816e-06
-0.000117388
-2.55761e-05
-1.34034e-05
8.17732e-05
-4.59522e-05
0.000206738
-9.18765e-05
0.000298533
-0.000146964
0.00036345
-0.000208276
0.000407369
-0.000273863
0.000435188
-0.000342482
0.000450601
-0.000413348
0.000456032
-0.000485895
0.000452704
-0.000559577
0.000440773
-0.000633668
0.000419513
-0.000707086
0.000387546
-0.000778232
0.000343101
-0.00084487
0.000284341
-0.000904053
0.000209754
-0.000952142
0.000118614
-0.000985028
1.16306e-05
-0.000998247
-0.000109049
-0.000987621
-0.000238378
-0.000949761
-0.000369106
-0.00088285
-0.000491397
-0.000787492
-0.000593443
-0.000667542
-0.000662641
-0.000530646
-0.00068758
-0.000388094
-0.000660787
-0.000253527
-0.000581831
-0.000140365
-0.000459618
-5.86175e-05
-0.000312249
-1.2532e-05
-0.000163474
-3.81081e-05
-1.39147e-05
9.5688e-05
-4.77625e-05
0.000240586
-9.55878e-05
0.000346359
-0.000153052
0.000420915
-0.000217167
0.000471484
-0.000286018
0.000504039
-0.000358477
0.000523059
-0.000433932
0.000531487
-0.000512039
0.000530811
-0.000592484
0.000521217
-0.000674756
0.000501786
-0.000757937
0.000470727
-0.0008405
0.000425664
-0.000920146
0.000363987
-0.000993702
0.000283311
-0.00105713
0.000182037
-0.00110552
6.00211e-05
-0.00113371
-8.08563e-05
-0.00113623
-0.000235861
-0.00110823
-0.000397106
-0.00104619
-0.000553433
-0.000948973
-0.000690659
-0.000818999
-0.000792616
-0.000663392
-0.000843187
-0.000494528
-0.000829651
-0.000329188
-0.00074717
-0.000185639
-0.000603167
-7.90631e-05
-0.000418825
-1.74299e-05
-0.000225107
-5.55381e-05
-1.42105e-05
0.000109898
-4.88928e-05
0.000275268
-9.79991e-05
0.000395465
-0.000157109
0.000480024
-0.000223201
0.000537577
-0.000294399
0.000575238
-0.000369687
0.000598347
-0.00044863
0.00061043
-0.000531102
0.000613284
-0.000617032
0.000607147
-0.000706147
0.000590901
-0.000797733
0.000562312
-0.000890401
0.000518332
-0.000981905
0.000455491
-0.00106901
0.000370413
-0.00114745
0.000260476
-0.00121199
0.000124563
-0.00125671
-3.61309e-05
-0.00127529
-0.00021728
-0.00126149
-0.000410912
-0.00120991
-0.000605011
-0.00111712
-0.00078345
-0.000983129
-0.000926606
-0.000813231
-0.00101309
-0.000619594
-0.00102329
-0.000421511
-0.000945253
-0.00024276
-0.000781918
-0.000105618
-0.000555967
-2.40017e-05
-0.000306724
-7.95398e-05
-1.42808e-05
0.000124179
-4.93137e-05
0.000310301
-9.90365e-05
0.000445188
-0.000158968
0.000539955
-0.00022605
0.000604659
-0.000298427
0.000647615
-0.000375172
0.000675091
-0.000455997
0.000691255
-0.000540974
0.000698261
-0.000630257
0.00069643
-0.000723808
0.000684452
-0.000821142
0.000659646
-0.000921085
0.000618275
-0.00102157
0.000555978
-0.00111951
0.000468356
-0.00121075
0.000351707
-0.00129006
0.000203875
-0.00135126
2.50767e-05
-0.00138762
-0.00018093
-0.00139183
-0.000406694
-0.00135678
-0.000640068
-0.00127639
-0.000863837
-0.00114735
-0.00105564
-0.000971525
-0.00118891
-0.000758866
-0.00123595
-0.000529499
-0.00117462
-0.000312521
-0.000998896
-0.00013924
-0.000729248
-3.26266e-05
-0.000413337
-0.000112166
-1.41358e-05
0.000138315
-4.90551e-05
0.00034522
-9.87261e-05
0.000494859
-0.000158598
0.000599827
-0.000225545
0.000671606
-0.000297692
0.000719763
-0.000374157
0.000751556
-0.000454755
0.000771853
-0.000539706
0.000783211
-0.000629343
0.000786067
-0.000723843
0.000778952
-0.00082296
0.000758764
-0.0009258
0.000721115
-0.00103063
0.000660805
-0.00113474
0.000572469
-0.00123442
0.000451385
-0.00132492
0.000294373
-0.00140048
0.000100639
-0.00145433
-0.00012708
-0.00147897
-0.000382053
-0.00146592
-0.000653121
-0.00140658
-0.000923172
-0.00129372
-0.0011685
-0.00112425
-0.00135839
-0.000903384
-0.00145681
-0.000649212
-0.00142879
-0.000394432
-0.00125368
-0.000180615
-0.000943065
-4.37031e-05
-0.000550249
-0.00015587
-1.38179e-05
0.000152133
-4.82416e-05
0.000379644
-9.72564e-05
0.000543873
-0.000156189
0.000658759
-0.000221789
0.000737206
-0.000292109
0.000790082
-0.000366252
0.0008257
-0.000444076
0.000849676
-0.000525885
0.00086502
-0.00061214
0.000872323
-0.000703193
0.000870005
-0.000799041
0.000854612
-0.000899127
0.000821201
-0.00100218
0.000763861
-0.00110613
0.00067642
-0.00120805
0.000553301
-0.00130413
0.000390447
-0.00138963
0.000186143
-0.00145837
-5.83351e-05
-0.0015036
-0.000336832
-0.00151618
-0.000640541
-0.00148561
-0.000953741
-0.00140079
-0.00125332
-0.00125267
-0.0015065
-0.0010393
-0.00167018
-0.000772867
-0.00169522
-0.000485974
-0.00154057
-0.000229872
-0.00119917
-5.76079e-05
-0.000722512
-0.000213477
-1.3415e-05
0.000165548
-4.71319e-05
0.000413361
-9.50454e-05
0.000591787
-0.000152249
0.000715963
-0.000215285
0.000800243
-0.00028207
0.000856867
-0.000351642
0.000895271
-0.000423843
0.000921878
-0.000499008
0.000940185
-0.000577671
0.000950986
-0.000660326
0.000952659
-0.000747214
0.000941501
-0.000838174
0.00091216
-0.000932526
0.000858213
-0.00102902
0.000772914
-0.0011258
0.000650086
-0.00122039
0.000485027
-0.00130955
0.000275308
-0.00138848
2.05988e-05
-0.00145173
-0.000273581
-0.00149065
-0.000601628
-0.00149389
-0.0009505
-0.00144732
-0.00129989
-0.00133594
-0.00161788
-0.00114892
-0.00185721
-0.000888607
-0.00195554
-0.000581929
-0.00184725
-0.000286224
-0.00149487
-7.46443e-05
-0.000934092
-0.000288122
-1.30776e-05
0.000178626
-4.61656e-05
0.000446449
-9.28143e-05
0.000638436
-0.000147695
0.000770844
-0.00020704
0.000859587
-0.000268577
0.000918405
-0.000331251
0.000957945
-0.000394864
0.000985491
-0.000459749
0.00100507
-0.00052649
0.00101773
-0.000595708
0.00102188
-0.000667911
0.0010137
-0.000743382
0.000987632
-0.000822132
0.000936963
-0.000903876
0.000854658
-0.000988019
0.00073423
-0.0010736
0.000570606
-0.00115905
0.00036076
-0.00124232
0.000103869
-0.00131841
-0.000197489
-0.00138099
-0.000539049
-0.00141911
-0.000912375
-0.00141713
-0.00130187
-0.00135525
-0.00167976
-0.00121357
-0.00199889
-0.000981591
-0.00218751
-0.000674192
-0.00215465
-0.000347651
-0.00182141
-9.50119e-05
-0.00118673
-0.000383134
-1.3044e-05
0.00019167
-4.6025e-05
0.00047943
-9.16705e-05
0.000684081
-0.000143942
0.000823115
-0.000198644
0.00091429
-0.00025331
0.00097307
-0.00030681
0.00101145
-0.000358938
0.00103762
-0.000410046
0.00105618
-0.000460783
0.00106846
-0.000511928
0.00107302
-0.000564288
0.00106606
-0.000618654
0.001042
-0.0006758
0.000994108
-0.000736483
0.000915341
-0.000801438
0.000799184
-0.000871294
0.000640462
-0.000946373
0.000435839
-0.00102642
0.000183914
-0.00110907
-0.000114842
-0.00118982
-0.000458294
-0.0012596
-0.000842599
-0.00130318
-0.00125829
-0.00129826
-0.00168468
-0.00121743
-0.00207973
-0.0010364
-0.00236854
-0.000752363
-0.00243868
-0.000410726
-0.00216305
-0.000118835
-0.00147862
-0.000501968
-1.36842e-05
0.000205354
-4.77251e-05
0.000513471
-9.32113e-05
0.000729567
-0.000142982
0.000872885
-0.000192323
0.000963632
-0.000238629
0.00101938
-0.000280816
0.00105363
-0.000318771
0.00107557
-0.000352955
0.00109036
-0.000384157
0.00109967
-0.000413374
0.00110224
-0.000441773
0.00109446
-0.000470707
0.00107093
-0.000501747
0.00102515
-0.000536703
0.000950297
-0.000577596
0.000840077
-0.000626549
0.000689416
-0.000685562
0.000494852
-0.000756131
0.000254482
-0.000838325
-3.26478e-05
-0.000929886
-0.000366734
-0.00102444
-0.000748042
-0.00110908
-0.00117366
-0.00116182
-0.00163193
-0.00115096
-0.0020906
-0.00104002
-0.00247947
-0.000805285
-0.00267342
-0.000470752
-0.00249758
-0.00014626
-0.00180311
-0.000648228
-1.55838e-05
0.000220938
-5.27648e-05
0.000550652
-9.96657e-05
0.000776468
-0.000147467
0.000920687
-0.000190918
0.00100708
-0.000227474
0.00105593
-0.00025633
0.00108249
-0.000277677
0.00109692
-0.000292246
0.00110493
-0.000301085
0.00110851
-0.000305502
0.00110666
-0.000307088
0.00109605
-0.000307788
0.00107163
-0.000309966
0.00102733
-0.000316411
0.000956743
-0.000330297
0.000853962
-0.000355026
0.000714145
-0.000393976
0.000533803
-0.000450097
0.000310603
-0.000525434
4.26893e-05
-0.000619857
-0.000272311
-0.000730108
-0.000637791
-0.000846911
-0.00105686
-0.000951481
-0.00152736
-0.00101199
-0.00203009
-0.000983852
-0.00250761
-0.000822645
-0.00283462
-0.000522091
-0.00279814
-0.000177537
-0.00214767
-0.000825765
-1.97123e-05
0.00024065
-6.33803e-05
0.00059432
-0.000114087
0.000827175
-0.000160752
0.000967352
-0.000197768
0.0010441
-0.000223074
0.00108124
-0.00023655
0.00109596
-0.000239004
0.00109937
-0.00023166
0.00109759
-0.000215983
0.00109283
-0.000193681
0.00108436
-0.000166817
0.00106918
-0.000137916
0.00104273
-0.000110075
0.000999485
-8.69312e-05
0.000933599
-7.25903e-05
0.000839621
-7.14165e-05
0.000712971
-8.77798e-05
0.000550166
-0.000125741
0.000348564
-0.000188651
0.000105599
-0.000278398
-0.000182563
-0.000394509
-0.00052168
-0.00053208
-0.000919287
-0.00067768
-0.00138176
-0.000803785
-0.00190398
-0.000863531
-0.00244786
-0.00079562
-0.00290253
-0.000558305
-0.00303545
-0.000212856
-0.00249312
-0.00103862
-2.77576e-05
0.000268408
-8.29598e-05
0.000649522
-0.000140563
0.000884778
-0.000186784
0.00101357
-0.000216278
0.00107359
-0.00022824
0.0010932
-0.000223846
0.00109157
-0.000204938
0.00108047
-0.000173497
0.00106615
-0.000131549
0.00105088
-8.12794e-05
0.00103409
-2.52162e-05
0.00101312
3.36024e-05
0.000983912
9.15679e-05
0.00094152
0.000144403
0.000880764
0.000187333
0.000796692
0.00021528
0.000685023
0.000223164
0.000542282
0.000206215
0.000365514
0.000160245
0.000151568
8.18458e-05
-0.000104164
-3.07811e-05
-0.000409053
-0.000176912
-0.000773157
-0.000350092
-0.00120858
-0.000530737
-0.00172334
-0.000676357
-0.00230224
-0.000715767
-0.00286312
-0.000571453
-0.00317977
-0.000251567
-0.002813
-0.00129019
-4.27651e-05
0.000311173
-0.000116623
0.00072338
-0.000184222
0.000952377
-0.000229409
0.00105876
-0.000248579
0.00109276
-0.000243468
0.00108809
-0.000217395
0.0010655
-0.000173724
0.0010368
-0.00011545
0.00100787
-4.52736e-05
0.000980704
3.41348e-05
0.000954678
0.000119875
0.00092738
0.000208583
0.000895204
0.000296279
0.000853824
0.000378377
0.000798666
0.000449768
0.000725301
0.000505039
0.000629752
0.000538751
0.00050857
0.000545692
0.000358573
0.000521043
0.000176217
0.000460226
-4.33466e-05
0.000359473
-0.000308301
0.000215541
-0.000629224
2.84399e-05
-0.00102148
-0.000192876
-0.00150202
-0.000417159
-0.00207796
-0.000572393
-0.00270789
-0.000550023
-0.00320214
-0.000290254
-0.00307277
-0.00158044
-7.02693e-05
0.000381442
-0.000171678
0.000824788
-0.00025009
0.00103079
-0.000289608
0.00109828
-0.000291381
0.00109454
-0.000261657
0.00105836
-0.000206962
0.0010108
-0.000132694
0.000962528
-4.30568e-05
0.000918234
5.85452e-05
0.000879102
0.000169073
0.00084415
0.000285436
0.000811017
0.000404193
0.000776446
0.000521373
0.000736645
0.000632416
0.000687622
0.00073225
0.000625467
0.000815456
0.000546546
0.000876491
0.000447534
0.000909864
0.0003252
0.000910215
0.000175866
0.000871764
-4.89483e-06
0.000789281
-0.000225818
0.000656159
-0.000496102
0.000466349
-0.000831668
0.000218285
-0.00125396
-7.2237e-05
-0.00178744
-0.000348373
-0.00243175
-0.00047528
-0.00307523
-0.000319717
-0.00322834
-0.00190016
-0.000120038
0.00050148
-0.000256421
0.000961171
-0.000337428
0.0011118
-0.000356026
0.00111688
-0.000323611
0.00106212
-0.000253693
0.000988445
-0.00015715
0.000914259
-4.17572e-05
0.000847135
8.71096e-05
0.000789367
0.000225597
0.000740615
0.000370615
0.000699131
0.000519277
0.000662355
0.000668498
0.000627226
0.000814741
0.000590401
0.000953913
0.000548451
0.00108137
0.000498011
0.00119201
0.000435901
0.00128044
0.000359112
0.00134098
0.000264656
0.00136762
0.000149223
0.0013539
8.82357e-06
0.00129243
-0.000164339
0.00117423
-0.000377903
0.000988457
-0.000645899
0.000724117
-0.000989619
0.000380215
-0.00144354
-2.7969e-06
-0.00204874
-0.000315994
-0.00276203
-0.000326488
-0.00321784
-0.00222665
-0.000207989
0.000709469
-0.000369676
0.00112286
-0.000417154
0.00115928
-0.000374524
0.00107425
-0.000271953
0.00095955
-0.000132855
0.000849347
2.74401e-05
0.000753964
0.000199564
0.000675011
0.000377983
0.000610949
0.000559368
0.00055923
0.00074147
0.000517029
0.000922373
0.000481452
0.00110001
0.000449591
0.00127185
0.000418559
0.00143476
0.000385543
0.00158493
0.000347844
0.00171791
0.000302917
0.00182869
0.000248329
0.00191171
0.00018164
0.00196067
0.000100259
0.0019672
2.29554e-06
0.00192393
-0.00012107
0.00181882
-0.00027279
0.00163774
-0.000464823
0.00136292
-0.000714794
0.000976389
-0.00105701
0.000480781
-0.00155314
-1.7462e-05
-0.00226379
-0.000268257
-0.00296705
-0.0024949
-0.000345015
0.00105448
-0.000438278
0.00121612
-0.000348165
0.00106916
-0.000160222
0.000886302
7.04913e-05
0.000728837
0.000315421
0.000604418
0.000560289
0.000509096
0.00079868
0.00043662
0.00102826
0.000381367
0.00124861
0.000338886
0.00145996
0.00030568
0.00166253
0.000278881
0.00185609
0.000256026
0.00203973
0.000234922
0.00221169
0.00021358
0.00236935
0.000190181
0.00250921
0.000163061
0.00262688
0.000130664
0.00271709
9.14244e-05
0.00277359
4.37645e-05
0.00278938
-1.35016e-05
0.00275348
-8.51642e-05
0.00265413
-0.000173442
0.00247506
-0.000285751
0.00219434
-0.000434079
0.00178294
-0.000645603
0.0012099
-0.000980094
0.000518798
-0.00157269
-2.18704e-05
-0.00242638
-0.00251678
-0.000305301
0.00135979
-5.56853e-05
0.000966505
0.000370468
0.000643009
0.000790282
0.000466489
0.00117329
0.00034583
0.00151547
0.000262231
0.00181938
0.000205192
0.00209008
0.000165921
0.00233319
0.000138253
0.00255378
0.000118299
0.00275593
0.000103533
0.00294263
9.21763e-05
0.00311577
8.28865e-05
0.0032761
7.4591e-05
0.00342328
6.63986e-05
0.00355592
5.75472e-05
0.0036716
4.73793e-05
0.00376694
3.53163e-05
0.00383746
2.09104e-05
0.0038773
3.92719e-06
0.00388194
-1.81465e-05
0.00384043
-4.36488e-05
0.00374195
-7.49654e-05
0.00357118
-0.000114983
0.00330531
-0.000168206
0.00290856
-0.000248853
0.00232143
-0.000392969
0.00148721
-0.000738465
0.000505423
-0.00144459
-0.00201135
0.00135979
0.00232629
0.0029693
0.00343579
0.00378162
0.00404385
0.00424904
0.00441496
0.00455322
0.00467151
0.00477505
0.00486722
0.00495011
0.0050247
0.0050911
0.00514865
0.00519603
0.00523134
0.00525225
0.00525618
0.00523803
0.00519439
0.00511942
0.00500444
0.00483623
0.00458738
0.00419441
0.00345594
0.00201135
)
;

boundaryField
{
    movingWall
    {
        type            calculated;
        value           uniform 0;
    }
    fixedWalls
    {
        type            calculated;
        value           uniform 0;
    }
    frontAndBack
    {
        type            empty;
        value           nonuniform 0();
    }
}


// ************************************************************************* //
