/*--------------------------------*- C++ -*----------------------------------*\
  =========                 |
  \\      /  F ield         | OpenFOAM: The Open Source CFD Toolbox
   \\    /   O peration     | Website:  https://openfoam.org
    \\  /    A nd           | Version:  7
     \\/     M anipulation  |
\*---------------------------------------------------------------------------*/
FoamFile
{
    version     2.0;
    format      ascii;
    class       volVectorField;
    location    "8.3";
    object      U;
}
// * * * * * * * * * * * * * * * * * * * * * * * * * * * * * * * * * * * * * //

dimensions      [0 1 -1 0 0 0 0];

internalField   nonuniform List<vector> 
900
(
(8.92767e-05 -8.80772e-05 0)
(8.69775e-05 -3.66147e-06 0)
(-0.0002524 0.000102629 0)
(-0.000864309 0.000184032 0)
(-0.00167239 0.000235543 0)
(-0.0026073 0.000263484 0)
(-0.0036111 0.000275697 0)
(-0.00464046 0.000277884 0)
(-0.0056623 0.000272998 0)
(-0.00664819 0.000261768 0)
(-0.00756977 0.000243396 0)
(-0.00839587 0.00021622 0)
(-0.00909131 0.000178355 0)
(-0.00961747 0.000128314 0)
(-0.00993465 6.56496e-05 0)
(-0.0100061 -8.5017e-06 0)
(-0.00980292 -9.15128e-05 0)
(-0.00931026 -0.00017796 0)
(-0.00853326 -0.000260659 0)
(-0.00750123 -0.000331145 0)
(-0.00626942 -0.000380724 0)
(-0.00491715 -0.000401898 0)
(-0.0035417 -0.000389801 0)
(-0.00224867 -0.000343353 0)
(-0.00113902 -0.000265701 0)
(-0.000291716 -0.000164884 0)
(0.00022981 -5.75152e-05 0)
(0.000412618 4.89602e-05 0)
(0.000313662 0.000119796 0)
(0.000101622 0.000101878 0)
(6.67238e-06 -9.02295e-05 0)
(-0.00039793 0.000392557 0)
(-0.00153356 0.000924924 0)
(-0.00323074 0.00135238 0)
(-0.00535729 0.00164909 0)
(-0.00777815 0.00182926 0)
(-0.0103681 0.00191748 0)
(-0.0130224 0.00193458 0)
(-0.0156526 0.00189291 0)
(-0.0181783 0.00179652 0)
(-0.0205204 0.00164316 0)
(-0.0225958 0.00142708 0)
(-0.0243159 0.00114217 0)
(-0.025589 0.000785025 0)
(-0.0263252 0.000358023 0)
(-0.0264462 -0.000128414 0)
(-0.0258946 -0.000653471 0)
(-0.0246462 -0.00118572 0)
(-0.0227231 -0.00168498 0)
(-0.0201995 -0.0021057 0)
(-0.0172051 -0.00240254 0)
(-0.01392 -0.00253742 0)
(-0.0105615 -0.00248658 0)
(-0.00736394 -0.00224643 0)
(-0.00455137 -0.00183661 0)
(-0.00230832 -0.00130133 0)
(-0.000756481 -0.000713114 0)
(7.47903e-05 -0.000150947 0)
(0.000279317 0.000253702 0)
(0.000122443 0.00030982 0)
(-0.000110299 0.000257014 0)
(-0.000998239 0.00154493 0)
(-0.0029772 0.00282844 0)
(-0.00570685 0.00386553 0)
(-0.0090051 0.00460657 0)
(-0.0126983 0.00507175 0)
(-0.0166189 0.0053041 0)
(-0.0206205 0.00534337 0)
(-0.024574 0.00521481 0)
(-0.0283589 0.00492754 0)
(-0.0318557 0.00447798 0)
(-0.0349405 0.00385569 0)
(-0.0374847 0.00305046 0)
(-0.0393574 0.00205962 0)
(-0.040434 0.000894993 0)
(-0.0406069 -0.000411557 0)
(-0.0397996 -0.00180383 0)
(-0.0379828 -0.00320168 0)
(-0.0351895 -0.00450495 0)
(-0.0315235 -0.00560196 0)
(-0.0271639 -0.00638283 0)
(-0.0223587 -0.00675572 0)
(-0.0174082 -0.00666367 0)
(-0.0126382 -0.00609866 0)
(-0.00836348 -0.00511001 0)
(-0.00484872 -0.00380627 0)
(-0.00227005 -0.00235307 0)
(-0.000679662 -0.000964711 0)
(1.92196e-05 8.7248e-05 0)
(8.37902e-05 0.000445981 0)
(-0.000218884 0.000938312 0)
(-0.0015777 0.00338904 0)
(-0.00438052 0.00563528 0)
(-0.00808953 0.00742032 0)
(-0.0124614 0.00869686 0)
(-0.0172885 0.00950175 0)
(-0.0223727 0.00989994 0)
(-0.0275395 0.00995063 0)
(-0.0326322 0.00969154 0)
(-0.0375018 0.00913625 0)
(-0.0419995 0.0082793 0)
(-0.0459713 0.00710543 0)
(-0.0492574 0.00560111 0)
(-0.0516964 0.00376656 0)
(-0.0531344 0.00162726 0)
(-0.0534378 -0.000756809 0)
(-0.052509 -0.00328656 0)
(-0.0503057 -0.0058211 0)
(-0.0468587 -0.00818621 0)
(-0.0422842 -0.0101882 0)
(-0.0367904 -0.0116359 0)
(-0.0306734 -0.0123678 0)
(-0.0242997 -0.0122815 0)
(-0.0180745 -0.0113583 0)
(-0.0123986 -0.0096799 0)
(-0.00761763 -0.00743191 0)
(-0.00397293 -0.00489655 0)
(-0.00155569 -0.00243858 0)
(-0.000286215 -0.000492992 0)
(4.10551e-05 0.000420154 0)
(-0.00031153 0.00192192 0)
(-0.00210293 0.00589138 0)
(-0.00567964 0.00930144 0)
(-0.0103045 0.0119479 0)
(-0.0156681 0.0138231 0)
(-0.0215291 0.0149991 0)
(-0.0276647 0.0155707 0)
(-0.033881 0.0156188 0)
(-0.0400043 0.0151934 0)
(-0.045868 0.0143115 0)
(-0.0513038 0.0129644 0)
(-0.0561361 0.0111306 0)
(-0.0601811 0.00879222 0)
(-0.0632506 0.00595195 0)
(-0.0651614 0.0026492 0)
(-0.0657497 -0.00102667 0)
(-0.0648865 -0.00492983 0)
(-0.0625003 -0.0088515 0)
(-0.0586009 -0.012533 0)
(-0.053296 -0.0156842 0)
(-0.0468036 -0.018014 0)
(-0.0394538 -0.0192711 0)
(-0.0316729 -0.019288 0)
(-0.0239503 -0.0180222 0)
(-0.0167859 -0.0155832 0)
(-0.0106279 -0.0122406 0)
(-0.0058063 -0.00841156 0)
(-0.00247328 -0.00463175 0)
(-0.000582881 -0.00151968 0)
(9.53422e-06 0.000232056 0)
(-0.000390001 0.00317583 0)
(-0.00257024 0.00900251 0)
(-0.00685796 0.0137746 0)
(-0.0123296 0.0173916 0)
(-0.0186113 0.0199221 0)
(-0.0254291 0.0214955 0)
(-0.0325397 0.0222481 0)
(-0.0397375 0.0222874 0)
(-0.0468402 0.0216769 0)
(-0.053673 0.0204357 0)
(-0.0600575 0.0185495 0)
(-0.0658041 0.0159875 0)
(-0.0707099 0.0127235 0)
(-0.074561 0.00875777 0)
(-0.0771411 0.00413905 0)
(-0.0782468 -0.00101762 0)
(-0.0777014 -0.00652054 0)
(-0.0753818 -0.0120911 0)
(-0.0712524 -0.0173775 0)
(-0.0653859 -0.0219767 0)
(-0.0579875 -0.0254742 0)
(-0.0494065 -0.027499 0)
(-0.0401275 -0.0277878 0)
(-0.0307367 -0.0262479 0)
(-0.0218612 -0.0230028 0)
(-0.0140885 -0.0184093 0)
(-0.00787749 -0.0130391 0)
(-0.00347279 -0.00763034 0)
(-0.000879017 -0.00301941 0)
(-1.08311e-05 -0.000101198 0)
(-0.000457589 0.00466816 0)
(-0.00298481 0.0126641 0)
(-0.00791736 0.0189869 0)
(-0.0141654 0.023681 0)
(-0.021296 0.0269241 0)
(-0.0290065 0.0289257 0)
(-0.0370384 0.0298767 0)
(-0.0451807 0.0299183 0)
(-0.0532513 0.0291297 0)
(-0.061076 0.0275315 0)
(-0.0684747 0.0251005 0)
(-0.0752513 0.021791 0)
(-0.0811879 0.0175607 0)
(-0.0860449 0.0123983 0)
(-0.089567 0.00635026 0)
(-0.0914988 -0.000453251 0)
(-0.0915962 -0.00777551 0)
(-0.089659 -0.0152782 0)
(-0.0855746 -0.0225091 0)
(-0.079348 -0.0289341 0)
(-0.071142 -0.0339847 0)
(-0.0613046 -0.0371288 0)
(-0.050373 -0.0379603 0)
(-0.0390449 -0.0362926 0)
(-0.0281109 -0.0322342 0)
(-0.0183505 -0.026225 0)
(-0.0104087 -0.0190148 0)
(-0.00467014 -0.0115896 0)
(-0.00121488 -0.00505965 0)
(-2.53888e-05 -0.000580177 0)
(-0.000516533 0.00637112 0)
(-0.00335158 0.0168192 0)
(-0.00886267 0.0248698 0)
(-0.0158158 0.0307464 0)
(-0.0237278 0.0347646 0)
(-0.0322728 0.0372356 0)
(-0.0411831 0.0384196 0)
(-0.0502497 0.0384994 0)
(-0.0592987 0.0375731 0)
(-0.0681658 0.0356623 0)
(-0.0766778 0.0327306 0)
(-0.0846393 0.02871 0)
(-0.0918225 0.0235309 0)
(-0.097963 0.0171558 0)
(-0.102761 0.00961276 0)
(-0.105889 0.00102978 0)
(-0.107023 -0.00833294 0)
(-0.105862 -0.0180801 0)
(-0.102174 -0.0276574 0)
(-0.0958584 -0.0363828 0)
(-0.0869972 -0.0434984 0)
(-0.0759047 -0.0482576 0)
(-0.063154 -0.0500448 0)
(-0.0495617 -0.0485118 0)
(-0.0361185 -0.0437004 0)
(-0.0238612 -0.0361139 0)
(-0.0137001 -0.0267053 0)
(-0.00623023 -0.0167712 0)
(-0.00165168 -0.00777975 0)
(-4.38371e-05 -0.00123603 0)
(-0.000567635 0.00825946 0)
(-0.00367208 0.0214126 0)
(-0.00969441 0.0313551 0)
(-0.017279 0.0385181 0)
(-0.0259021 0.0433809 0)
(-0.0352215 0.0463766 0)
(-0.0449672 0.0478489 0)
(-0.0549396 0.0480312 0)
(-0.0649811 0.0470449 0)
(-0.074946 0.0449119 0)
(-0.0846775 0.0415782 0)
(-0.0939888 0.0369436 0)
(-0.102648 0.0308969 0)
(-0.110367 0.0233549 0)
(-0.116798 0.0143047 0)
(-0.12154 0.00384703 0)
(-0.124163 -0.00776419 0)
(-0.124236 -0.0200864 0)
(-0.121379 -0.032469 0)
(-0.115342 -0.0440695 0)
(-0.106079 -0.0539038 0)
(-0.0938217 -0.0609479 0)
(-0.0791423 -0.0642905 0)
(-0.0629636 -0.0633238 0)
(-0.0465025 -0.0579359 0)
(-0.0311224 -0.0486469 0)
(-0.0181015 -0.0366282 0)
(-0.00834925 -0.0235675 0)
(-0.00226111 -0.0114089 0)
(-7.64773e-05 -0.0021344 0)
(-0.000610569 0.010308 0)
(-0.00394425 0.0263878 0)
(-0.0104067 0.0383714 0)
(-0.0185433 0.046922 0)
(-0.0277993 0.0527052 0)
(-0.0378233 0.0562943 0)
(-0.0483495 0.0581307 0)
(-0.0591944 0.0585081 0)
(-0.0702246 0.0575758 0)
(-0.0813217 0.0553569 0)
(-0.0923541 0.0517741 0)
(-0.103152 0.0466844 0)
(-0.113487 0.0399176 0)
(-0.123053 0.0313216 0)
(-0.131455 0.0208128 0)
(-0.138214 0.00843198 0)
(-0.142787 -0.00559835 0)
(-0.144593 -0.0208176 0)
(-0.143075 -0.0364961 0)
(-0.137797 -0.0516265 0)
(-0.128528 -0.0649679 0)
(-0.115356 -0.0751542 0)
(-0.0987856 -0.0808774 0)
(-0.0797996 -0.0811397 0)
(-0.059836 -0.0755402 0)
(-0.040644 -0.0645198 0)
(-0.0239906 -0.0494558 0)
(-0.0112452 -0.032516 0)
(-0.00312241 -0.0162798 0)
(-0.00013383 -0.00338088 0)
(-0.000644272 0.0124893 0)
(-0.00416325 0.031684 0)
(-0.0109879 0.0458407 0)
(-0.0195876 0.0558751 0)
(-0.0293852 0.0626574 0)
(-0.0400257 0.0669182 0)
(-0.051253 0.0692104 0)
(-0.0629054 0.069898 0)
(-0.0748799 0.0691646 0)
(-0.0870926 0.0670346 0)
(-0.0994452 0.0634032 0)
(-0.111794 0.0580732 0)
(-0.123922 0.0507972 0)
(-0.135513 0.0413285 0)
(-0.146135 0.0294814 0)
(-0.155235 0.0152003 0)
(-0.162158 -0.0013616 0)
(-0.166174 -0.019756 0)
(-0.166541 -0.0392065 0)
(-0.162602 -0.0585522 0)
(-0.153894 -0.0762823 0)
(-0.140284 -0.0906374 0)
(-0.122115 -0.09981 0)
(-0.100333 -0.102255 0)
(-0.0765377 -0.0970898 0)
(-0.0528835 -0.0845018 0)
(-0.0317475 -0.0659987 0)
(-0.0151522 -0.0443044 0)
(-0.00432257 -0.0228374 0)
(-0.000227256 -0.00512443 0)
(-0.000667323 0.0147727 0)
(-0.00432283 0.0372337 0)
(-0.0114236 0.0536756 0)
(-0.020385 0.0652805 0)
(-0.0306146 0.073138 0)
(-0.0417577 0.0781512 0)
(-0.0535708 0.0809978 0)
(-0.0659172 0.0821228 0)
(-0.0787279 0.0817503 0)
(-0.091958 0.0799082 0)
(-0.105548 0.0764605 0)
(-0.119389 0.0711452 0)
(-0.133283 0.0636206 0)
(-0.146918 0.0535214 0)
(-0.159839 0.0405292 0)
(-0.171439 0.0244575 0)
(-0.180965 0.00535078 0)
(-0.187562 -0.0164088 0)
(-0.190322 -0.0400245 0)
(-0.188359 -0.064218 0)
(-0.180942 -0.0872267 0)
(-0.167643 -0.10688 0)
(-0.148525 -0.12079 0)
(-0.124344 -0.1267 0)
(-0.0967219 -0.122997 0)
(-0.0681562 -0.109334 0)
(-0.0417191 -0.0871562 0)
(-0.0203135 -0.0597614 0)
(-0.00595827 -0.0316459 0)
(-0.000370151 -0.00756166 0)
(-0.000678381 0.0171239 0)
(-0.00441727 0.0429624 0)
(-0.0116999 0.061778 0)
(-0.0209087 0.0750248 0)
(-0.0314402 0.0840232 0)
(-0.0429405 0.0898612 0)
(-0.0551787 0.0933542 0)
(-0.0680429 0.0950386 0)
(-0.081498 0.0951866 0)
(-0.095539 0.0938326 0)
(-0.110148 0.0908068 0)
(-0.125253 0.0857753 0)
(-0.140689 0.0782879 0)
(-0.156157 0.0678414 0)
(-0.171205 0.0539598 0)
(-0.185202 0.0362962 0)
(-0.197348 0.0147505 0)
(-0.206701 -0.010408 0)
(-0.21222 -0.0384084 0)
(-0.212836 -0.0679138 0)
(-0.207546 -0.0969685 0)
(-0.195573 -0.123025 0)
(-0.176571 -0.143092 0)
(-0.150913 -0.154063 0)
(-0.120006 -0.153313 0)
(-0.0865046 -0.139563 0)
(-0.0541567 -0.11382 0)
(-0.0269676 -0.0798247 0)
(-0.00813769 -0.0433903 0)
(-0.00057965 -0.010943 0)
(-0.000676705 0.0195055 0)
(-0.00444398 0.04879 0)
(-0.0118098 0.0700397 0)
(-0.0211411 0.0849779 0)
(-0.031824 0.0951616 0)
(-0.0435026 0.101875 0)
(-0.0559551 0.106082 0)
(-0.0690897 0.108422 0)
(-0.0829013 0.109222 0)
(-0.0974208 0.108527 0)
(-0.11267 0.106135 0)
(-0.128617 0.101634 0)
(-0.145132 0.0944609 0)
(-0.161953 0.0839614 0)
(-0.178653 0.0694884 0)
(-0.194624 0.0505159 0)
(-0.209075 0.0267748 0)
(-0.221047 -0.00160549 0)
(-0.229447 -0.0339529 0)
(-0.23309 -0.0689396 0)
(-0.230753 -0.104522 0)
(-0.221293 -0.137882 0)
(-0.203862 -0.165485 0)
(-0.178238 -0.183323 0)
(-0.145301 -0.187502 0)
(-0.107519 -0.175315 0)
(-0.0691141 -0.146709 0)
(-0.0353155 -0.105471 0)
(-0.010979 -0.0588677 0)
(-0.000878483 -0.0155798 0)
(-0.000662764 0.0218801 0)
(-0.00440643 0.0546359 0)
(-0.0117596 0.0783477 0)
(-0.0210845 0.0949961 0)
(-0.0317529 0.106376 0)
(-0.0434003 0.113976 0)
(-0.0558067 0.118921 0)
(-0.0688933 0.121962 0)
(-0.0826762 0.123489 0)
(-0.0972147 0.123563 0)
(-0.112564 0.121951 0)
(-0.128729 0.11817 0)
(-0.145626 0.111538 0)
(-0.163041 0.101256 0)
(-0.180606 0.0865047 0)
(-0.197783 0.0665796 0)
(-0.21386 0.041035 0)
(-0.227953 0.00983632 0)
(-0.239007 -0.0264946 0)
(-0.245835 -0.0667279 0)
(-0.247094 -0.108875 0)
(-0.241329 -0.15002 0)
(-0.227157 -0.18626 0)
(-0.203595 -0.212766 0)
(-0.170655 -0.224232 0)
(-0.130144 -0.21601 0)
(-0.0862997 -0.186129 0)
(-0.0454599 -0.137589 0)
(-0.0146019 -0.0789572 0)
(-0.00129644 -0.02185 0)
(-0.000638923 0.0242139 0)
(-0.0043178 0.0604268 0)
(-0.0115773 0.0865931 0)
(-0.0207737 0.10493 0)
(-0.0312555 0.117469 0)
(-0.0426397 0.125913 0)
(-0.054699 0.131555 0)
(-0.0673575 0.135267 0)
(-0.0806423 0.137512 0)
(-0.0946307 0.138373 0)
(-0.109403 0.137593 0)
(-0.124999 0.13462 0)
(-0.141381 0.128673 0)
(-0.158403 0.118817 0)
(-0.175785 0.104083 0)
(-0.193107 0.0836055 0)
(-0.209805 0.0567749 0)
(-0.225156 0.0233911 0)
(-0.238254 -0.0162054 0)
(-0.248033 -0.0609939 0)
(-0.253176 -0.109177 0)
(-0.252036 -0.157974 0)
(-0.242763 -0.203395 0)
(-0.223552 -0.240049 0)
(-0.193278 -0.261276 0)
(-0.152546 -0.260112 0)
(-0.104911 -0.231663 0)
(-0.0573132 -0.176768 0)
(-0.019111 -0.104554 0)
(-0.00187185 -0.0301989 0)
(-0.000610259 0.0264839 0)
(-0.00420502 0.0661097 0)
(-0.0113209 0.0946844 0)
(-0.0202893 0.114636 0)
(-0.03042 0.128236 0)
(-0.0412996 0.137405 0)
(-0.0526844 0.143621 0)
(-0.0644923 0.147884 0)
(-0.0767521 0.150734 0)
(-0.0895496 0.152285 0)
(-0.102982 0.152266 0)
(-0.117121 0.150074 0)
(-0.13198 0.144844 0)
(-0.147492 0.135538 0)
(-0.163496 0.121068 0)
(-0.179727 0.100444 0)
(-0.195822 0.0729284 0)
(-0.211298 0.0381776 0)
(-0.225497 -0.00365848 0)
(-0.237592 -0.0518813 0)
(-0.246426 -0.104974 0)
(-0.250355 -0.160551 0)
(-0.247232 -0.214898 0)
(-0.234523 -0.262487 0)
(-0.209851 -0.295644 0)
(-0.172173 -0.305012 0)
(-0.123527 -0.281867 0)
(-0.0704899 -0.223023 0)
(-0.0245724 -0.136456 0)
(-0.00265386 -0.0411311 0)
(-0.00058566 0.0286858 0)
(-0.00411382 0.0716686 0)
(-0.0110893 0.102566 0)
(-0.019772 0.123996 0)
(-0.0294108 0.138476 0)
(-0.0395507 0.148165 0)
(-0.0499255 0.154733 0)
(-0.0604432 0.159319 0)
(-0.0711295 0.162549 0)
(-0.0820731 0.164573 0)
(-0.0933851 0.165121 0)
(-0.105168 0.163557 0)
(-0.117492 0.158964 0)
(-0.130385 0.150235 0)
(-0.14382 0.13621 0)
(-0.157718 0.115822 0)
(-0.171942 0.0882456 0)
(-0.186292 0.0530229 0)
(-0.200471 0.0101257 0)
(-0.213928 -0.040029 0)
(-0.225763 -0.0963818 0)
(-0.234579 -0.157138 0)
(-0.238175 -0.219231 0)
(-0.23353 -0.277537 0)
(-0.217136 -0.323979 0)
(-0.186093 -0.347186 0)
(-0.14015 -0.334096 0)
(-0.0842269 -0.275471 0)
(-0.0309927 -0.175198 0)
(-0.00370804 -0.0551942 0)
(-0.00057968 0.0308471 0)
(-0.00411591 0.0771473 0)
(-0.0110345 0.11024 0)
(-0.019437 0.132932 0)
(-0.0284826 0.148015 0)
(-0.0376681 0.157912 0)
(-0.0467074 0.164504 0)
(-0.0555033 0.169079 0)
(-0.0640826 0.172353 0)
(-0.0725403 0.174525 0)
(-0.0810043 0.175335 0)
(-0.0896127 0.174143 0)
(-0.098502 0.17001 0)
(-0.107802 0.161805 0)
(-0.117637 0.148344 0)
(-0.128125 0.128531 0)
(-0.139373 0.101501 0)
(-0.151469 0.0667181 0)
(-0.164436 0.0240083 0)
(-0.178087 -0.0264343 0)
(-0.191908 -0.0840949 0)
(-0.204832 -0.147889 0)
(-0.214888 -0.215695 0)
(-0.218938 -0.28335 0)
(-0.212703 -0.34319 0)
(-0.191546 -0.382678 0)
(-0.152469 -0.384627 0)
(-0.097379 -0.332084 0)
(-0.0383069 -0.220836 0)
(-0.00512886 -0.0729614 0)
(-0.000616289 0.0330442 0)
(-0.00432085 0.0826787 0)
(-0.0113792 0.117793 0)
(-0.0195905 0.141425 0)
(-0.0279917 0.15671 0)
(-0.0360356 0.166384 0)
(-0.0434332 0.172563 0)
(-0.0501015 0.176693 0)
(-0.0560848 0.179587 0)
(-0.0614979 0.181495 0)
(-0.0664959 0.182188 0)
(-0.0712631 0.181042 0)
(-0.0760107 0.177133 0)
(-0.0809806 0.16935 0)
(-0.08645 0.156527 0)
(-0.0927328 0.137587 0)
(-0.100171 0.11167 0)
(-0.109114 0.0782 0)
(-0.119873 0.0368987 0)
(-0.13261 -0.0122796 0)
(-0.147201 -0.069263 0)
(-0.163001 -0.133708 0)
(-0.178489 -0.204605 0)
(-0.19081 -0.279191 0)
(-0.195452 -0.351077 0)
(-0.186516 -0.407796 0)
(-0.158258 -0.42909 0)
(-0.108515 -0.389635 0)
(-0.0463791 -0.27272 0)
(-0.00706233 -0.0950241 0)
(-0.000737017 0.0354301 0)
(-0.00489758 0.0885232 0)
(-0.0124431 0.125421 0)
(-0.0206493 0.14953 0)
(-0.0284017 0.164463 0)
(-0.0351357 0.173346 0)
(-0.0405995 0.178567 0)
(-0.0447626 0.181737 0)
(-0.0477177 0.183763 0)
(-0.0496221 0.184951 0)
(-0.0506763 0.185113 0)
(-0.0511231 0.183665 0)
(-0.0512566 0.17973 0)
(-0.0514327 0.172252 0)
(-0.0520766 0.160123 0)
(-0.0536813 0.142321 0)
(-0.0567944 0.118013 0)
(-0.061987 0.0866163 0)
(-0.0698048 0.0477702 0)
(-0.0806912 0.0012353 0)
(-0.0948546 -0.0532634 0)
(-0.112083 -0.116047 0)
(-0.131433 -0.187192 0)
(-0.150674 -0.26556 0)
(-0.165669 -0.346746 0)
(-0.170016 -0.419763 0)
(-0.155727 -0.463117 0)
(-0.116081 -0.443901 0)
(-0.0549898 -0.329286 0)
(-0.00973232 -0.122004 0)
(-0.0010189 0.0382816 0)
(-0.00611501 0.0951208 0)
(-0.0146848 0.133455 0)
(-0.0231629 0.15737 0)
(-0.0302774 0.171196 0)
(-0.0355154 0.17857 0)
(-0.0387363 0.182187 0)
(-0.0400231 0.183824 0)
(-0.0395612 0.184469 0)
(-0.0375813 0.18448 0)
(-0.0343494 0.183713 0)
(-0.0301787 0.18164 0)
(-0.0254483 0.177456 0)
(-0.0206221 0.170188 0)
(-0.0162552 0.158814 0)
(-0.0129902 0.142383 0)
(-0.0115392 0.120107 0)
(-0.0126448 0.0914041 0)
(-0.017025 0.0558534 0)
(-0.0253145 0.0130707 0)
(-0.0379763 -0.0374733 0)
(-0.0551797 -0.0966071 0)
(-0.0765717 -0.165304 0)
(-0.100765 -0.243997 0)
(-0.124543 -0.330665 0)
(-0.141913 -0.417095 0)
(-0.143595 -0.482934 0)
(-0.118504 -0.490077 0)
(-0.0637611 -0.38792 0)
(-0.0134454 -0.154574 0)
(-0.0016133 0.0420875 0)
(-0.00841706 0.103159 0)
(-0.0187599 0.142363 0)
(-0.0278234 0.165097 0)
(-0.0342396 0.176804 0)
(-0.0376906 0.181785 0)
(-0.0382674 0.183071 0)
(-0.0362518 0.182578 0)
(-0.0319771 0.181351 0)
(-0.0257805 0.179773 0)
(-0.0180111 0.17774 0)
(-0.00905721 0.174785 0)
(0.00062461 0.170185 0)
(0.0104805 0.163069 0)
(0.0198537 0.152516 0)
(0.0279937 0.137659 0)
(0.0340758 0.117757 0)
(0.0372463 0.092229 0)
(0.036675 0.0606039 0)
(0.0316039 0.0223893 0)
(0.0213853 -0.0231228 0)
(0.00555607 -0.0770742 0)
(-0.0160677 -0.141042 0)
(-0.0430029 -0.216692 0)
(-0.0733287 -0.30439 0)
(-0.102353 -0.399611 0)
(-0.12081 -0.485697 0)
(-0.114104 -0.523199 0)
(-0.0719417 -0.444867 0)
(-0.0185119 -0.19341 0)
(-0.00282631 0.0477128 0)
(-0.0125525 0.113651 0)
(-0.0255801 0.152707 0)
(-0.0354095 0.172787 0)
(-0.0407929 0.181028 0)
(-0.0418728 0.182564 0)
(-0.0391523 0.180741 0)
(-0.0332187 0.177552 0)
(-0.0246122 0.174032 0)
(-0.0138055 0.170551 0)
(-0.00123914 0.167019 0)
(0.0126299 0.16302 0)
(0.0272859 0.157917 0)
(0.0421211 0.150941 0)
(0.0564239 0.141279 0)
(0.0693867 0.128149 0)
(0.080129 0.110863 0)
(0.0877403 0.0888388 0)
(0.0913271 0.0615608 0)
(0.0900497 0.0284557 0)
(0.0831151 -0.0112879 0)
(0.0698351 -0.0589511 0)
(0.0495971 -0.116394 0)
(0.0220309 -0.186028 0)
(-0.0123923 -0.270141 0)
(-0.0509833 -0.368193 0)
(-0.0860111 -0.469508 0)
(-0.10074 -0.538321 0)
(-0.0779904 -0.495032 0)
(-0.0249757 -0.238878 0)
(-0.00527406 0.0567223 0)
(-0.0197691 0.127984 0)
(-0.0362732 0.16494 0)
(-0.046459 0.180151 0)
(-0.0497427 0.18318 0)
(-0.0471761 0.180078 0)
(-0.0399201 0.17439 0)
(-0.028989 0.168045 0)
(-0.0151822 0.16196 0)
(0.000877909 0.156423 0)
(0.0186674 0.151315 0)
(0.037686 0.146248 0)
(0.0573987 0.140656 0)
(0.077194 0.133867 0)
(0.0963643 0.125168 0)
(0.114108 0.113866 0)
(0.129547 0.0993224 0)
(0.141765 0.0809682 0)
(0.149841 0.0582595 0)
(0.152872 0.0305796 0)
(0.149925 -0.00291561 0)
(0.140121 -0.0434843 0)
(0.122472 -0.0930058 0)
(0.0959169 -0.154146 0)
(0.059615 -0.230339 0)
(0.0138686 -0.324552 0)
(-0.0367852 -0.433408 0)
(-0.0751443 -0.530329 0)
(-0.0790068 -0.53152 0)
(-0.0320912 -0.290493 0)
(-0.0101474 0.072038 0)
(-0.0319957 0.147792 0)
(-0.0516312 0.17885 0)
(-0.0599808 0.185896 0)
(-0.0583406 0.181551 0)
(-0.0493525 0.172599 0)
(-0.0351291 0.162467 0)
(-0.0172133 0.15277 0)
(0.00332297 0.144141 0)
(0.0257362 0.136681 0)
(0.0494695 0.130178 0)
(0.0740417 0.124233 0)
(0.098968 0.118325 0)
(0.123705 0.111865 0)
(0.147623 0.104235 0)
(0.169995 0.0948272 0)
(0.19001 0.0830693 0)
(0.20679 0.0684254 0)
(0.219414 0.0503648 0)
(0.226925 0.0282889 0)
(0.228264 0.00141247 0)
(0.222344 -0.0314349 0)
(0.207823 -0.0719147 0)
(0.183098 -0.122525 0)
(0.146324 -0.187022 0)
(0.0957573 -0.270781 0)
(0.0314343 -0.377696 0)
(-0.031683 -0.494034 0)
(-0.0702454 -0.54548 0)
(-0.0377263 -0.346649 0)
(-0.0194924 0.0987999 0)
(-0.0513914 0.173641 0)
(-0.0692943 0.191905 0)
(-0.0688752 0.18621 0)
(-0.0557349 0.172202 0)
(-0.0348573 0.156626 0)
(-0.00943697 0.142105 0)
(0.0185556 0.129513 0)
(0.047943 0.118965 0)
(0.0780339 0.110238 0)
(0.108396 0.102961 0)
(0.138705 0.0966808 0)
(0.168645 0.0909003 0)
(0.197843 0.0851002 0)
(0.225835 0.0787578 0)
(0.252045 0.0713642 0)
(0.275789 0.0624349 0)
(0.296278 0.0515065 0)
(0.312633 0.0381102 0)
(0.323885 0.0217235 0)
(0.328795 0.00168464 0)
(0.326145 -0.0228466 0)
(0.314306 -0.0532648 0)
(0.291225 -0.0916518 0)
(0.254275 -0.141359 0)
(0.20023 -0.208569 0)
(0.12589 -0.302901 0)
(0.0394237 -0.426534 0)
(-0.0442357 -0.527564 0)
(-0.0372694 -0.402762 0)
(-0.0349045 0.142991 0)
(-0.0744691 0.198382 0)
(-0.070748 0.193035 0)
(-0.0449706 0.170301 0)
(-0.00858009 0.146239 0)
(0.0318703 0.125401 0)
(0.0730827 0.108449 0)
(0.113532 0.0949683 0)
(0.152592 0.0843311 0)
(0.19009 0.0759287 0)
(0.226046 0.0692116 0)
(0.260519 0.0636815 0)
(0.293523 0.0588781 0)
(0.324971 0.0543696 0)
(0.354648 0.0497493 0)
(0.382192 0.0446356 0)
(0.407096 0.0386722 0)
(0.428702 0.0315218 0)
(0.446215 0.0228464 0)
(0.458686 0.0122689 0)
(0.464967 -0.000714528 0)
(0.463718 -0.0165455 0)
(0.452996 -0.0361729 0)
(0.430598 -0.0610952 0)
(0.393381 -0.0938046 0)
(0.337496 -0.139651 0)
(0.256555 -0.210107 0)
(0.152421 -0.324548 0)
(0.0150917 -0.46569 0)
(-0.0172123 -0.441607 0)
(-0.0377263 0.235588 0)
(-0.0485231 0.202813 0)
(0.0261174 0.152253 0)
(0.097759 0.116691 0)
(0.164823 0.0904791 0)
(0.225406 0.0713737 0)
(0.279208 0.057694 0)
(0.326936 0.0478491 0)
(0.36957 0.0406464 0)
(0.40804 0.0352837 0)
(0.443123 0.0312074 0)
(0.475412 0.0280051 0)
(0.505317 0.0253479 0)
(0.53306 0.0229606 0)
(0.558676 0.0206049 0)
(0.582022 0.0180702 0)
(0.60278 0.0151688 0)
(0.620466 0.0117301 0)
(0.634437 0.00759839 0)
(0.643824 0.00260909 0)
(0.647738 -0.00337298 0)
(0.644985 -0.0107452 0)
(0.633733 -0.0198911 0)
(0.611963 -0.0315042 0)
(0.576327 -0.046876 0)
(0.523194 -0.0694155 0)
(0.44272 -0.107397 0)
(0.333421 -0.187928 0)
(0.143243 -0.335749 0)
(0.0605763 -0.412703 0)
(0.23124 0.158594 0)
(0.291063 0.116881 0)
(0.440015 0.0756716 0)
(0.538353 0.0503714 0)
(0.605039 0.0341262 0)
(0.654449 0.0234851 0)
(0.692746 0.0166159 0)
(0.723257 0.0122 0)
(0.74828 0.00932356 0)
(0.769412 0.00741097 0)
(0.787721 0.00610631 0)
(0.803905 0.00518066 0)
(0.818409 0.00447862 0)
(0.831478 0.00388915 0)
(0.843202 0.00332897 0)
(0.85353 0.00273278 0)
(0.862297 0.00204836 0)
(0.869234 0.00123052 0)
(0.873983 0.000249464 0)
(0.87611 -0.000935505 0)
(0.875039 -0.00225202 0)
(0.87004 -0.0039039 0)
(0.860243 -0.00597963 0)
(0.844664 -0.00860919 0)
(0.820923 -0.012056 0)
(0.787297 -0.0173725 0)
(0.732087 -0.0267539 0)
(0.655433 -0.0487679 0)
(0.453948 -0.1099 0)
(0.313143 -0.177418 0)
)
;

boundaryField
{
    movingWall
    {
        type            fixedValue;
        value           uniform (1 0 0);
    }
    fixedWalls
    {
        type            noSlip;
    }
    frontAndBack
    {
        type            empty;
    }
}


// ************************************************************************* //
