/*--------------------------------*- C++ -*----------------------------------*\
  =========                 |
  \\      /  F ield         | OpenFOAM: The Open Source CFD Toolbox
   \\    /   O peration     | Website:  https://openfoam.org
    \\  /    A nd           | Version:  7
     \\/     M anipulation  |
\*---------------------------------------------------------------------------*/
FoamFile
{
    version     2.0;
    format      ascii;
    class       volScalarField;
    location    "8.7";
    object      p;
}
// * * * * * * * * * * * * * * * * * * * * * * * * * * * * * * * * * * * * * //

dimensions      [0 2 -2 0 0 0 0];

internalField   nonuniform List<scalar> 
900
(
7.54138e-07
-0.000149559
-0.000342156
-0.000515479
-0.000636092
-0.000684434
-0.000653224
-0.000540816
-0.000347166
-7.23387e-05
0.000283473
0.000718984
0.00123034
0.00180946
0.00244254
0.00310902
0.00378148
0.00442653
0.00500737
0.00548752
0.00583555
0.00603018
0.00606463
0.00594923
0.00571215
0.00539709
0.00505202
0.00474867
0.00453944
0.00448603
0.000149785
-4.50119e-06
-0.000140778
-0.000254307
-0.00032485
-0.000337893
-0.000287181
-0.000170102
1.46677e-05
0.000267853
0.000589482
0.000978194
0.00143018
0.00193798
0.00248928
0.00306594
0.00364555
0.00419965
0.00469774
0.00510996
0.00541102
0.00558444
0.00562605
0.00554591
0.00536826
0.00512917
0.00487117
0.00463707
0.00447633
0.00442969
0.000352085
0.000126702
-1.32006e-05
-0.000111681
-0.000164898
-0.000163799
-0.000105381
1.1478e-05
0.000187822
0.000424693
0.000722743
0.00108149
0.00149825
0.00196695
0.00247694
0.00301285
0.00355319
0.00407166
0.00453939
0.00492763
0.00521171
0.00537537
0.00541434
0.00533819
0.00517003
0.00494362
0.00469861
0.00447499
0.00430977
0.0042326
0.00053864
0.000228953
6.60027e-05
-3.47134e-05
-8.37289e-05
-7.77541e-05
-1.78706e-05
9.47454e-05
0.00026038
0.000480326
0.000756178
0.0010889
0.00147766
0.00191845
0.00240278
0.00291672
0.00344045
0.00394801
0.00441
0.00479615
0.00507963
0.00524185
0.00527654
0.00519218
0.00501158
0.00476865
0.00450321
0.00425588
0.00406015
0.00392884
0.000661661
0.000266066
7.42637e-05
-3.63072e-05
-8.85714e-05
-8.42902e-05
-2.84719e-05
7.54155e-05
0.000226913
0.000427687
0.000680542
0.000988311
0.0013525
0.0017717
0.00223986
0.00274475
0.00326828
0.0037838
0.00426015
0.00466375
0.00496333
0.00513561
0.0051704
0.00507381
0.00486841
0.00458968
0.00428037
0.00398524
0.00373829
0.00353753
0.000679187
0.000202029
-2.05833e-05
-0.000145647
-0.000206826
-0.000210185
-0.000164178
-7.42554e-05
5.85874e-05
0.000236592
0.000464049
0.000746028
0.00108687
0.00148836
0.00194736
0.00245362
0.00299215
0.00353431
0.00404654
0.00449039
0.0048279
0.00502833
0.00507475
0.00496886
0.00473212
0.00440248
0.00402826
0.00366242
0.00334377
0.00305855
0.000557829
6.16891e-06
-0.000246834
-0.000388967
-0.000463362
-0.000479811
-0.000449712
-0.000380124
-0.000272333
-0.00012332
7.29223e-05
0.000324055
0.000637764
0.0010197
0.00147036
0.00198151
0.00254756
0.00313317
0.00370338
0.00421415
0.00461847
0.00487466
0.00495503
0.00485318
0.00458719
0.00419738
0.00374004
0.00328085
0.00286838
0.00247839
0.000269437
-0.000348738
-0.000630554
-0.000791316
-0.000882724
-0.000917924
-0.000910876
-0.000869977
-0.000796654
-0.000687029
-0.000533248
-0.000324768
-5.00086e-05
0.000301537
0.000737201
0.00125855
0.00184603
0.00248476
0.00313408
0.00374272
0.00425226
0.00460569
0.00475863
0.00469035
0.00441077
0.00396062
0.00340587
0.00283026
0.00229751
0.00177112
-0.000210638
-0.000887
-0.00119578
-0.0013767
-0.00148937
-0.00155009
-0.00157522
-0.00157443
-0.00154937
-0.00149547
-0.00140317
-0.00125895
-0.00104678
-0.000750059
-0.000354014
0.000150251
0.000756586
0.0014519
0.00219775
0.00293855
0.00360317
0.00411421
0.00440232
0.00442241
0.0041671
0.00367204
0.00301309
0.00229816
0.00161318
0.000906255
-0.000903807
-0.00162964
-0.00196367
-0.00216687
-0.00230613
-0.00240098
-0.00247021
-0.00252501
-0.00256768
-0.00259355
-0.00259186
-0.00254641
-0.0024364
-0.00223775
-0.00192545
-0.00147831
-0.000887552
-0.000152141
0.000696055
0.00160167
0.00248159
0.00323334
0.0037519
0.00395278
0.00379543
0.00329845
0.0025439
0.00167043
0.000795939
-0.000151034
-0.00182773
-0.00259376
-0.0029516
-0.00317999
-0.00335259
-0.00349235
-0.00362081
-0.00375128
-0.00388765
-0.0040262
-0.00415616
-0.00425956
-0.004311
-0.00427796
-0.00412231
-0.00380467
-0.0032933
-0.00256489
-0.00163223
-0.000541333
0.000617795
0.00171527
0.00259882
0.00312417
0.00319238
0.00278238
0.00197055
0.000931011
-0.000173082
-0.00143646
-0.00299535
-0.00379163
-0.00417207
-0.00442934
-0.00464328
-0.00484064
-0.00504637
-0.00527691
-0.00553913
-0.00583204
-0.00614678
-0.00646535
-0.00675883
-0.00698592
-0.00709277
-0.00701493
-0.00668463
-0.00605698
-0.00509744
-0.0038295
-0.00233878
-0.000778821
0.000642031
0.00169616
0.00219065
0.00202642
0.0012474
6.04796e-05
-0.00130994
-0.00298344
-0.00441372
-0.00522982
-0.0056317
-0.0059218
-0.00618556
-0.0064541
-0.00675671
-0.00711436
-0.00753883
-0.00803428
-0.00859646
-0.00921008
-0.00984485
-0.0104513
-0.0109581
-0.0112718
-0.011284
-0.0108905
-0.0100128
-0.00862475
-0.00678567
-0.00465864
-0.00250788
-0.000664666
0.000541484
0.000876276
0.000300758
-0.000965788
-0.00262429
-0.00481797
-0.0060829
-0.00690833
-0.00733025
-0.00765652
-0.0079776
-0.00832975
-0.00874781
-0.009259
-0.00988231
-0.0106299
-0.0115056
-0.0125002
-0.0135852
-0.014705
-0.0157701
-0.0166541
-0.0171986
-0.0172299
-0.0166057
-0.015221
-0.0130812
-0.0103326
-0.00727876
-0.00436057
-0.00208331
-0.000888483
-0.000979873
-0.00217843
-0.00411306
-0.00694939
-0.00799525
-0.00882034
-0.00926021
-0.00962398
-0.0100066
-0.0104506
-0.0109977
-0.0116833
-0.012536
-0.0135791
-0.0148278
-0.0162829
-0.0179217
-0.019685
-0.0214664
-0.0231054
-0.02439
-0.0250739
-0.0249085
-0.023715
-0.0214066
-0.018074
-0.0140223
-0.00978062
-0.00604669
-0.00353988
-0.00274109
-0.00361079
-0.00574919
-0.00935491
-0.0101354
-0.0109527
-0.0114072
-0.0118059
-0.0122482
-0.0127839
-0.0134635
-0.0143326
-0.0154316
-0.0167974
-0.0184597
-0.020433
-0.0227031
-0.0252111
-0.0278363
-0.0303852
-0.0325924
-0.0341314
-0.0346475
-0.0338826
-0.0316201
-0.0278566
-0.0228465
-0.0171531
-0.01164
-0.00734282
-0.005141
-0.00528619
-0.00746342
-0.0119551
-0.0124811
-0.0132874
-0.0137512
-0.014176
-0.0146661
-0.0152805
-0.0160805
-0.0171236
-0.018464
-0.020154
-0.0222397
-0.024751
-0.0276848
-0.0309847
-0.0345188
-0.0380647
-0.041307
-0.0438431
-0.0452026
-0.045121
-0.0431645
-0.0392243
-0.0334536
-0.02637
-0.0189233
-0.0124407
-0.00828507
-0.00718744
-0.00911679
-0.0145791
-0.0150062
-0.0158052
-0.01627
-0.0167028
-0.0172146
-0.0178766
-0.0187636
-0.0199469
-0.0214958
-0.0234785
-0.0259577
-0.0289787
-0.0325501
-0.036619
-0.041045
-0.0455815
-0.0498715
-0.0534732
-0.0559091
-0.0565449
-0.0550969
-0.0512726
-0.0450642
-0.0368565
-0.0275655
-0.018705
-0.0121224
-0.00919896
-0.0104612
-0.0169177
-0.0176842
-0.0184902
-0.0189432
-0.0193525
-0.0198408
-0.0204963
-0.0214112
-0.0226731
-0.0243665
-0.0265752
-0.0293769
-0.0328304
-0.0369539
-0.041697
-0.0469125
-0.0523348
-0.0575751
-0.0621441
-0.0654925
-0.0670199
-0.0662496
-0.0627996
-0.0565108
-0.0475799
-0.0367663
-0.0256053
-0.0163195
-0.0110186
-0.0110865
-0.0184631
-0.0204957
-0.0213377
-0.0217584
-0.0220938
-0.0224886
-0.0230561
-0.0239117
-0.0251619
-0.026907
-0.029244
-0.0322629
-0.0360323
-0.040576
-0.045844
-0.0516822
-0.0578106
-0.0638191
-0.0691884
-0.0733319
-0.0756385
-0.0755477
-0.0725997
-0.0664983
-0.0572377
-0.0453364
-0.0321776
-0.0201573
-0.0120552
-0.0103554
-0.0184293
-0.0234385
-0.0243652
-0.0247194
-0.0249028
-0.0251019
-0.0254685
-0.0261495
-0.0272734
-0.0289552
-0.0313029
-0.0344141
-0.0383621
-0.0431715
-0.048789
-0.0550525
-0.0616704
-0.0682188
-0.0741609
-0.0788901
-0.0817828
-0.0822406
-0.0797527
-0.0739203
-0.0645604
-0.0519294
-0.0371343
-0.0225157
-0.0113408
-0.00732592
-0.0156494
-0.0265469
-0.0276296
-0.0278557
-0.0277668
-0.0276272
-0.0276465
-0.0280128
-0.0288787
-0.0303726
-0.0326089
-0.0356872
-0.0396791
-0.0446049
-0.0504028
-0.0569009
-0.0637975
-0.0706599
-0.07694
-0.082015
-0.0852486
-0.0860273
-0.0837951
-0.0780935
-0.068592
-0.0553259
-0.0390835
-0.0219735
-0.0075107
-0.000671189
-0.00844802
-0.0299275
-0.0312529
-0.0312351
-0.0306879
-0.0300142
-0.0295057
-0.0293995
-0.0298718
-0.0310588
-0.0330748
-0.0360143
-0.0399406
-0.0448642
-0.0507097
-0.0572929
-0.0642984
-0.07128
-0.0776805
-0.0828696
-0.0861917
-0.0870087
-0.08471
-0.0788183
-0.0688268
-0.054643
-0.0367602
-0.0169868
0.0011278
0.0114045
0.00551076
-0.033837
-0.0354665
-0.0349787
-0.0336841
-0.0322155
-0.0309681
-0.0302264
-0.0301806
-0.0309642
-0.0326811
-0.035412
-0.0392049
-0.0440503
-0.0498569
-0.0564223
-0.0634165
-0.07038
-0.076742
-0.081853
-0.0850264
-0.0855806
-0.0828428
-0.0762173
-0.0651681
-0.0494124
-0.0292161
-0.00609674
0.01652
0.0312877
0.0293796
-0.0388533
-0.040682
-0.0392762
-0.0367874
-0.0341857
-0.0319668
-0.0304378
-0.0297786
-0.0301004
-0.0314818
-0.0339802
-0.0376165
-0.0423575
-0.0480875
-0.0545828
-0.0614946
-0.0683465
-0.0745473
-0.0794176
-0.0822233
-0.082213
-0.0786078
-0.0706967
-0.0578196
-0.0395413
-0.0159753
0.0117687
0.0408071
0.0620427
0.0671135
-0.046278
-0.0476032
-0.0443801
-0.0400235
-0.0358679
-0.0324383
-0.0300002
-0.0286779
-0.02853
-0.029591
-0.0318782
-0.0353787
-0.0400271
-0.0456782
-0.0520824
-0.0588683
-0.0655378
-0.0714738
-0.0759584
-0.0781978
-0.0773606
-0.0724666
-0.0627018
-0.0471959
-0.0252953
0.00308211
0.0369569
0.0756639
0.10681
0.123248
-0.0592996
-0.0574321
-0.0505642
-0.0433491
-0.03713
-0.0322587
-0.0288384
-0.0268678
-0.0263086
-0.0271225
-0.0292703
-0.032694
-0.0372896
-0.0428785
-0.0491826
-0.0558061
-0.062227
-0.067799
-0.0717614
-0.073251
-0.0713119
-0.0648848
-0.0528341
-0.0340399
-0.00751601
0.027295
0.0701375
0.120114
0.166757
0.204575
-0.0860205
-0.0716741
-0.0580747
-0.0465546
-0.0376247
-0.0311211
-0.026748
-0.024256
-0.0234437
-0.0241636
-0.0263021
-0.0297473
-0.0343544
-0.0399129
-0.0461194
-0.0525574
-0.0586846
-0.0638279
-0.067182
-0.0678179
-0.0646976
-0.0566634
-0.0422495
-0.0199729
0.0116673
0.0540873
0.108073
0.174003
0.242431
0.324747
-0.138169
-0.0870348
-0.0648305
-0.04742
-0.0353622
-0.0275071
-0.0226761
-0.0201366
-0.0194618
-0.0203914
-0.0227474
-0.0263773
-0.0311099
-0.036718
-0.042888
-0.0491978
-0.0551015
-0.0599208
-0.0628338
-0.0628615
-0.0588274
-0.049598
-0.0335022
-0.00863808
0.0271865
0.0768621
0.143511
0.232297
0.339981
0.509653
-0.311009
-0.0968774
-0.0477634
-0.028908
-0.0182107
-0.0125181
-0.0100797
-0.00963512
-0.0106076
-0.0127937
-0.0161007
-0.020443
-0.025701
-0.03169
-0.0381331
-0.0446403
-0.0506941
-0.0556415
-0.0586903
-0.0589161
-0.0552501
-0.0461777
-0.0301882
-0.00531795
0.0310605
0.0832985
0.158054
0.273081
0.448043
0.791787
)
;

boundaryField
{
    movingWall
    {
        type            zeroGradient;
    }
    fixedWalls
    {
        type            zeroGradient;
    }
    frontAndBack
    {
        type            empty;
    }
}


// ************************************************************************* //
