/*--------------------------------*- C++ -*----------------------------------*\
  =========                 |
  \\      /  F ield         | OpenFOAM: The Open Source CFD Toolbox
   \\    /   O peration     | Website:  https://openfoam.org
    \\  /    A nd           | Version:  7
     \\/     M anipulation  |
\*---------------------------------------------------------------------------*/
FoamFile
{
    version     2.0;
    format      ascii;
    class       surfaceScalarField;
    location    "8.7";
    object      phi;
}
// * * * * * * * * * * * * * * * * * * * * * * * * * * * * * * * * * * * * * //

dimensions      [0 3 -1 0 0 0 0];

internalField   nonuniform List<scalar> 
1740
(
6.34259e-07
-6.34968e-07
-4.05194e-07
1.03946e-06
-3.27877e-06
2.87358e-06
-7.61848e-06
4.3397e-06
-1.29591e-05
5.34063e-06
-1.88975e-05
5.93841e-06
-2.51268e-05
6.22924e-06
-3.14171e-05
6.29039e-06
-3.75823e-05
6.16516e-06
-4.34478e-05
5.86551e-06
-4.88283e-05
5.38047e-06
-5.35148e-05
4.68652e-06
-5.72736e-05
3.75883e-06
-5.98562e-05
2.58253e-06
-6.10197e-05
1.16358e-06
-6.05573e-05
-4.62439e-07
-5.83316e-05
-2.22571e-06
-5.43161e-05
-4.01544e-06
-4.86259e-05
-5.69028e-06
-4.15354e-05
-7.09048e-06
-3.34775e-05
-8.05791e-06
-2.5016e-05
-8.46144e-06
-1.67938e-05
-8.22218e-06
-9.46028e-06
-7.33356e-06
-3.58932e-06
-5.87096e-06
4.08258e-07
-3.99757e-06
2.38772e-06
-1.97946e-06
2.46616e-06
-7.84325e-08
1.22353e-06
1.24264e-06
1.22354e-06
-1.04061e-06
4.05646e-07
-5.82306e-06
5.82191e-06
-1.44294e-05
1.148e-05
-2.61361e-05
1.60463e-05
-4.00873e-05
1.92919e-05
-5.54689e-05
2.13199e-05
-7.15798e-05
2.23402e-05
-8.783e-05
2.25405e-05
-0.0001037
2.20354e-05
-0.000118696
2.08611e-05
-0.000132309
1.89937e-05
-0.000144
1.63774e-05
-0.000153199
1.29578e-05
-0.000159332
8.71566e-06
-0.000161865
3.69668e-06
-0.000160383
-1.94483e-06
-0.000154625
-7.98379e-06
-0.000144601
-1.40391e-05
-0.00013063
-1.96616e-05
-0.000113371
-2.43495e-05
-9.38157e-05
-2.76128e-05
-7.32283e-05
-2.90488e-05
-5.30318e-05
-2.84187e-05
-3.46568e-05
-2.57085e-05
-1.93644e-05
-2.11634e-05
-8.06734e-06
-1.52946e-05
-1.18527e-06
-8.86153e-06
1.58164e-06
-2.84536e-06
1.30401e-06
1.52024e-06
2.52756e-06
-3.10397e-06
3.50962e-06
-1.22192e-05
1.49372e-05
-2.6555e-05
2.58157e-05
-4.50485e-05
3.45399e-05
-6.65502e-05
4.07936e-05
-8.99788e-05
4.47486e-05
-0.000114375
4.67367e-05
-0.000138896
4.70607e-05
-0.000162768
4.59082e-05
-0.000185247
4.33395e-05
-0.000205569
3.93156e-05
-0.000222939
3.37476e-05
-0.000236538
2.65565e-05
-0.000245557
1.77354e-05
-0.000249271
7.4104e-06
-0.0002471
-4.11607e-06
-0.000238721
-1.63626e-05
-0.000224164
-2.85964e-05
-0.000203878
-3.99473e-05
-0.000178777
-4.94507e-05
-0.000150224
-5.61653e-05
-0.00011996
-5.93129e-05
-8.9956e-05
-5.84229e-05
-6.22113e-05
-5.34532e-05
-3.85129e-05
-4.48618e-05
-2.01888e-05
-3.36187e-05
-7.88492e-06
-2.11654e-05
-1.38673e-06
-9.34354e-06
5.1309e-07
-3.79591e-07
3.04065e-06
-5.10134e-06
8.61095e-06
-1.84542e-05
2.82901e-05
-3.83503e-05
4.57118e-05
-6.32072e-05
5.93968e-05
-9.15707e-05
6.91571e-05
-0.000122145
7.53224e-05
-0.000153789
7.83816e-05
-0.000185489
7.87602e-05
-0.000216298
7.67168e-05
-0.000245287
7.23293e-05
-0.000271508
6.55364e-05
-0.000293971
5.62106e-05
-0.000311662
4.42472e-05
-0.000323584
2.96576e-05
-0.000328833
1.26591e-05
-0.000326686
-6.26232e-06
-0.000316711
-2.63378e-05
-0.00029889
-4.64172e-05
-0.000273707
-6.51308e-05
-0.000242205
-8.09525e-05
-0.000205994
-9.23768e-05
-0.000167172
-9.81345e-05
-0.000128171
-9.74236e-05
-9.15122e-05
-9.01123e-05
-5.95053e-05
-7.68687e-05
-3.39354e-05
-5.91885e-05
-1.57801e-05
-3.93208e-05
-4.99989e-06
-2.01237e-05
-4.74828e-07
-4.90466e-06
2.56582e-06
-6.90273e-06
1.55137e-05
-2.4229e-05
4.56163e-05
-4.93623e-05
7.08451e-05
-8.01654e-05
9.02e-05
-0.00011486
0.000103852
-0.000151954
0.000112417
-0.000190176
0.000116603
-0.000228397
0.000116982
-0.000265565
0.000113884
-0.000300633
0.000107397
-0.000332522
9.74257e-05
-0.000360099
8.37873e-05
-0.000382187
6.63349e-05
-0.00039761
4.50813e-05
-0.000405272
2.03214e-05
-0.000404263
-7.27223e-06
-0.000393945
-3.66551e-05
-0.000374149
-6.62133e-05
-0.000345261
-9.40185e-05
-0.000308329
-0.000117885
-0.000265099
-0.000135607
-0.000217967
-0.000145267
-0.000169819
-0.000145571
-0.000123758
-0.000136173
-8.27312e-05
-0.000117896
-4.91259e-05
-9.27938e-05
-2.44021e-05
-6.40445e-05
-8.83396e-06
-3.56919e-05
-1.42535e-06
-1.23133e-05
1.14048e-06
-8.50096e-06
2.40147e-05
-2.94656e-05
6.6581e-05
-5.94488e-05
0.000100828
-9.57774e-05
0.000126529
-0.000136356
0.00014443
-0.000179518
0.000155579
-0.000223894
0.000160979
-0.000268296
0.000161384
-0.000311619
0.000157207
-0.000352759
0.000148538
-0.000390559
0.000135226
-0.000423779
0.000117007
-0.000451097
9.36532e-05
-0.00047115
6.51341e-05
-0.000482602
3.17737e-05
-0.000484282
-5.59248e-06
-0.000475213
-4.5724e-05
-0.000454931
-8.64951e-05
-0.000423565
-0.000125384
-0.000382011
-0.000159439
-0.000332036
-0.000185583
-0.000276279
-0.000201023
-0.000218119
-0.000203731
-0.000161366
-0.000192927
-0.00010981
-0.000169451
-6.66881e-05
-0.000135916
-3.41695e-05
-9.65631e-05
-1.29975e-05
-5.6864e-05
-2.36152e-06
-2.29492e-05
-1.22104e-06
-9.91847e-06
3.39331e-05
-3.41727e-05
9.08352e-05
-6.85933e-05
0.000135249
-0.000110024
0.000167959
-0.000156084
0.00019049
-0.00020496
0.000204455
-0.000255224
0.000211243
-0.000305675
0.000211835
-0.00035521
0.000206742
-0.000402722
0.00019605
-0.000447025
0.000179528
-0.000486805
0.000156787
-0.00052061
0.000127458
-0.000546867
9.13903e-05
-0.000563929
4.88365e-05
-0.000570312
7.89912e-07
-0.000564486
-5.15496e-05
-0.000545564
-0.000105417
-0.000513207
-0.000157742
-0.000467965
-0.000204681
-0.000411467
-0.000242081
-0.000346515
-0.000265975
-0.000277004
-0.000273243
-0.000207608
-0.000262322
-0.00014324
-0.000233819
-8.83284e-05
-0.000190828
-4.60863e-05
-0.000138805
-1.79616e-05
-8.49887e-05
-3.41661e-06
-3.74942e-05
-4.63766e-06
-1.11725e-05
4.51056e-05
-3.83677e-05
0.00011803
-7.67993e-05
0.00017368
-0.000122898
0.000214058
-0.000174045
0.000241637
-0.000228321
0.000258731
-0.000284279
0.000267201
-0.000340753
0.000268308
-0.000396696
0.000262684
-0.000451051
0.000250405
-0.000502652
0.00023113
-0.00055015
0.000204286
-0.000591974
0.000169282
-0.000626325
0.000125741
-0.000651233
7.37453e-05
-0.000664559
1.41156e-05
-0.000664465
-5.16437e-05
-0.000649205
-0.000120677
-0.000617786
-0.00018916
-0.00057018
-0.000252287
-0.000507658
-0.000304602
-0.000433028
-0.000340605
-0.00035066
-0.00035561
-0.000266228
-0.000346755
-0.000186072
-0.000313974
-0.000116263
-0.000260637
-6.1532e-05
-0.000193537
-2.44002e-05
-0.000122121
-4.77857e-06
-5.71158e-05
-9.41623e-06
-1.22656e-05
5.73713e-05
-4.20432e-05
0.000147808
-8.40368e-05
0.000215674
-0.000134342
0.000264363
-0.000190155
0.000297451
-0.000249495
0.000318071
-0.00031094
0.000328647
-0.000373407
0.000330775
-0.000435956
0.000325233
-0.000497636
0.000312084
-0.000557349
0.000290843
-0.000613751
0.000260688
-0.000665173
0.000220704
-0.000709587
0.000170156
-0.000744622
0.00010878
-0.000767625
3.71183e-05
-0.000775972
-4.32967e-05
-0.000767096
-0.000129553
-0.00073909
-0.000217166
-0.000691068
-0.000300309
-0.000623647
-0.000372024
-0.000539364
-0.000424888
-0.000442904
-0.000452071
-0.000340955
-0.000448704
-0.000241573
-0.000413356
-0.000152995
-0.000349215
-8.21189e-05
-0.000264413
-3.31121e-05
-0.000171127
-6.67468e-06
-8.35532e-05
-1.60909e-05
-1.31862e-05
7.05575e-05
-4.51603e-05
0.000179782
-9.02249e-05
0.000260739
-0.000144218
0.000318356
-0.000204206
0.000357439
-0.00026819
0.000382054
-0.000334815
0.000395272
-0.000403121
0.000399081
-0.000472325
0.000394438
-0.000541631
0.000381389
-0.000610062
0.000359274
-0.000676324
0.000326949
-0.000738687
0.000283068
-0.000794916
0.000226384
-0.000842247
0.000156111
-0.000877445
7.2317e-05
-0.000897097
-2.36445e-05
-0.000897635
-0.000129016
-0.00087607
-0.00023873
-0.000830377
-0.000346003
-0.000760156
-0.000442245
-0.00066727
-0.000517773
-0.000556344
-0.000562998
-0.000434894
-0.000570153
-0.000312831
-0.00053542
-0.000201096
-0.000460949
-0.000109588
-0.000355921
-4.49787e-05
-0.000235737
-9.35101e-06
-0.000119181
-2.54419e-05
-1.39126e-05
8.44701e-05
-4.7654e-05
0.000213523
-9.5237e-05
0.000308322
-0.000152315
0.000375434
-0.000215876
0.000421
-0.000283934
0.000450113
-0.000355234
0.000466572
-0.000428975
0.000472822
-0.000504566
0.000470028
-0.000581407
0.00045823
-0.000658691
0.000436558
-0.000735224
0.000403482
-0.000809269
0.000357113
-0.000878435
0.00029555
-0.000939623
0.000217299
-0.000989057
0.000121751
-0.00102254
9.83431e-06
-0.00103552
-0.000116034
-0.00102381
-0.000250437
-0.000984027
-0.000385787
-0.000914367
-0.000511904
-0.000815484
-0.000616657
-0.000691323
-0.000687158
-0.00054971
-0.000711766
-0.000402232
-0.000682898
-0.000262941
-0.00060024
-0.000145714
-0.000473147
-6.09431e-05
-0.000320508
-1.30751e-05
-0.000167049
-3.8517e-05
-1.44182e-05
9.88882e-05
-4.94464e-05
0.000248552
-9.89205e-05
0.000357796
-0.000158375
0.000434889
-0.000224753
0.000487378
-0.000296109
0.000521468
-0.000371298
0.000541761
-0.000449695
0.000551219
-0.000530922
0.000551255
-0.000614603
0.000541912
-0.000700136
0.000522091
-0.000786475
0.000489822
-0.000871944
0.000442582
-0.000954088
0.000377693
-0.00102959
0.000292801
-0.0010943
0.000186457
-0.00114323
5.87717e-05
-0.00117123
-8.80373e-05
-0.00117282
-0.000248848
-0.00114318
-0.000415429
-0.00107879
-0.000576292
-0.000978491
-0.000716955
-0.000844695
-0.000820954
-0.000684585
-0.000871876
-0.000510737
-0.000856746
-0.000340327
-0.00077065
-0.000192169
-0.000621305
-8.19938e-05
-0.000430683
-1.81443e-05
-0.000230898
-5.66613e-05
-1.46792e-05
0.000113567
-5.04673e-05
0.00028434
-0.000101132
0.00040846
-0.000162139
0.000495896
-0.000230408
0.000555647
-0.000304031
0.000595091
-0.000381973
0.000619704
-0.000463776
0.000633022
-0.000549271
0.00063675
-0.000638312
0.000630953
-0.000730519
0.000614298
-0.000825037
0.00058434
-0.000920327
0.000537872
-0.00101399
0.000471355
-0.00110267
0.000381481
-0.00118204
0.000265827
-0.00124687
0.000123597
-0.00129127
-4.36336e-05
-0.00130902
-0.000231097
-0.00129393
-0.000430516
-0.00124062
-0.000629605
-0.00114556
-0.000812014
-0.00100864
-0.000957879
-0.000835022
-0.00104549
-0.000636917
-0.00105485
-0.00043389
-0.000973677
-0.000250292
-0.000804904
-0.00010912
-0.000571855
-2.48925e-05
-0.000315126
-8.15539e-05
-1.46833e-05
0.000128251
-5.068e-05
0.000320336
-0.000101782
0.000459562
-0.000163417
0.000557531
-0.000232476
0.000624706
-0.000307069
0.000669685
-0.000386244
0.000698878
-0.000469677
0.000716455
-0.000557381
0.000724454
-0.000649418
0.00072299
-0.000745628
0.000710508
-0.000845379
0.000684091
-0.000947345
0.000639837
-0.00104933
0.000573343
-0.00114817
0.000480323
-0.0012397
0.000357353
-0.00131879
0.000202685
-0.00137935
1.69254e-05
-0.00141487
-0.000195576
-0.00141816
-0.000427219
-0.00138212
-0.000665651
-0.00130056
-0.000893572
-0.00116992
-0.00108852
-0.000991767
-0.00122365
-0.000775824
-0.00127079
-0.000542273
-0.00120723
-0.000320685
-0.00102649
-0.000143209
-0.000749331
-3.36874e-05
-0.000424648
-0.000115241
-1.44411e-05
0.000142692
-5.01139e-05
0.000356009
-0.000100894
0.000510342
-0.000162171
0.000618808
-0.000230774
0.00069331
-0.000304796
0.000743706
-0.000383314
0.000777396
-0.000466091
0.000799232
-0.000553269
0.000811632
-0.000645076
0.000814796
-0.000741552
0.000806984
-0.000842306
0.000784845
-0.000946303
0.000743835
-0.00105171
0.000678749
-0.0011558
0.000584411
-0.00125491
0.000456468
-0.00134447
0.000292239
-0.00141896
9.14208e-05
-0.00147183
-0.000142707
-0.00149582
-0.000403229
-0.00148251
-0.00067896
-0.0014232
-0.00095288
-0.00131035
-0.00120137
-0.00114038
-0.00139362
-0.00091804
-0.00149313
-0.000661148
-0.00146412
-0.000402619
-0.00128502
-0.000184847
-0.000967103
-4.49057e-05
-0.000564589
-0.000160147
-1.39972e-05
0.000156689
-4.89002e-05
0.000390912
-9.8669e-05
0.000560111
-0.000158605
0.000678744
-0.000225428
0.000760132
-0.00029715
0.000815429
-0.000372824
0.00085307
-0.000452237
0.000878645
-0.000535598
0.000894993
-0.00062325
0.000902449
-0.000715409
0.000899142
-0.000811934
0.00088137
-0.000912154
0.000844055
-0.00101474
0.000781339
-0.00111765
0.000687321
-0.00121809
0.000556901
-0.00131247
0.000386621
-0.00139638
0.000175333
-0.00146389
-7.51988e-05
-0.0015086
-0.000358514
-0.00152152
-0.000666042
-0.00149206
-0.000982346
-0.0014088
-0.00128463
-0.00126217
-0.00154025
-0.00104952
-0.00170578
-0.000782431
-0.0017312
-0.000493321
-0.00157413
-0.000234032
-0.00122639
-5.88909e-05
-0.00073973
-0.000219038
-1.34446e-05
0.000170134
-4.73121e-05
0.00042478
-9.55492e-05
0.000608348
-0.000153266
0.000736461
-0.00021699
0.000823856
-0.000284595
0.000883034
-0.000355056
0.000923531
-0.00042813
0.000951719
-0.000504046
0.000970909
-0.000583221
0.000981623
-0.000666019
0.000981941
-0.000752574
0.000967925
-0.000842642
0.000934124
-0.000935535
0.000874232
-0.00103008
0.000781864
-0.0011246
0.000651419
-0.00121687
0.000478897
-0.00130414
0.000262599
-0.00138128
1.93965e-06
-0.00144422
-0.000295573
-0.00148384
-0.000626417
-0.00148893
-0.000977254
-0.00144515
-0.00132841
-0.00133699
-0.00164841
-0.00115285
-0.00188992
-0.000894229
-0.00198983
-0.000587407
-0.00188095
-0.000289854
-0.00152394
-7.59059e-05
-0.000953679
-0.000294944
-1.2941e-05
0.000183075
-4.58108e-05
0.000457649
-9.22954e-05
0.000654833
-0.00014713
0.000791295
-0.000206549
0.000883276
-0.000268241
0.000944726
-0.000331079
0.000986369
-0.000394775
0.00101541
-0.000459555
0.00103569
-0.000525896
0.00104796
-0.000594322
0.00105037
-0.000665263
0.00103887
-0.000738976
0.00100784
-0.000815501
0.000950757
-0.000894662
0.000861025
-0.000976056
0.000732813
-0.00105898
0.000561816
-0.00114208
0.000345706
-0.0012242
8.40605e-05
-0.00129973
-0.000220042
-0.00136311
-0.000563043
-0.00140341
-0.000936951
-0.00140487
-0.00132695
-0.00134734
-0.00170594
-0.00121022
-0.00202704
-0.000982083
-0.00221796
-0.00067681
-0.00218623
-0.000350218
-0.00185054
-9.61125e-05
-0.00120778
-0.000391056
-1.27329e-05
0.000195808
-4.51048e-05
0.000490021
-9.00652e-05
0.000699793
-0.000141688
0.000842918
-0.000195804
0.000937392
-0.000249912
0.000998833
-0.000302813
0.00103927
-0.000354212
0.00106681
-0.000404372
0.00108585
-0.000453862
0.00109745
-0.000503402
0.00109991
-0.000553775
0.00108924
-0.000605795
0.00105986
-0.00066031
0.00100527
-0.000718208
0.000918923
-0.000780404
0.000795009
-0.000847746
0.000629157
-0.0009208
0.000418761
-0.000999652
0.000162912
-0.00108201
-0.000137688
-0.00116362
-0.000481427
-0.00123558
-0.000864994
-0.00128269
-0.00127984
-0.00128248
-0.00170615
-0.00120707
-0.00210244
-0.00103137
-0.00239366
-0.000751454
-0.00246615
-0.000411734
-0.00219026
-0.000119614
-0.0014999
-0.000510671
-1.31991e-05
0.000209007
-4.62398e-05
0.000523062
-9.05145e-05
0.000744068
-0.000139023
0.000891427
-0.000187104
0.000985472
-0.000232129
0.00104386
-0.000272955
0.0010801
-0.000309402
0.00110326
-0.000341867
0.00111831
-0.0003711
0.00112669
-0.000398091
0.0011269
-0.000424039
0.00111519
-0.000450374
0.00108619
-0.000478775
0.00103367
-0.000511186
0.000951335
-0.000549777
0.0008336
-0.000596823
0.000676203
-0.000654465
0.000476403
-0.000724328
0.000232775
-0.000806596
-5.54205e-05
-0.000899114
-0.000388908
-0.00099568
-0.000768428
-0.00108349
-0.00119203
-0.00114061
-0.00164903
-0.00113515
-0.00210791
-0.0010301
-0.0024987
-0.00080077
-0.00269548
-0.000469884
-0.00252114
-0.000146569
-0.00182322
-0.00065724
-1.49348e-05
0.000223941
-5.07486e-05
0.000558876
-9.59392e-05
0.000789259
-0.00014189
0.000937378
-0.000183427
0.00102701
-0.000218005
0.00107844
-0.000244782
0.00110687
-0.00026391
0.00112239
-0.000276098
0.0011305
-0.000282406
0.001133
-0.000284187
0.00112868
-0.000283125
0.00111412
-0.000281285
0.00108435
-0.000281159
0.00103355
-0.000285663
0.000955839
-0.00029807
0.000846007
-0.000321848
0.000699981
-0.0003604
0.000514955
-0.000416664
0.000289039
-0.000492627
2.05428e-05
-0.000588245
-0.00029329
-0.000700325
-0.000656348
-0.000819767
-0.00107259
-0.000927946
-0.00154085
-0.000993124
-0.00204274
-0.000970545
-0.00252128
-0.000815117
-0.0028509
-0.000519339
-0.00281692
-0.000177274
-0.00216528
-0.000834513
-1.89214e-05
0.000242863
-6.09087e-05
0.000600863
-0.000109471
0.000837821
-0.00015376
0.000981667
-0.000188268
0.00106152
-0.00021096
0.00110113
-0.000221712
0.00111763
-0.000221333
0.00112201
-0.000211075
0.00112025
-0.000192465
0.00111438
-0.000167315
0.00110353
-0.000137816
0.00108463
-0.000106678
0.00105321
-7.71123e-05
0.00100398
-5.28774e-05
0.000931604
-3.81144e-05
0.000831244
-3.71324e-05
0.000698999
-5.41954e-05
0.000532018
-9.32561e-05
0.0003281
-0.000157528
8.48144e-05
-0.000248839
-0.000201979
-0.000366681
-0.000538506
-0.000506416
-0.000932855
-0.000654743
-0.00139253
-0.000784441
-0.00191304
-0.000848783
-0.00245694
-0.000786195
-0.00291349
-0.000554008
-0.00304911
-0.000212003
-0.00250729
-0.00104652
-2.68644e-05
0.000269727
-8.01642e-05
0.000654163
-0.0001353
0.000892957
-0.000178729
0.0010251
-0.000205225
0.00108801
-0.000214037
0.00110994
-0.000206382
0.00110997
-0.00018415
0.00109978
-0.000149397
0.00108549
-0.000104264
0.00106925
-5.10876e-05
0.00105035
7.42209e-06
0.00102612
6.8125e-05
0.000992512
0.000127193
0.000944912
0.000180299
0.000878498
0.000222675
0.000788867
0.000249342
0.000672332
0.000255403
0.000525956
0.000236336
0.000347166
0.000188209
0.000132942
0.000107755
-0.000121525
-6.88678e-06
-0.000423865
-0.000154735
-0.000785007
-0.000329868
-0.00121739
-0.00051304
-0.00172987
-0.000662048
-0.00230793
-0.000705777
-0.00286976
-0.000566228
-0.00318866
-0.000250205
-0.00282331
-0.00129672
-4.184e-05
0.000311567
-0.000113718
0.000726041
-0.000178694
0.000957933
-0.000220842
0.00106724
-0.000236686
0.00110386
-0.000228052
0.00110131
-0.000198341
0.00108026
-0.000151011
0.00105245
-8.91789e-05
0.00102366
-1.56962e-05
0.000995768
6.65854e-05
0.000968071
0.000154588
0.000938113
0.000244745
0.000902355
0.000332975
0.000856682
0.000414629
0.000796845
0.000484642
0.000718854
0.000537758
0.000619217
0.000568784
0.00049493
0.000572812
0.000343139
0.000545328
0.000160426
0.000482013
-5.82097e-05
0.000379201
-0.000321054
0.000233507
-0.000639313
4.4848e-05
-0.00102873
-0.000178137
-0.00150688
-0.000404722
-0.00208135
-0.000563081
-0.0027114
-0.000544611
-0.00320713
-0.000288555
-0.00307937
-0.00158528
-6.9432e-05
0.000380999
-0.000168997
0.000825607
-0.000244875
0.00103381
-0.000281356
0.00110372
-0.000279726
0.00110223
-0.000246354
0.00106793
-0.000187883
0.00102179
-0.000109841
0.000974406
-1.65821e-05
0.000930401
8.83133e-05
0.000890873
0.000201625
0.00085476
0.000320064
0.000819675
0.000440014
0.000782404
0.000557386
0.00073931
0.000667581
0.000686649
0.000765591
0.000620844
0.000846171
0.000538636
0.000904045
0.000437057
0.00093404
0.000313143
0.00093109
0.000163376
0.000889814
-1.69336e-05
0.00080495
-0.00023619
0.000670012
-0.000504375
0.000478817
-0.000837539
0.00022951
-0.00125757
-6.24146e-05
-0.00178942
-0.000340653
-0.00243317
-0.000470396
-0.00307738
-0.000317934
-0.00323183
-0.00190321
-0.000119467
0.000500466
-0.000254431
0.000960571
-0.000333316
0.0011127
-0.000349224
0.00111963
-0.000313686
0.00106669
-0.000240344
0.000994592
-0.000140217
0.00092166
-2.12176e-05
0.000855407
0.00011112
0.000798063
0.000252776
0.000749217
0.000400471
0.000707065
0.000551129
0.000669017
0.000701495
0.000632038
0.000847916
0.00059289
0.000986252
0.000548313
0.00111191
0.000495184
0.00121996
0.000430593
0.00130522
0.000351795
0.00136236
0.000256005
0.00138574
0.000139996
0.00136862
1.81356e-07
0.0013047
-0.000172264
0.00118451
-0.000384193
0.000997289
-0.000650314
0.000731866
-0.00099215
0.000386974
-0.00144453
2.73746e-06
-0.00204893
-0.000312282
-0.00276236
-0.000324984
-0.00321913
-0.00222819
-0.000207868
0.000708334
-0.000368874
0.00112158
-0.000414996
0.00115882
-0.000370409
0.00107504
-0.000265395
0.000961677
-0.000123486
0.000852683
3.98564e-05
0.000758318
0.000215136
0.000680128
0.000396678
0.00061652
0.000580997
0.000564898
0.000765669
0.000522394
0.000948594
0.000486091
0.00112754
0.000453096
0.00129984
0.000420586
0.0014623
0.000385856
0.00161112
0.000346365
0.00174196
0.000299749
0.00185
0.000243758
0.00192989
0.000176107
0.00197555
9.43361e-05
0.00197934
-3.60594e-06
0.00193335
-0.000126268
0.00182608
-0.00027693
0.00164342
-0.000467649
0.00136751
-0.000716245
0.000980244
-0.00105726
0.000483977
-0.00155266
-1.50812e-05
-0.00226331
-0.000267194
-0.00296702
-0.00249539
-0.000345394
0.00105373
-0.000438855
0.00121504
-0.00034831
0.00106827
-0.000159386
0.00088612
7.28253e-05
0.000729465
0.000319682
0.000605826
0.000566821
0.000511179
0.000807718
0.00043923
0.00103992
0.000384319
0.00126285
0.000341966
0.00147659
0.00030865
0.00168119
0.000281492
0.00187625
0.000258038
0.00206071
0.000236131
0.00223272
0.000213845
0.00238963
0.00018945
0.002528
0.000161384
0.00264356
0.000128199
0.00273124
8.84268e-05
0.00278501
4.05637e-05
0.00279812
-1.67213e-05
0.00275977
-8.79135e-05
0.00265839
-0.000175555
0.00247781
-0.00028707
0.00219613
-0.000434565
0.00178424
-0.000645367
0.001211
-0.000979423
0.000519709
-0.00157202
-2.12691e-05
-0.00242604
-0.00251666
-0.000305839
0.00135957
-5.6795e-05
0.000965993
0.000368938
0.00064254
0.000788823
0.000466236
0.0011724
0.000345884
0.00151563
0.000262599
0.00182098
0.000205835
0.00209343
0.000166778
0.0023385
0.000139248
0.00256112
0.000119343
0.00276524
0.000104534
0.00295369
9.30415e-05
0.0031282
8.35274e-05
0.0032894
7.49357e-05
0.00343684
6.64007e-05
0.00356909
5.71948e-05
0.00368378
4.67003e-05
0.0037776
3.43762e-05
0.00384622
1.98135e-05
0.00388394
2.84348e-06
0.00388647
-1.92583e-05
0.00384302
-4.4463e-05
0.003743
-7.55373e-05
0.00357117
-0.000115232
0.00330474
-0.000168138
0.00290791
-0.000248534
0.00232101
-0.000392523
0.00148707
-0.000738074
0.000505402
-0.00144437
-0.00201126
0.00135957
0.00232556
0.0029681
0.00343434
0.00378022
0.00404282
0.00424865
0.00441543
0.00455468
0.00467402
0.00477856
0.0048716
0.00495513
0.00503006
0.00509646
0.00515366
0.00520036
0.00523473
0.00525455
0.00525739
0.00523813
0.00519367
0.00511813
0.0050029
0.00483476
0.00458623
0.0041937
0.00345563
0.00201126
)
;

boundaryField
{
    movingWall
    {
        type            calculated;
        value           uniform 0;
    }
    fixedWalls
    {
        type            calculated;
        value           uniform 0;
    }
    frontAndBack
    {
        type            empty;
        value           nonuniform 0();
    }
}


// ************************************************************************* //
