/*--------------------------------*- C++ -*----------------------------------*\
  =========                 |
  \\      /  F ield         | OpenFOAM: The Open Source CFD Toolbox
   \\    /   O peration     | Website:  https://openfoam.org
    \\  /    A nd           | Version:  7
     \\/     M anipulation  |
\*---------------------------------------------------------------------------*/
FoamFile
{
    version     2.0;
    format      ascii;
    class       volVectorField;
    location    "2.7";
    object      U;
}
// * * * * * * * * * * * * * * * * * * * * * * * * * * * * * * * * * * * * * //

dimensions      [0 1 -1 0 0 0 0];

internalField   nonuniform List<vector> 
900
(
(5.66253e-05 -5.59738e-05 0)
(6.97425e-06 2.04134e-05 0)
(-0.000314395 0.000104182 0)
(-0.000820401 0.00015963 0)
(-0.00144536 0.000188784 0)
(-0.00212993 0.000199202 0)
(-0.00282935 0.000198063 0)
(-0.00351395 0.000190356 0)
(-0.00416459 0.000178845 0)
(-0.00476812 0.000164733 0)
(-0.00531421 0.000148308 0)
(-0.00579348 0.000129419 0)
(-0.00619651 0.00010776 0)
(-0.00651358 8.30419e-05 0)
(-0.00673479 5.50867e-05 0)
(-0.00685037 2.3884e-05 0)
(-0.00685121 -1.03566e-05 0)
(-0.00672958 -4.72061e-05 0)
(-0.00647994 -8.58936e-05 0)
(-0.00609997 -0.000125287 0)
(-0.00559179 -0.000163813 0)
(-0.00496348 -0.000199344 0)
(-0.00423084 -0.000229066 0)
(-0.0034195 -0.000249291 0)
(-0.00256733 -0.000255243 0)
(-0.00172669 -0.000240939 0)
(-0.000965252 -0.000199816 0)
(-0.000360794 -0.000126962 0)
(1.13873e-05 -2.48586e-05 0)
(6.53114e-05 6.36988e-05 0)
(-1.89165e-05 -8.11204e-06 0)
(-0.000396553 0.000394874 0)
(-0.00133086 0.000787431 0)
(-0.00263463 0.00106555 0)
(-0.00418427 0.00122689 0)
(-0.00586638 0.00129428 0)
(-0.00758562 0.00129462 0)
(-0.00927177 0.00124976 0)
(-0.010875 0.00117413 0)
(-0.0123587 0.00107578 0)
(-0.013694 0.000958389 0)
(-0.0148557 0.000823096 0)
(-0.0158204 0.000669893 0)
(-0.0165651 0.000498554 0)
(-0.0170676 0.000309231 0)
(-0.017307 0.000102839 0)
(-0.0172647 -0.000118664 0)
(-0.0169259 -0.000351836 0)
(-0.0162812 -0.000591602 0)
(-0.0153293 -0.00083084 0)
(-0.014079 -0.00105995 0)
(-0.0125531 -0.00126638 0)
(-0.0107917 -0.00143409 0)
(-0.00885637 -0.00154326 0)
(-0.00683366 -0.00157032 0)
(-0.00483778 -0.00148945 0)
(-0.00300805 -0.0012773 0)
(-0.00149269 -0.000923187 0)
(-0.00043246 -0.000449109 0)
(-1.65356e-05 1.32986e-05 0)
(-0.00010645 0.000315681 0)
(-0.00081613 0.00133571 0)
(-0.00230552 0.00224442 0)
(-0.00426954 0.00289709 0)
(-0.00654296 0.00328662 0)
(-0.00898235 0.0034546 0)
(-0.0114632 0.00345508 0)
(-0.0138901 0.00333556 0)
(-0.0161929 0.00313011 0)
(-0.0183185 0.00285964 0)
(-0.0202243 0.00253523 0)
(-0.0218739 0.00216184 0)
(-0.0232336 0.00174137 0)
(-0.024272 0.00127485 0)
(-0.024959 0.000764029 0)
(-0.0252671 0.000212321 0)
(-0.0251724 -0.000374304 0)
(-0.0246563 -0.000986425 0)
(-0.0237086 -0.00161056 0)
(-0.0223294 -0.00222819 0)
(-0.0205338 -0.00281471 0)
(-0.0183554 -0.00333842 0)
(-0.0158511 -0.00375964 0)
(-0.013106 -0.00403055 0)
(-0.0102374 -0.00409682 0)
(-0.00739648 -0.0039027 0)
(-0.00476359 -0.00340281 0)
(-0.00252581 -0.00258298 0)
(-0.000870686 -0.00149364 0)
(-0.000106485 -0.000334559 0)
(-0.000171838 0.000848338 0)
(-0.00115632 0.00270049 0)
(-0.00311496 0.00424118 0)
(-0.00562136 0.00533177 0)
(-0.00847029 0.00597996 0)
(-0.0114959 0.00625472 0)
(-0.0145549 0.0062418 0)
(-0.0175369 0.00601756 0)
(-0.0203593 0.00563832 0)
(-0.0229586 0.00514013 0)
(-0.0252836 0.00454331 0)
(-0.0272901 0.00385804 0)
(-0.028938 0.00308923 0)
(-0.0301898 0.00224017 0)
(-0.0310102 0.00131503 0)
(-0.0313672 0.000320779 0)
(-0.0312329 -0.000731356 0)
(-0.0305861 -0.00182452 0)
(-0.0294148 -0.00293471 0)
(-0.0277202 -0.00402924 0)
(-0.0255205 -0.00506506 0)
(-0.0228562 -0.00598708 0)
(-0.0197955 -0.00672719 0)
(-0.0164394 -0.0072046 0)
(-0.0129259 -0.00732954 0)
(-0.00943153 -0.00701245 0)
(-0.00616574 -0.00618223 0)
(-0.0033462 -0.00481541 0)
(-0.00120438 -0.00297624 0)
(-0.00016715 -0.000890865 0)
(-0.000216388 0.00154298 0)
(-0.00141427 0.0044114 0)
(-0.00375375 0.00667992 0)
(-0.00670112 0.0082523 0)
(-0.010013 0.00917295 0)
(-0.0135032 0.00954971 0)
(-0.0170143 0.00950579 0)
(-0.020426 0.00914938 0)
(-0.0236485 0.00856078 0)
(-0.0266125 0.00779234 0)
(-0.0292616 0.00687448 0)
(-0.0315468 0.0058233 0)
(-0.0334238 0.00464727 0)
(-0.0348508 0.0033523 0)
(-0.0357883 0.00194542 0)
(-0.0362 0.000437456 0)
(-0.0360538 -0.00115465 0)
(-0.0353247 -0.00280571 0)
(-0.0339975 -0.00447995 0)
(-0.0320714 -0.00612867 0)
(-0.0295648 -0.00768771 0)
(-0.0265215 -0.0090753 0)
(-0.0230171 -0.0101909 0)
(-0.0191646 -0.0109164 0)
(-0.0151193 -0.0111225 0)
(-0.0110804 -0.0106815 0)
(-0.0072849 -0.00949158 0)
(-0.00398169 -0.00751184 0)
(-0.0014451 -0.0048049 0)
(-0.000203289 -0.0015983 0)
(-0.000246495 0.00235779 0)
(-0.00160963 0.00639974 0)
(-0.00425854 0.00948384 0)
(-0.00757037 0.0115781 0)
(-0.0112667 0.0127818 0)
(-0.0151418 0.0132539 0)
(-0.0190259 0.013162 0)
(-0.0227914 0.0126498 0)
(-0.0263443 0.0118233 0)
(-0.0296122 0.0107521 0)
(-0.0325358 0.00947717 0)
(-0.0350638 0.0080205 0)
(-0.0371485 0.00639403 0)
(-0.0387448 0.0046061 0)
(-0.039809 0.0026662 0)
(-0.0403 0.000588728 0)
(-0.0401801 -0.0016039 0)
(-0.0394179 -0.00387806 0)
(-0.0379922 -0.00618556 0)
(-0.0358967 -0.00846018 0)
(-0.0331463 -0.0106142 0)
(-0.0297848 -0.0125353 0)
(-0.0258925 -0.0140859 0)
(-0.0215935 -0.0151051 0)
(-0.0170611 -0.0154179 0)
(-0.0125199 -0.0148528 0)
(-0.00823881 -0.0132712 0)
(-0.00450227 -0.0106075 0)
(-0.00162716 -0.00691394 0)
(-0.000224608 -0.00241302 0)
(-0.000268638 0.00326372 0)
(-0.00176702 0.00861262 0)
(-0.00467911 0.0125925 0)
(-0.00830755 0.0152474 0)
(-0.012342 0.0167458 0)
(-0.016558 0.0173084 0)
(-0.0207739 0.0171545 0)
(-0.0248562 0.0164677 0)
(-0.0287083 0.015382 0)
(-0.0322562 0.0139848 0)
(-0.0354397 0.0123276 0)
(-0.038206 0.010438 0)
(-0.0405053 0.00833087 0)
(-0.0422891 0.00601589 0)
(-0.0435093 0.00350404 0)
(-0.0441183 0.000812094 0)
(-0.0440709 -0.00203306 0)
(-0.0433265 -0.00499008 0)
(-0.0418536 -0.00799828 0)
(-0.0396363 -0.0109727 0)
(-0.0366815 -0.0137992 0)
(-0.0330293 -0.0163306 0)
(-0.0287626 -0.0183854 0)
(-0.024017 -0.0197524 0)
(-0.0189871 -0.0202026 0)
(-0.0139294 -0.0195125 0)
(-0.00915274 -0.0175004 0)
(-0.00498436 -0.0140719 0)
(-0.00178561 -0.00926714 0)
(-0.000239397 -0.0033107 0)
(-0.000287793 0.00424597 0)
(-0.00190837 0.011021 0)
(-0.00506283 0.0159726 0)
(-0.00898746 0.0192276 0)
(-0.0133421 0.0210345 0)
(-0.0178837 0.0216859 0)
(-0.0224196 0.0214601 0)
(-0.0268108 0.0205849 0)
(-0.0309589 0.0192246 0)
(-0.0347897 0.0174856 0)
(-0.0382433 0.0154295 0)
(-0.0412662 0.0130891 0)
(-0.043807 0.0104808 0)
(-0.0458142 0.0076142 0)
(-0.0472343 0.00449995 0)
(-0.0480121 0.00115515 0)
(-0.0480921 -0.00239085 0)
(-0.0474208 -0.00609063 0)
(-0.045952 -0.00987167 0)
(-0.0436544 -0.0136294 0)
(-0.0405218 -0.0172201 0)
(-0.0365852 -0.0204555 0)
(-0.0319278 -0.0231018 0)
(-0.0266969 -0.024886 0)
(-0.0211137 -0.0255134 0)
(-0.0154754 -0.024698 0)
(-0.0101427 -0.0222079 0)
(-0.00549653 -0.0179185 0)
(-0.00194892 -0.0118636 0)
(-0.000253106 -0.00428562 0)
(-0.000307262 0.00530098 0)
(-0.00205039 0.0136172 0)
(-0.00544804 0.019616 0)
(-0.00967159 0.0235123 0)
(-0.0143513 0.0256444 0)
(-0.0192258 0.0263858 0)
(-0.0240911 0.0260812 0)
(-0.0288036 0.0250076 0)
(-0.0332636 0.0233623 0)
(-0.0373982 0.0212713 0)
(-0.0411483 0.0188067 0)
(-0.0444611 0.0160051 0)
(-0.0472844 0.012883 0)
(-0.0495637 0.00944788 0)
(-0.0512399 0.00570734 0)
(-0.0522487 0.00167581 0)
(-0.0525218 -0.0026181 0)
(-0.0519888 -0.00712376 0)
(-0.0505831 -0.0117586 0)
(-0.0482514 -0.0163981 0)
(-0.0449663 -0.0208656 0)
(-0.0407433 -0.0249246 0)
(-0.0356605 -0.0282768 0)
(-0.0298768 -0.0305721 0)
(-0.023645 -0.0314329 0)
(-0.017315 -0.030496 0)
(-0.0113157 -0.0274708 0)
(-0.00609867 -0.0222037 0)
(-0.00213894 -0.0147342 0)
(-0.000268699 -0.00534572 0)
(-0.000329093 0.00643295 0)
(-0.00220486 0.0164098 0)
(-0.00586323 0.0235343 0)
(-0.0104063 0.0281157 0)
(-0.0154334 0.0305913 0)
(-0.0206639 0.0314255 0)
(-0.0258825 0.0310372 0)
(-0.0309415 0.0297578 0)
(-0.0357412 0.0278205 0)
(-0.0402106 0.0253722 0)
(-0.0442934 0.0224951 0)
(-0.0479386 0.0192288 0)
(-0.0510946 0.0155878 0)
(-0.0537046 0.0115749 0)
(-0.055704 0.00719118 0)
(-0.0570188 0.00244416 0)
(-0.0575654 -0.00264291 0)
(-0.0572525 -0.00802091 0)
(-0.0559866 -0.0136006 0)
(-0.0536837 -0.0192388 0)
(-0.0502849 -0.024723 0)
(-0.0457793 -0.0297595 0)
(-0.0402311 -0.0339706 0)
(-0.0338068 -0.0369076 0)
(-0.0267954 -0.0380857 0)
(-0.019614 -0.0370424 0)
(-0.0127828 -0.0334159 0)
(-0.0068498 -0.0270264 0)
(-0.0023745 -0.0179381 0)
(-0.000287617 -0.00650873 0)
(-0.000354546 0.00765132 0)
(-0.00237997 0.019419 0)
(-0.00632894 0.0277538 0)
(-0.0112254 0.0330665 0)
(-0.0166342 0.0359047 0)
(-0.0222543 0.0368345 0)
(-0.027859 0.0363578 0)
(-0.0332967 0.0348663 0)
(-0.0384692 0.0326324 0)
(-0.0433094 0.0298252 0)
(-0.0477653 0.0265373 0)
(-0.05179 0.0228098 0)
(-0.0553342 0.0186534 0)
(-0.0583409 0.014063 0)
(-0.0607413 0.00902861 0)
(-0.0624517 0.00354569 0)
(-0.0633722 -0.00237447 0)
(-0.0633862 -0.00869156 0)
(-0.0623665 -0.0153157 0)
(-0.0601876 -0.0220888 0)
(-0.056745 -0.0287614 0)
(-0.0519849 -0.0349738 0)
(-0.0459421 -0.0402501 0)
(-0.0387803 -0.0440141 0)
(-0.0308257 -0.0456383 0)
(-0.0225787 -0.0445273 0)
(-0.0146828 -0.0402273 0)
(-0.00782228 -0.0325348 0)
(-0.00267713 -0.0215662 0)
(-0.000310767 -0.00780131 0)
(-0.000384483 0.00896914 0)
(-0.0025818 0.022674 0)
(-0.00686069 0.0323113 0)
(-0.0121541 0.0384038 0)
(-0.0179875 0.0416231 0)
(-0.0240372 0.0426495 0)
(-0.0300647 0.0420781 0)
(-0.0359155 0.0403677 0)
(-0.0414948 0.0378337 0)
(-0.0467413 0.0346695 0)
(-0.0516104 0.0309779 0)
(-0.056062 0.0268008 0)
(-0.0600522 0.0221431 0)
(-0.063527 0.0169879 0)
(-0.0664161 0.0113097 0)
(-0.0686279 0.0050846 0)
(-0.0700473 -0.00169682 0)
(-0.0705295 -0.0090127 0)
(-0.0699056 -0.0167834 0)
(-0.0679973 -0.0248442 0)
(-0.0646356 -0.0329116 0)
(-0.0596995 -0.040553 0)
(-0.053168 -0.0471727 0)
(-0.0451803 -0.0520296 0)
(-0.0360911 -0.0543022 0)
(-0.0265 -0.0532085 0)
(-0.0172168 -0.0481658 0)
(-0.00912286 -0.0389443 0)
(-0.00307897 -0.0257521 0)
(-0.000339635 -0.00926168 0)
(-0.000419678 0.0104023 0)
(-0.00281578 0.0262105 0)
(-0.00747206 0.0372521 0)
(-0.0132139 0.0441747 0)
(-0.0195205 0.0477907 0)
(-0.026043 0.0489105 0)
(-0.0325304 0.0482341 0)
(-0.0388271 0.0462956 0)
(-0.0448435 0.0434581 0)
(-0.0505276 0.0399415 0)
(-0.0558451 0.0358594 0)
(-0.0607668 0.031254 0)
(-0.0652589 0.0261222 0)
(-0.069275 0.0204324 0)
(-0.0727483 0.0141376 0)
(-0.0755845 0.00718599 0)
(-0.0776555 -0.000463298 0)
(-0.0787891 -0.00881714 0)
(-0.0787699 -0.0178266 0)
(-0.0773529 -0.0273357 0)
(-0.0742818 -0.0370369 0)
(-0.0693345 -0.0464238 0)
(-0.0623925 -0.0547604 0)
(-0.0535284 -0.0610935 0)
(-0.0430996 -0.0643351 0)
(-0.0318121 -0.0634308 0)
(-0.0206963 -0.0576003 0)
(-0.0109228 -0.0465713 0)
(-0.0036343 -0.0306959 0)
(-0.000377832 -0.0109472 0)
(-0.000461083 0.0119698 0)
(-0.00308806 0.0300714 0)
(-0.00817768 0.042629 0)
(-0.0144266 0.0504321 0)
(-0.0212595 0.054455 0)
(-0.0282987 0.0556577 0)
(-0.0352808 0.0548595 0)
(-0.0420506 0.0526791 0)
(-0.048527 0.0495333 0)
(-0.0546705 0.0456708 0)
(-0.0604619 0.0412175 0)
(-0.0658877 0.036216 0)
(-0.0709298 0.0306539 0)
(-0.0755565 0.0244821 0)
(-0.0797132 0.0176271 0)
(-0.0833103 0.010001 0)
(-0.086211 0.00151832 0)
(-0.0882243 -0.00787857 0)
(-0.0890909 -0.0181918 0)
(-0.0884835 -0.0292997 0)
(-0.0860331 -0.0408956 0)
(-0.0813726 -0.0524113 0)
(-0.0742234 -0.0629577 0)
(-0.0645211 -0.0713168 0)
(-0.0525663 -0.076034 0)
(-0.0391568 -0.075648 0)
(-0.025603 -0.0690545 0)
(-0.0134984 -0.055887 0)
(-0.00443561 -0.0367057 0)
(-0.000433395 -0.0129493 0)
(-0.000510112 0.0136939 0)
(-0.0034069 0.0343072 0)
(-0.00899635 0.048503 0)
(-0.0158193 0.0572345 0)
(-0.0232353 0.0616656 0)
(-0.0308342 0.0629293 0)
(-0.0383402 0.0619822 0)
(-0.0456011 0.059539 0)
(-0.052548 0.056076 0)
(-0.0591587 0.0518748 0)
(-0.0654333 0.0470753 0)
(-0.0713802 0.0417213 0)
(-0.077004 0.0357915 0)
(-0.0822968 0.0292179 0)
(-0.0872259 0.0218963 0)
(-0.09172 0.0136954 0)
(-0.0956507 0.00447057 0)
(-0.0988181 -0.00591227 0)
(-0.100922 -0.0175352 0)
(-0.101553 -0.0303506 0)
(-0.100203 -0.0440974 0)
(-0.0963099 -0.058182 0)
(-0.0893492 -0.071569 0)
(-0.0790099 -0.0827271 0)
(-0.0654263 -0.0897069 0)
(-0.0494268 -0.090436 0)
(-0.032646 -0.0832624 0)
(-0.0172779 -0.0675942 0)
(-0.00563424 -0.0442614 0)
(-0.000521965 -0.015418 0)
(-0.000568996 0.0156026 0)
(-0.00378443 0.0389794 0)
(-0.00995445 0.0549454 0)
(-0.0174286 0.064647 0)
(-0.0254882 0.0694727 0)
(-0.0336867 0.0707591 0)
(-0.0417368 0.0696213 0)
(-0.0494931 0.066883 0)
(-0.0569037 0.0630874 0)
(-0.0639679 0.0585527 0)
(-0.0707113 0.0534356 0)
(-0.0771694 0.0477833 0)
(-0.083378 0.0415676 0)
(-0.0893627 0.0347023 0)
(-0.0951268 0.0270514 0)
(-0.100634 0.0184334 0)
(-0.105785 0.00863027 0)
(-0.110395 -0.00259143 0)
(-0.11414 -0.0154245 0)
(-0.116535 -0.0299662 0)
(-0.116923 -0.0460693 0)
(-0.11449 -0.063186 0)
(-0.108369 -0.0801802 0)
(-0.0978509 -0.0951821 0)
(-0.0827306 -0.105603 0)
(-0.0637247 -0.10847 0)
(-0.0427779 -0.10121 0)
(-0.0228793 -0.0827169 0)
(-0.0074626 -0.054102 0)
(-0.000670855 -0.0185981 0)
(-0.000641343 0.0177317 0)
(-0.00423898 0.044165 0)
(-0.0110904 0.0620416 0)
(-0.0193061 0.0727418 0)
(-0.0280731 0.0779261 0)
(-0.0369051 0.0791731 0)
(-0.0455059 0.0777821 0)
(-0.0537422 0.0747003 0)
(-0.0615846 0.0705456 0)
(-0.0690595 0.0656768 0)
(-0.0762221 0.0602705 0)
(-0.0831416 0.054381 0)
(-0.0898915 0.0479771 0)
(-0.0965413 0.0409589 0)
(-0.103145 0.0331615 0)
(-0.109723 0.0243526 0)
(-0.116232 0.014232 0)
(-0.122521 0.00244528 0)
(-0.128289 -0.0113684 0)
(-0.13301 -0.0275131 0)
(-0.135871 -0.0460596 0)
(-0.135776 -0.0666273 0)
(-0.13142 -0.0880851 0)
(-0.121528 -0.108254 0)
(-0.105316 -0.123775 0)
(-0.0831376 -0.130417 0)
(-0.057099 -0.124111 0)
(-0.0311101 -0.10267 0)
(-0.0102543 -0.0673268 0)
(-0.000924899 -0.0228786 0)
(-0.000733076 0.0201297 0)
(-0.00479873 0.0499632 0)
(-0.0124609 0.069896 0)
(-0.0215251 0.0816004 0)
(-0.0310652 0.0870735 0)
(-0.0405533 0.0881853 0)
(-0.0496902 0.0864499 0)
(-0.0583625 0.0829541 0)
(-0.0665698 0.0783971 0)
(-0.0743707 0.0731819 0)
(-0.0818542 0.0675079 0)
(-0.0891265 0.0614409 0)
(-0.0963038 0.0549533 0)
(-0.103507 0.0479394 0)
(-0.110853 0.0402143 0)
(-0.118436 0.031501 0)
(-0.126296 0.0214168 0)
(-0.134367 0.00946882 0)
(-0.142405 -0.00492784 0)
(-0.149884 -0.0223532 0)
(-0.155891 -0.0432296 0)
(-0.159056 -0.0675158 0)
(-0.157585 -0.0942661 0)
(-0.149496 -0.121112 0)
(-0.133167 -0.143873 0)
(-0.108224 -0.156689 0)
(-0.0765613 -0.15323 0)
(-0.0428866 -0.129237 0)
(-0.0144616 -0.0854831 0)
(-0.00135847 -0.0288529 0)
(-0.000854181 0.0228643 0)
(-0.00550751 0.0565067 0)
(-0.0141495 0.0786385 0)
(-0.0241886 0.0913132 0)
(-0.0345641 0.0969549 0)
(-0.0447096 0.0977888 0)
(-0.0543339 0.0955799 0)
(-0.0633547 0.0915697 0)
(-0.0718091 0.0865436 0)
(-0.0797926 0.0809499 0)
(-0.08743 0.0750127 0)
(-0.0948646 0.0688136 0)
(-0.102256 0.0623364 0)
(-0.109777 0.0554814 0)
(-0.117612 0.0480573 0)
(-0.125941 0.0397567 0)
(-0.134907 0.0301226 0)
(-0.144565 0.0185165 0)
(-0.154777 0.00410993 0)
(-0.165092 -0.0140508 0)
(-0.174579 -0.0368727 0)
(-0.181685 -0.0648554 0)
(-0.18418 -0.0974932 0)
(-0.179342 -0.132468 0)
(-0.164523 -0.164881 0)
(-0.138197 -0.187014 0)
(-0.101398 -0.189444 0)
(-0.0590158 -0.164342 0)
(-0.0206739 -0.110592 0)
(-0.00210416 -0.0373992 0)
(-0.00102212 0.0260347 0)
(-0.00643478 0.0639765 0)
(-0.0162797 0.0884317 0)
(-0.0274389 0.101977 0)
(-0.0386959 0.107592 0)
(-0.0494589 0.107941 0)
(-0.0594642 0.105079 0)
(-0.0686779 0.100416 0)
(-0.0771851 0.0948216 0)
(-0.0851223 0.0887878 0)
(-0.0926497 0.082562 0)
(-0.0999444 0.0762444 0)
(-0.107202 0.0698373 0)
(-0.114641 0.0632594 0)
(-0.122505 0.0563308 0)
(-0.131052 0.0487351 0)
(-0.140534 0.0399624 0)
(-0.151138 0.0292428 0)
(-0.162888 0.0154953 0)
(-0.175479 -0.00266266 0)
(-0.188093 -0.0267515 0)
(-0.199182 -0.0579818 0)
(-0.206296 -0.0965813 0)
(-0.206141 -0.140645 0)
(-0.195044 -0.184902 0)
(-0.169989 -0.219885 0)
(-0.130296 -0.232494 0)
(-0.0797536 -0.209465 0)
(-0.0296155 -0.145016 0)
(-0.00341026 -0.0497905 0)
(-0.00126895 0.0297916 0)
(-0.00769341 0.0726239 0)
(-0.0190348 0.0994765 0)
(-0.0314674 0.113682 0)
(-0.0436065 0.118966 0)
(-0.0548664 0.118536 0)
(-0.0650463 0.114777 0)
(-0.0741855 0.109271 0)
(-0.0824312 0.10297 0)
(-0.0899659 0.096395 0)
(-0.0969831 0.0898124 0)
(-0.103686 0.083339 0)
(-0.110296 0.0769999 0)
(-0.117056 0.0707414 0)
(-0.124247 0.0644118 0)
(-0.13218 0.0577099 0)
(-0.141188 0.0501041 0)
(-0.15158 0.040727 0)
(-0.163555 0.0282721 0)
(-0.177051 0.0109432 0)
(-0.191489 -0.0134302 0)
(-0.205593 -0.0469366 0)
(-0.217099 -0.0907478 0)
(-0.222562 -0.143815 0)
(-0.217596 -0.20112 0)
(-0.197638 -0.252087 0)
(-0.159499 -0.28003 0)
(-0.10405 -0.264587 0)
(-0.0420158 -0.191015 0)
(-0.00571909 -0.0678265 0)
(-0.00165667 0.0343741 0)
(-0.00947275 0.0828018 0)
(-0.0226866 0.11201 0)
(-0.0365198 0.126483 0)
(-0.0494335 0.130969 0)
(-0.0609156 0.129346 0)
(-0.070886 0.124364 0)
(-0.0794954 0.117772 0)
(-0.0869729 0.110576 0)
(-0.0935546 0.103313 0)
(-0.0994674 0.0962549 0)
(-0.104934 0.0895266 0)
(-0.110183 0.0831727 0)
(-0.115464 0.0771694 0)
(-0.121055 0.0714024 0)
(-0.127279 0.0656054 0)
(-0.134497 0.0592598 0)
(-0.143091 0.051455 0)
(-0.153414 0.0407335 0)
(-0.165669 0.0249817 0)
(-0.179705 0.00147241 0)
(-0.19478 -0.0327839 0)
(-0.209268 -0.08001 0)
(-0.220243 -0.140425 0)
(-0.223267 -0.210106 0)
(-0.212651 -0.278615 0)
(-0.182368 -0.326831 0)
(-0.1286 -0.326773 0)
(-0.0581346 -0.249726 0)
(-0.0097022 -0.0938925 0)
(-0.0023113 0.0401799 0)
(-0.0121014 0.0950045 0)
(-0.0276369 0.126279 0)
(-0.0428839 0.140327 0)
(-0.0562292 0.143312 0)
(-0.0673655 0.139928 0)
(-0.076428 0.133302 0)
(-0.0837348 0.125313 0)
(-0.0896271 0.116989 0)
(-0.0944102 0.108852 0)
(-0.0983507 0.101157 0)
(-0.101689 0.0940219 0)
(-0.104651 0.0874985 0)
(-0.107469 0.0815831 0)
(-0.110387 0.0761947 0)
(-0.113686 0.0711097 0)
(-0.117694 0.0658517 0)
(-0.122793 0.0595306 0)
(-0.12942 0.0506512 0)
(-0.138025 0.0369493 0)
(-0.148964 0.0153592 0)
(-0.162215 -0.0177228 0)
(-0.177202 -0.0655835 0)
(-0.192212 -0.129928 0)
(-0.203672 -0.208772 0)
(-0.205744 -0.293505 0)
(-0.190101 -0.364926 0)
(-0.147327 -0.389034 0)
(-0.0768075 -0.319497 0)
(-0.0161032 -0.130705 0)
(-0.00349723 0.0479038 0)
(-0.0161644 0.109909 0)
(-0.0344622 0.14246 0)
(-0.0508129 0.154898 0)
(-0.0637566 0.155348 0)
(-0.0734316 0.149442 0)
(-0.0803379 0.140647 0)
(-0.0850432 0.130899 0)
(-0.0880476 0.121188 0)
(-0.0897541 0.111982 0)
(-0.090485 0.103487 0)
(-0.0905053 0.0957905 0)
(-0.0900393 0.0889269 0)
(-0.0892863 0.082891 0)
(-0.0884367 0.0776166 0)
(-0.0876929 0.0729147 0)
(-0.0872958 0.0683647 0)
(-0.0875616 0.0631537 0)
(-0.0889258 0.0558722 0)
(-0.0919869 0.0443194 0)
(-0.0975054 0.0254206 0)
(-0.106237 -0.00462391 0)
(-0.118859 -0.0499422 0)
(-0.13527 -0.113512 0)
(-0.153697 -0.19581 0)
(-0.169559 -0.29173 0)
(-0.173822 -0.385238 0)
(-0.152064 -0.440543 0)
(-0.0943343 -0.394017 0)
(-0.0251751 -0.180382 0)
(-0.00577226 0.058825 0)
(-0.0227043 0.128384 0)
(-0.0438955 0.160411 0)
(-0.0602291 0.169289 0)
(-0.0709422 0.165728 0)
(-0.0770383 0.156333 0)
(-0.0796088 0.144769 0)
(-0.0795881 0.132904 0)
(-0.0777002 0.121601 0)
(-0.0744813 0.111208 0)
(-0.070328 0.101844 0)
(-0.0655376 0.0935314 0)
(-0.0603318 0.0862555 0)
(-0.0548748 0.0799777 0)
(-0.0492922 0.0746193 0)
(-0.0436957 0.0700038 0)
(-0.0382166 0.0657631 0)
(-0.0330621 0.0611944 0)
(-0.0285937 0.0550726 0)
(-0.0254242 0.045454 0)
(-0.0245236 0.0295507 0)
(-0.027342 0.00375902 0)
(-0.0355074 -0.03615 0)
(-0.0504756 -0.09405 0)
(-0.0729049 -0.172655 0)
(-0.100859 -0.271299 0)
(-0.127055 -0.380377 0)
(-0.134356 -0.468708 0)
(-0.104129 -0.461491 0)
(-0.0356471 -0.242781 0)
(-0.0102793 0.075444 0)
(-0.0334847 0.151344 0)
(-0.0564214 0.179111 0)
(-0.0696483 0.181332 0)
(-0.0743093 0.171795 0)
(-0.0729469 0.157828 0)
(-0.0675515 0.142978 0)
(-0.0595508 0.128822 0)
(-0.049941 0.115957 0)
(-0.039392 0.104518 0)
(-0.028352 0.0944829 0)
(-0.017125 0.0857631 0)
(-0.00590364 0.0782593 0)
(0.0052044 0.0718709 0)
(0.0161498 0.0664774 0)
(0.0269135 0.0618922 0)
(0.0374716 0.0577862 0)
(0.0477317 0.0535734 0)
(0.0574373 0.0482604 0)
(0.0660378 0.0402778 0)
(0.07252 0.0273372 0)
(0.075185 0.00638311 0)
(0.0718171 -0.0262637 0)
(0.0597418 -0.0746755 0)
(0.0362122 -0.142862 0)
(-0.000211728 -0.2341 0)
(-0.0466094 -0.347093 0)
(-0.0868647 -0.462291 0)
(-0.0977961 -0.5061 0)
(-0.0437589 -0.31419 0)
(-0.019117 0.102432 0)
(-0.0507949 0.1786 0)
(-0.069898 0.195198 0)
(-0.0722411 0.186289 0)
(-0.0632888 0.168577 0)
(-0.0479278 0.149304 0)
(-0.0292301 0.131225 0)
(-0.00905063 0.115235 0)
(0.0114784 0.101441 0)
(0.0317099 0.0896631 0)
(0.0513003 0.0796572 0)
(0.0700602 0.0711846 0)
(0.0879234 0.0640397 0)
(0.104905 0.0580461 0)
(0.121072 0.0530316 0)
(0.136515 0.0487924 0)
(0.15131 0.0450322 0)
(0.165463 0.0412787 0)
(0.178815 0.0367748 0)
(0.190907 0.030354 0)
(0.200798 0.0203279 0)
(0.206737 0.0044145 0)
(0.206369 -0.0201937 0)
(0.196427 -0.0569368 0)
(0.172837 -0.109892 0)
(0.131434 -0.184459 0)
(0.0695056 -0.286832 0)
(-0.00244794 -0.414298 0)
(-0.0664902 -0.511693 0)
(-0.0429888 -0.386219 0)
(-0.0341673 0.145609 0)
(-0.0720228 0.202708 0)
(-0.067332 0.197248 0)
(-0.0419333 0.172784 0)
(-0.00712661 0.146424 0)
(0.0304636 0.123159 0)
(0.0675978 0.103812 0)
(0.10284 0.0880285 0)
(0.135595 0.0751975 0)
(0.16572 0.0647598 0)
(0.193303 0.056237 0)
(0.218524 0.0492552 0)
(0.241608 0.043526 0)
(0.262805 0.0388218 0)
(0.28236 0.0349466 0)
(0.300503 0.0317022 0)
(0.317411 0.0288448 0)
(0.333163 0.0260294 0)
(0.347658 0.02274 0)
(0.360504 0.0182065 0)
(0.370848 0.0113227 0)
(0.377054 0.000585563 0)
(0.376868 -0.0156629 0)
(0.366815 -0.0398191 0)
(0.342221 -0.0749951 0)
(0.297645 -0.126387 0)
(0.225871 -0.203825 0)
(0.129284 -0.322651 0)
(0.00230326 -0.463142 0)
(-0.0205897 -0.437783 0)
(-0.0372729 0.236522 0)
(-0.0460416 0.205304 0)
(0.0308301 0.155104 0)
(0.103707 0.118943 0)
(0.171333 0.0916746 0)
(0.231383 0.0713522 0)
(0.283487 0.0564553 0)
(0.328403 0.0454545 0)
(0.367159 0.0371812 0)
(0.400736 0.0308589 0)
(0.42999 0.025965 0)
(0.455639 0.0221391 0)
(0.478286 0.0191255 0)
(0.49844 0.0167371 0)
(0.516524 0.0148254 0)
(0.532879 0.0132549 0)
(0.547749 0.011876 0)
(0.561248 0.0104953 0)
(0.573294 0.00884422 0)
(0.583509 0.00654602 0)
(0.591072 0.00308927 0)
(0.594706 -0.00219159 0)
(0.592369 -0.0101356 0)
(0.580796 -0.0219456 0)
(0.555259 -0.0391116 0)
(0.510584 -0.0648457 0)
(0.435905 -0.106553 0)
(0.329142 -0.189718 0)
(0.140359 -0.337667 0)
(0.0594778 -0.414186 0)
(0.231273 0.158488 0)
(0.291857 0.117407 0)
(0.442345 0.0763217 0)
(0.542143 0.0510067 0)
(0.609892 0.0345775 0)
(0.659697 0.0236572 0)
(0.697641 0.0164847 0)
(0.727081 0.0117791 0)
(0.750375 0.00864404 0)
(0.769192 0.0065135 0)
(0.784684 0.00503927 0)
(0.797656 0.00400339 0)
(0.808692 0.00326601 0)
(0.818226 0.00273477 0)
(0.826582 0.00234497 0)
(0.833994 0.00204518 0)
(0.840608 0.00178576 0)
(0.846464 0.00150885 0)
(0.851467 0.00113915 0)
(0.85534 0.000582579 0)
(0.857545 -0.000276389 0)
(0.85721 -0.0015236 0)
(0.85288 -0.00343844 0)
(0.842812 -0.00634801 0)
(0.823829 -0.0105066 0)
(0.793348 -0.0168452 0)
(0.738921 -0.0272311 0)
(0.660692 -0.0499824 0)
(0.456595 -0.111187 0)
(0.313793 -0.178336 0)
)
;

boundaryField
{
    movingWall
    {
        type            fixedValue;
        value           uniform (1 0 0);
    }
    fixedWalls
    {
        type            noSlip;
    }
    frontAndBack
    {
        type            empty;
    }
}


// ************************************************************************* //
