/*--------------------------------*- C++ -*----------------------------------*\
  =========                 |
  \\      /  F ield         | OpenFOAM: The Open Source CFD Toolbox
   \\    /   O peration     | Website:  https://openfoam.org
    \\  /    A nd           | Version:  7
     \\/     M anipulation  |
\*---------------------------------------------------------------------------*/
FoamFile
{
    version     2.0;
    format      ascii;
    class       volScalarField;
    location    "0.51";
    object      p;
}
// * * * * * * * * * * * * * * * * * * * * * * * * * * * * * * * * * * * * * //

dimensions      [0 2 -2 0 0 0 0];

internalField   nonuniform List<scalar> 
1936
(
2.30861e-05
-2906.88
-6431.99
-6391.8
-5837.68
-6176.17
-6276.53
-5623.73
-4676.73
-4174.44
-4195.25
-4838.92
-6511.52
-7259.07
-5420.98
-3758.85
-3567.63
-4238
-6515.84
-7637.04
-5568.41
-3679.06
-3386.11
-3687.97
-5297.35
-7434.3
-6738.3
-4172.64
-3277.27
-3483.04
-4897.67
-7402.93
-6993.66
-4332.44
-3339.72
-3424.81
-4809.03
-7354.12
-6986.05
-4379.11
-3347.96
-3332.65
-4512.32
-7356.15
-103.695
-2912.97
-6380.1
-6356.1
-5827.63
-6153.97
-6244.94
-5605.18
-4687.2
-4211.63
-4234.04
-4851.4
-6486.25
-7210.59
-5404.87
-3805.26
-3628.7
-4243.87
-6452.21
-7566.94
-5543.53
-3710.66
-3444.26
-3729.22
-5295.24
-7383.4
-6679.8
-4179.85
-3341.15
-3533.26
-4892.66
-7348.83
-6939.28
-4338.18
-3401.2
-3477.73
-4800.7
-7295.09
-6934.44
-4384.32
-3406.69
-3389.12
-4508.86
-7296.16
-425.651
-2937.76
-6190.76
-6259.31
-5807.01
-6085.72
-6152.96
-5557.5
-4720.36
-4304.26
-4333.74
-4905.56
-6416.28
-7052.08
-5373.19
-3934.62
-3774.44
-4279.61
-6280.6
-7346.84
-5495.72
-3808.46
-3580.71
-3852.17
-5312.49
-7217.37
-6508.45
-4221.52
-3497.17
-3666.42
-4909.93
-7175.3
-6775.1
-4381.47
-3550.98
-3614.76
-4807.4
-7109.2
-6778.86
-4428.49
-3549.85
-3530.37
-4534.38
-7110.51
-869.248
-2995.5
-5920.18
-6112.53
-5774.56
-5988.87
-6021.07
-5493.57
-4774.79
-4435.54
-4472.38
-4982.64
-6300.5
-6808.23
-5330.28
-4112.38
-3973.09
-4355.18
-6052.71
-7018.52
-5431.21
-3960.54
-3773.2
-4024.66
-5325.25
-6953.27
-6265.23
-4299.29
-3715.79
-3855.41
-4938.55
-6906.07
-6531.16
-4455.37
-3760.1
-3810.6
-4828.05
-6827.44
-6542.52
-4499.59
-3750.14
-3732.03
-4585.48
-6829.87
-1380.75
-3091.64
-5618.21
-5927.75
-5717.62
-5869.9
-5868.68
-5425.99
-4845.18
-4584.21
-4624.56
-5064.02
-6153.69
-6519.74
-5280.47
-4302.44
-4187.39
-4461.12
-5815.78
-6639.41
-5359.06
-4144.09
-3992.57
-4214.56
-5322.42
-6633.14
-5995.43
-4401.31
-3958.23
-4067.06
-4969.77
-6587.31
-6250.41
-4545.48
-3991.18
-4030.92
-4857.87
-6499.59
-6265.44
-4582.28
-3972.35
-3959.22
-4652.2
-6503.99
-1922.72
-3227.76
-5320.59
-5718.6
-5630.07
-5735.63
-5711.86
-5363.03
-4923.73
-4733.09
-4771.88
-5136.2
-5987.01
-6219.84
-5228.73
-4483.61
-4394.01
-4584.75
-5601.49
-6256.99
-5286.15
-4336.67
-4216.71
-4400.92
-5298.93
-6292.31
-5733.9
-4516.43
-4197.37
-4277.25
-4998.99
-6255.11
-5965.9
-4642.1
-4218.92
-4249.82
-4893.34
-6164.38
-5979.06
-4667.49
-4192.29
-4185.78
-4726.95
-6171.05
-2465.42
-3402.75
-5053.2
-5498.98
-5514.1
-5593.23
-5562.55
-5308.85
-5000.12
-4867.92
-4901.27
-5191.52
-5811.76
-5934.68
-5183.06
-4644.99
-4579.21
-4710.1
-5426.61
-5907.24
-5217.31
-4519.35
-4427.35
-4569.61
-5257.59
-5961.88
-5506.38
-4633
-4414.61
-4470.58
-5023.44
-5937.72
-5703.06
-4736.89
-4427.25
-4450.14
-4930.58
-5850.32
-5708.19
-4748.99
-4395.04
-4394.35
-4802.01
-5858.89
-2981.57
-3610.2
-4835.56
-5284.95
-5378.15
-5449.43
-5428.23
-5262.72
-5064.89
-4978.78
-5005.85
-5224.89
-5639.7
-5683.25
-5150.42
-4781.61
-4735.83
-4824.22
-5294.1
-5612.39
-5156.99
-4678.2
-4610.38
-4713.94
-5204.97
-5667.43
-5326.58
-4741.25
-4599.45
-4637.59
-5041.04
-5656.92
-5478.47
-4823.19
-4606.56
-4622
-4964.36
-5578.09
-5471.89
-4821.82
-4571.93
-4574.54
-4869.3
-5587.29
-3442.5
-3837.69
-4683.01
-5093.84
-5235.36
-5311.74
-5311.5
-5221.42
-5110.87
-5061.05
-5082.61
-5234.03
-5482.56
-5478.33
-5131.14
-4891.7
-4860.06
-4918.37
-5198.89
-5383.94
-5108.1
-4806.03
-4758.24
-4830.12
-5150.06
-5426.42
-5196.07
-4834.95
-4747.27
-4774.46
-5049.33
-5426.97
-5301.75
-4895.25
-4751.38
-4760.94
-4990.27
-5359.85
-5283.01
-4882.52
-4717.44
-4721.1
-4923.31
-5367.7
-3824.24
-4064.53
-4603.28
-4942.19
-5101.33
-5187.3
-5212.64
-5182.19
-5135.25
-5113.42
-5130.36
-5222.3
-5350.34
-5324.83
-5119.7
-4974.65
-4951.09
-4987.77
-5134.18
-5224.19
-5072.7
-4901.08
-4868.95
-4915.56
-5101.14
-5247.04
-5109.86
-4908.83
-4857.68
-4879.7
-5048.73
-5254.34
-5175.33
-4948.77
-4860.24
-4866.85
-5005.08
-5199.98
-5147.52
-4927.39
-4829.69
-4833.68
-4960.11
-5204.94
-4118.83
-4266.71
-4587.95
-4840.78
-4991.24
-5083.39
-5131.42
-5143.68
-5139.26
-5137.75
-5150.72
-5196.61
-5248.5
-5219.67
-5110.74
-5030.03
-5012.32
-5030.84
-5093.33
-5125.61
-5050.99
-4964.85
-4944.79
-4971.34
-5063.62
-5128.41
-5058.56
-4960.64
-4934.44
-4951.98
-5042.47
-5138.1
-5094.48
-4983.18
-4934.87
-4939.79
-5010.62
-5095.77
-5062.76
-4957.09
-4908.12
-4912.6
-4981.32
-5097.34
-4334.88
-4429.52
-4613.89
-4788.74
-4914.85
-5005.69
-5067.96
-5106.18
-5127.36
-5138.78
-5148.45
-5164.71
-5176.37
-5153.3
-5101.13
-5060.42
-5047.7
-5052.41
-5069.92
-5073.88
-5040.35
-5002.41
-4990.99
-5002.55
-5039.17
-5061.29
-5031.86
-4992.43
-4982.17
-4994.3
-5034.54
-5070.1
-5049.25
-5002.55
-4980.18
-4982.93
-5010.98
-5037.84
-5018.41
-4975.38
-4956.52
-4961.02
-4991.7
-5036.24
-4487.5
-4551.87
-4660.09
-4773.63
-4872.77
-4955.32
-5021.68
-5071.5
-5105.06
-5123.9
-5131.21
-5132.78
-5128.57
-5113.3
-5090.35
-5071.86
-5063.22
-5059.84
-5057.89
-5051.64
-5036.51
-5021.36
-5015.05
-5016.95
-5026.21
-5030.43
-5020.56
-5009.18
-5007.59
-5014.23
-5027.78
-5036.64
-5027.8
-5011.87
-5003.66
-5003.94
-5009.91
-5012.04
-5000.93
-4986.83
-4982.7
-4986.16
-4996.16
-5008.04
-4599.2
-4640.93
-4707.57
-4782.67
-4857.19
-4927.41
-4989.72
-5040.64
-5077.19
-5098.24
-5105.62
-5103.98
-5097.61
-5088.88
-5079.61
-5071.85
-5065.82
-5059.54
-5051.89
-5043.76
-5035.7
-5029.31
-5024.99
-5022.27
-5021.09
-5019.93
-5017.61
-5016.67
-5018.37
-5020.98
-5023.3
-5023.21
-5019.73
-5015.71
-5013.48
-5012
-5009.44
-5004.36
-4997.81
-4994.22
-4995.13
-4996.99
-4998.25
-4998.79
-4685.12
-4709.92
-4751.43
-4801.85
-4857.59
-4914.17
-4967.69
-5013.54
-5047.99
-5069.17
-5078.28
-5079.09
-5076.09
-5072.46
-5069.26
-5066.12
-5061.86
-5055.72
-5048.13
-5041.07
-5035.7
-5031.68
-5027.92
-5023.91
-5020.27
-5018.08
-5017.97
-5019.54
-5021.37
-5021.91
-5020.89
-5019.1
-5017.59
-5016.92
-5016.44
-5014.31
-5009.94
-5004.49
-5000.35
-4999.28
-5000.5
-5000.97
-4999.65
-4997.78
-4753.39
-4767
-4792.27
-4825.84
-4865.66
-4909.32
-4952.21
-4990.49
-5020.69
-5041.15
-5052.53
-5057.38
-5058.78
-5059
-5058.75
-5057.59
-5054.77
-5050.2
-5044.67
-5039.42
-5035.16
-5031.65
-5028.15
-5024.46
-5021.24
-5019.42
-5019.37
-5020.44
-5021.36
-5021.07
-5019.7
-5018.15
-5017.3
-5016.99
-5016.35
-5014.31
-5010.78
-5006.75
-5003.87
-5002.9
-5003.03
-5002.61
-5001.2
-4999.8
-4807.35
-4814.71
-4829.8
-4851.55
-4878.96
-4910.15
-4942.55
-4972.67
-4997.92
-5016.89
-5029.73
-5037.86
-5042.78
-5045.86
-5047.58
-5047.87
-5046.57
-5043.9
-5040.46
-5036.94
-5033.68
-5030.59
-5027.58
-5024.68
-5022.28
-5020.85
-5020.44
-5020.59
-5020.62
-5020.08
-5019.08
-5018.05
-5017.32
-5016.73
-5015.79
-5014.07
-5011.62
-5008.96
-5006.83
-5005.55
-5004.8
-5003.97
-5002.96
-5002.15
-4849.13
-4853.37
-4862.55
-4876.48
-4894.72
-4916.16
-4939.11
-4961.47
-4981.48
-4998.03
-5010.88
-5020.45
-5027.43
-5032.41
-5035.7
-5037.42
-5037.7
-5036.83
-5035.2
-5033.2
-5031.05
-5028.81
-5026.57
-5024.47
-5022.75
-5021.58
-5020.91
-5020.5
-5020.07
-5019.43
-5018.65
-5017.87
-5017.16
-5016.4
-5015.38
-5013.99
-5012.29
-5010.5
-5008.88
-5007.57
-5006.52
-5005.61
-5004.83
-5004.33
-4881.01
-4883.71
-4889.55
-4898.56
-4910.54
-4924.84
-4940.52
-4956.49
-4971.61
-4985.1
-4996.59
-5006.04
-5013.61
-5019.49
-5023.83
-5026.76
-5028.43
-5029.08
-5028.98
-5028.35
-5027.37
-5026.16
-5024.83
-5023.53
-5022.38
-5021.47
-5020.77
-5020.18
-5019.59
-5018.94
-5018.27
-5017.58
-5016.88
-5016.1
-5015.17
-5014.07
-5012.84
-5011.56
-5010.34
-5009.23
-5008.26
-5007.45
-5006.84
-5006.48
-4905.18
-4907.01
-4910.89
-4916.85
-4924.76
-4934.27
-4944.89
-4956.01
-4967.02
-4977.43
-4986.9
-4995.23
-5002.37
-5008.3
-5013.06
-5016.73
-5019.38
-5021.17
-5022.25
-5022.78
-5022.87
-5022.65
-5022.22
-5021.67
-5021.1
-5020.55
-5020.03
-5019.53
-5019
-5018.44
-5017.86
-5017.26
-5016.62
-5015.92
-5015.15
-5014.3
-5013.39
-5012.47
-5011.57
-5010.72
-5009.97
-5009.34
-5008.89
-5008.63
-4923.33
-4924.61
-4927.24
-4931.26
-4936.56
-4942.94
-4950.15
-4957.87
-4965.79
-4973.57
-4980.99
-4987.86
-4994.06
-4999.52
-5004.2
-5008.11
-5011.27
-5013.77
-5015.67
-5017.06
-5018.03
-5018.64
-5018.98
-5019.11
-5019.1
-5018.98
-5018.79
-5018.53
-5018.21
-5017.83
-5017.4
-5016.94
-5016.43
-5015.88
-5015.29
-5014.66
-5014.01
-5013.35
-5012.72
-5012.12
-5011.6
-5011.17
-5010.85
-5010.68
-4936.69
-4937.59
-4939.41
-4942.16
-4945.79
-4950.17
-4955.16
-4960.59
-4966.28
-4972.06
-4977.77
-4983.26
-4988.43
-4993.2
-4997.5
-5001.32
-5004.63
-5007.47
-5009.84
-5011.8
-5013.38
-5014.62
-5015.56
-5016.27
-5016.76
-5017.09
-5017.26
-5017.32
-5017.27
-5017.13
-5016.92
-5016.64
-5016.31
-5015.94
-5015.53
-5015.1
-5014.66
-5014.22
-5013.79
-5013.4
-5013.05
-5012.77
-5012.58
-5012.47
-4945.46
-4946.12
-4947.44
-4949.44
-4952.08
-4955.27
-4958.94
-4962.99
-4967.29
-4971.77
-4976.3
-4980.78
-4985.13
-4989.27
-4993.16
-4996.75
-5000.02
-5002.94
-5005.53
-5007.78
-5009.71
-5011.34
-5012.7
-5013.8
-5014.68
-5015.36
-5015.86
-5016.21
-5016.42
-5016.51
-5016.5
-5016.41
-5016.26
-5016.05
-5015.8
-5015.52
-5015.22
-5014.93
-5014.64
-5014.38
-5014.15
-5013.97
-5013.84
-5013.77
-4950.37
-4950.9
-4951.95
-4953.54
-4955.65
-4958.23
-4961.2
-4964.5
-4968.06
-4971.81
-4975.66
-4979.55
-4983.39
-4987.14
-4990.74
-4994.14
-4997.32
-5000.25
-5002.91
-5005.3
-5007.41
-5009.26
-5010.85
-5012.2
-5013.32
-5014.23
-5014.94
-5015.49
-5015.88
-5016.14
-5016.28
-5016.32
-5016.28
-5016.18
-5016.03
-5015.84
-5015.64
-5015.42
-5015.21
-5015.02
-5014.85
-5014.71
-5014.62
-5014.57
-4952.81
-4953.27
-4954.18
-4955.57
-4957.42
-4959.68
-4962.3
-4965.23
-4968.41
-4971.79
-4975.29
-4978.86
-4982.44
-4985.98
-4989.42
-4992.72
-4995.84
-4998.77
-5001.47
-5003.94
-5006.16
-5008.13
-5009.86
-5011.35
-5012.61
-5013.66
-5014.51
-5015.17
-5015.67
-5016.03
-5016.26
-5016.38
-5016.41
-5016.36
-5016.26
-5016.12
-5015.95
-5015.78
-5015.6
-5015.43
-5015.29
-5015.17
-5015.09
-5015.05
-4953.82
-4954.24
-4955.09
-4956.38
-4958.1
-4960.21
-4962.66
-4965.42
-4968.43
-4971.63
-4974.97
-4978.4
-4981.86
-4985.3
-4988.67
-4991.94
-4995.06
-4998
-5000.74
-5003.27
-5005.56
-5007.61
-5009.43
-5011.01
-5012.36
-5013.49
-5014.42
-5015.15
-5015.72
-5016.13
-5016.4
-5016.55
-5016.61
-5016.59
-5016.51
-5016.38
-5016.23
-5016.06
-5015.89
-5015.73
-5015.59
-5015.48
-5015.41
-5015.37
-4953.99
-4954.4
-4955.22
-4956.47
-4958.14
-4960.19
-4962.58
-4965.28
-4968.22
-4971.36
-4974.65
-4978.04
-4981.47
-4984.89
-4988.26
-4991.54
-4994.68
-4997.66
-5000.45
-5003.02
-5005.37
-5007.49
-5009.36
-5011
-5012.4
-5013.59
-5014.55
-5015.33
-5015.92
-5016.35
-5016.64
-5016.8
-5016.86
-5016.84
-5016.76
-5016.62
-5016.46
-5016.29
-5016.11
-5015.95
-5015.81
-5015.69
-5015.61
-5015.57
-4953.72
-4954.13
-4954.94
-4956.18
-4957.85
-4959.89
-4962.28
-4964.97
-4967.92
-4971.07
-4974.37
-4977.77
-4981.22
-4984.68
-4988.08
-4991.39
-4994.58
-4997.6
-5000.43
-5003.06
-5005.45
-5007.61
-5009.52
-5011.19
-5012.62
-5013.83
-5014.81
-5015.59
-5016.19
-5016.62
-5016.9
-5017.05
-5017.1
-5017.06
-5016.95
-5016.8
-5016.62
-5016.43
-5016.24
-5016.06
-5015.91
-5015.79
-5015.71
-5015.67
-4953.29
-4953.71
-4954.52
-4955.77
-4957.45
-4959.52
-4961.94
-4964.66
-4967.64
-4970.83
-4974.18
-4977.63
-4981.13
-4984.63
-4988.09
-4991.45
-4994.68
-4997.74
-5000.62
-5003.27
-5005.7
-5007.88
-5009.81
-5011.49
-5012.93
-5014.13
-5015.1
-5015.87
-5016.45
-5016.85
-5017.1
-5017.23
-5017.25
-5017.18
-5017.04
-5016.86
-5016.66
-5016.44
-5016.23
-5016.03
-5015.87
-5015.74
-5015.65
-5015.61
-4952.88
-4953.3
-4954.12
-4955.39
-4957.1
-4959.21
-4961.67
-4964.45
-4967.48
-4970.73
-4974.14
-4977.65
-4981.21
-4984.76
-4988.27
-4991.67
-4994.94
-4998.04
-5000.94
-5003.62
-5006.05
-5008.24
-5010.16
-5011.83
-5013.25
-5014.43
-5015.37
-5016.1
-5016.64
-5017
-5017.21
-5017.28
-5017.26
-5017.14
-5016.97
-5016.75
-5016.51
-5016.27
-5016.03
-5015.82
-5015.63
-5015.49
-5015.4
-5015.35
-4952.6
-4953.02
-4953.85
-4955.15
-4956.9
-4959.05
-4961.56
-4964.4
-4967.49
-4970.8
-4974.27
-4977.84
-4981.45
-4985.05
-4988.6
-4992.04
-4995.34
-4998.46
-5001.37
-5004.05
-5006.48
-5008.65
-5010.55
-5012.19
-5013.57
-5014.7
-5015.59
-5016.27
-5016.74
-5017.04
-5017.18
-5017.2
-5017.11
-5016.93
-5016.7
-5016.44
-5016.15
-5015.87
-5015.61
-5015.37
-5015.18
-5015.03
-5014.93
-5014.89
-4952.53
-4952.94
-4953.78
-4955.11
-4956.9
-4959.09
-4961.66
-4964.54
-4967.69
-4971.05
-4974.56
-4978.17
-4981.83
-4985.47
-4989.04
-4992.51
-4995.82
-4998.95
-5001.86
-5004.53
-5006.94
-5009.08
-5010.95
-5012.54
-5013.87
-5014.94
-5015.76
-5016.37
-5016.77
-5016.98
-5017.05
-5016.98
-5016.81
-5016.56
-5016.26
-5015.93
-5015.59
-5015.26
-5014.96
-5014.7
-5014.49
-5014.33
-5014.23
-5014.19
-4952.7
-4953.12
-4953.97
-4955.32
-4957.13
-4959.36
-4961.96
-4964.87
-4968.05
-4971.44
-4974.98
-4978.62
-4982.29
-4985.96
-4989.55
-4993.03
-4996.35
-4999.47
-5002.37
-5005.02
-5007.41
-5009.51
-5011.34
-5012.88
-5014.14
-5015.15
-5015.9
-5016.42
-5016.74
-5016.87
-5016.84
-5016.68
-5016.41
-5016.07
-5015.68
-5015.26
-5014.84
-5014.44
-5014.08
-5013.78
-5013.55
-5013.39
-5013.29
-5013.26
-4953.16
-4953.58
-4954.43
-4955.78
-4957.6
-4959.83
-4962.43
-4965.34
-4968.52
-4971.91
-4975.47
-4979.11
-4982.8
-4986.47
-4990.07
-4993.55
-4996.87
-4999.99
-5002.88
-5005.5
-5007.86
-5009.93
-5011.71
-5013.19
-5014.4
-5015.33
-5016.01
-5016.45
-5016.68
-5016.72
-5016.6
-5016.34
-5015.97
-5015.52
-5015.02
-5014.49
-5013.97
-5013.47
-5013.03
-5012.66
-5012.37
-5012.19
-5012.1
-5012.08
-4953.95
-4954.36
-4955.19
-4956.5
-4958.28
-4960.46
-4963.02
-4965.9
-4969.05
-4972.43
-4975.97
-4979.61
-4983.3
-4986.98
-4990.58
-4994.06
-4997.37
-5000.48
-5003.35
-5005.96
-5008.28
-5010.32
-5012.05
-5013.49
-5014.64
-5015.51
-5016.12
-5016.48
-5016.62
-5016.57
-5016.35
-5015.99
-5015.52
-5014.96
-5014.34
-5013.69
-5013.04
-5012.41
-5011.84
-5011.35
-5010.98
-5010.72
-5010.62
-5010.63
-4955.14
-4955.49
-4956.26
-4957.43
-4959.11
-4961.19
-4963.66
-4966.48
-4969.58
-4972.92
-4976.45
-4980.08
-4983.76
-4987.43
-4991.04
-4994.51
-4997.82
-5000.92
-5003.78
-5006.37
-5008.67
-5010.67
-5012.37
-5013.76
-5014.86
-5015.67
-5016.22
-5016.51
-5016.58
-5016.44
-5016.13
-5015.68
-5015.1
-5014.43
-5013.69
-5012.91
-5012.12
-5011.34
-5010.61
-5009.95
-5009.42
-5009
-5008.85
-5008.83
-4956.84
-4956.99
-4957.59
-4958.52
-4960.01
-4961.94
-4964.29
-4967.02
-4970.07
-4973.37
-4976.86
-4980.48
-4984.16
-4987.83
-4991.43
-4994.91
-4998.22
-5001.31
-5004.16
-5006.73
-5009.02
-5010.99
-5012.66
-5014.01
-5015.07
-5015.83
-5016.32
-5016.55
-5016.55
-5016.34
-5015.95
-5015.41
-5014.74
-5013.97
-5013.12
-5012.21
-5011.28
-5010.33
-5009.41
-5008.53
-5007.76
-5007.07
-5006.79
-5006.6
-4959.18
-4958.81
-4959.12
-4959.65
-4960.9
-4962.64
-4964.86
-4967.49
-4970.47
-4973.74
-4977.21
-4980.82
-4984.49
-4988.16
-4991.76
-4995.24
-4998.55
-5001.64
-5004.48
-5007.05
-5009.31
-5011.27
-5012.91
-5014.23
-5015.25
-5015.97
-5016.41
-5016.59
-5016.54
-5016.27
-5015.82
-5015.2
-5014.45
-5013.59
-5012.64
-5011.62
-5010.54
-5009.44
-5008.32
-5007.18
-5006.13
-5005.02
-5004.47
-5003.79
-4962.31
-4960.86
-4960.72
-4960.73
-4961.71
-4963.24
-4965.33
-4967.87
-4970.79
-4974.02
-4977.47
-4981.07
-4984.74
-4988.41
-4992.02
-4995.5
-4998.81
-5001.9
-5004.74
-5007.3
-5009.55
-5011.49
-5013.12
-5014.42
-5015.41
-5016.1
-5016.5
-5016.64
-5016.54
-5016.23
-5015.72
-5015.05
-5014.23
-5013.3
-5012.26
-5011.14
-5009.95
-5008.7
-5007.39
-5006
-5004.63
-5002.98
-5002.02
-5000.26
-4966.3
-4962.95
-4962.23
-4961.67
-4962.36
-4963.71
-4965.69
-4968.15
-4971.02
-4974.22
-4977.66
-4981.25
-4984.92
-4988.6
-4992.21
-4995.69
-4999.01
-5002.1
-5004.94
-5007.49
-5009.74
-5011.67
-5013.28
-5014.56
-5015.53
-5016.2
-5016.58
-5016.69
-5016.56
-5016.21
-5015.66
-5014.94
-5014.08
-5013.09
-5011.99
-5010.79
-5009.51
-5008.13
-5006.67
-5005.04
-5003.37
-5001.13
-4999.61
-4995.95
-4971.07
-4964.89
-4963.5
-4962.38
-4962.85
-4964.04
-4965.93
-4968.34
-4971.17
-4974.35
-4977.78
-4981.37
-4985.04
-4988.72
-4992.34
-4995.83
-4999.14
-5002.24
-5005.08
-5007.63
-5009.87
-5011.8
-5013.4
-5014.67
-5015.62
-5016.27
-5016.64
-5016.73
-5016.57
-5016.2
-5015.62
-5014.88
-5013.98
-5012.95
-5011.8
-5010.55
-5009.21
-5007.74
-5006.16
-5004.35
-5002.43
-4999.62
-4997.47
-4990.93
-4976.29
-4966.43
-4964.4
-4962.85
-4963.15
-4964.24
-4966.07
-4968.44
-4971.26
-4974.42
-4977.85
-4981.44
-4985.11
-4988.79
-4992.41
-4995.91
-4999.22
-5002.32
-5005.16
-5007.71
-5009.96
-5011.88
-5013.47
-5014.74
-5015.68
-5016.32
-5016.67
-5016.75
-5016.59
-5016.2
-5015.61
-5014.84
-5013.92
-5012.87
-5011.7
-5010.42
-5009.03
-5007.51
-5005.85
-5003.92
-5001.81
-4998.58
-4995.8
-4985.56
-4981.22
-4967.4
-4964.88
-4963.1
-4963.3
-4964.34
-4966.14
-4968.49
-4971.3
-4974.46
-4977.88
-4981.47
-4985.14
-4988.83
-4992.44
-4995.94
-4999.26
-5002.36
-5005.2
-5007.75
-5009.99
-5011.91
-5013.5
-5014.77
-5015.71
-5016.35
-5016.69
-5016.77
-5016.59
-5016.2
-5015.6
-5014.82
-5013.9
-5012.83
-5011.65
-5010.35
-5008.94
-5007.4
-5005.71
-5003.71
-5001.51
-4998.03
-4994.77
-4980.55
-4985.17
-4967.83
-4965.05
-4963.19
-4963.35
-4964.37
-4966.16
-4968.51
-4971.31
-4974.47
-4977.89
-4981.48
-4985.15
-4988.83
-4992.45
-4995.95
-4999.27
-5002.37
-5005.21
-5007.76
-5010
-5011.92
-5013.51
-5014.77
-5015.72
-5016.35
-5016.7
-5016.77
-5016.59
-5016.2
-5015.6
-5014.82
-5013.89
-5012.82
-5011.63
-5010.33
-5008.92
-5007.36
-5005.66
-5003.65
-5001.4
-4997.84
-4994.32
-4976.58
)
;

boundaryField
{
    movingWall
    {
        type            zeroGradient;
    }
    fixedWalls
    {
        type            zeroGradient;
    }
    frontAndBack
    {
        type            empty;
    }
    defaultFaces
    {
        type            empty;
    }
}


// ************************************************************************* //
