/*--------------------------------*- C++ -*----------------------------------*\
  =========                 |
  \\      /  F ield         | OpenFOAM: The Open Source CFD Toolbox
   \\    /   O peration     | Website:  https://openfoam.org
    \\  /    A nd           | Version:  7
     \\/     M anipulation  |
\*---------------------------------------------------------------------------*/
FoamFile
{
    version     2.0;
    format      ascii;
    class       surfaceScalarField;
    location    "0.51";
    object      phi;
}
// * * * * * * * * * * * * * * * * * * * * * * * * * * * * * * * * * * * * * //

dimensions      [0 3 -1 0 0 0 0];

internalField   nonuniform List<scalar> 
3784
(
-0.00236169
0.00236169
-0.00250091
0.000139218
-0.00131911
-0.0011818
-0.000501065
-0.00081804
-0.000270262
-0.000230805
0.000238731
-0.000508993
0.000961566
-0.000722835
0.0013865
-0.000424934
0.00114575
0.000240751
0.000287271
0.000858479
-0.000608187
0.000895458
-0.000894347
0.000286157
-0.000318907
-0.00057544
0.000783817
-0.00110272
0.00115182
-0.000368006
8.53377e-05
0.00106649
-0.00132663
0.00141197
-0.00146181
0.000135176
-1.16397e-05
-0.00145017
0.00158196
-0.0015936
0.00215106
-0.000569098
0.00142102
0.000730037
7.269e-05
0.00134833
-0.000877614
0.000950304
-0.000829501
-4.81135e-05
0.000327355
-0.00115686
0.00165971
-0.00133235
0.00149443
0.000165277
1.68902e-05
0.00147754
-0.00114338
0.00116026
-0.0010289
-0.000114472
0.000200044
-0.00122895
0.00143739
-0.00123734
0.00130571
0.000131677
-0.000116103
0.00142181
-0.00133932
0.00122322
-0.0011487
-0.000190621
0.000193014
-0.00134171
0.00136727
-0.00117426
0.00124799
0.00011928
-0.000110208
0.0013582
-0.00141743
0.00130722
-0.00133808
-7.93486e-05
-0.00133808
-0.00328836
0.00565004
-0.0035936
0.000444468
-0.00151407
-0.00326134
-0.000634094
-0.00169801
-0.000497299
-0.0003676
0.000191245
-0.00119753
0.00107241
-0.001604
0.00147902
-0.000831542
0.00113705
0.000582722
0.000354766
0.00164076
-0.000514034
0.00176426
-0.0011777
0.000949821
-0.000550429
-0.00120271
0.00107438
-0.00272753
0.00124658
-0.000540214
2.88247e-05
0.00228425
-0.00115593
0.00259672
-0.0016467
0.000625953
-0.000134443
-0.00296242
0.0020619
-0.00378995
0.00232524
-0.000832439
0.00132655
0.00172873
0.000235648
0.00243924
-0.000984736
0.00217069
-0.00133722
0.000304366
0.000363582
-0.00285766
0.00198442
-0.00295319
0.00141788
0.000731815
0.00011165
0.00278377
-0.00109208
0.00236399
-0.00151098
0.000304434
0.000240132
-0.00298006
0.00182891
-0.00282613
0.00119927
0.00076132
-4.94231e-05
0.00267051
-0.00126256
0.00243635
-0.00157388
0.000120699
0.000280392
-0.00319598
0.00178479
-0.00267865
0.00112807
0.000775999
-6.36918e-05
0.00254996
-0.00127404
0.00251757
-0.00180163
0.000448243
-0.00313971
-0.0031397
0.00878974
-0.00382102
0.00112579
-0.00192575
-0.00515661
-0.000758222
-0.00286554
-0.000479679
-0.000646146
0.000218785
-0.001896
0.00117516
-0.00256038
0.00158546
-0.00124183
0.00109561
0.00107257
0.000110708
0.00262566
-0.00089366
0.00276863
-0.00144992
0.00150608
-0.000451881
-0.00220074
0.00146217
-0.00464159
0.00173699
-0.000815032
0.000507704
0.00351353
-0.00090518
0.0040096
-0.00177187
0.00149264
-0.000378324
-0.00435597
0.00208563
-0.0062539
0.00249245
-0.00123926
0.00118868
0.0030325
-0.000287745
0.00391566
-0.00153531
0.00341826
-0.00148661
0.00025566
0.000679282
-0.00502354
0.00236544
-0.00463935
0.00156963
0.00152762
-6.883e-05
0.00442224
-0.00149389
0.00378905
-0.00175115
0.000561698
0.000373502
-0.00510472
0.0021887
-0.00464132
0.00150251
0.00144751
-5.1276e-05
0.00422429
-0.00155181
0.00393688
-0.00183914
0.000408032
0.000315917
-0.00535104
0.00213428
-0.00449701
0.00152021
0.00139007
3.07126e-05
0.00403945
-0.00152641
0.00407469
-0.00207816
0.000999997
-0.00521788
-0.00252248
0.0113122
-0.00344477
0.00204808
-0.00228521
-0.00631617
-0.00117911
-0.00397164
-0.000577271
-0.00124799
9.87736e-05
-0.00257205
0.00080579
-0.00326739
0.00101615
-0.00145219
0.00054803
0.00154069
-0.000155267
0.00332895
-0.000782149
0.00339551
-0.0010312
0.00175513
-0.000172377
-0.00305957
0.00120947
-0.00602343
0.00144027
-0.00104584
0.00076828
0.00418553
-8.49914e-05
0.00486287
-0.000919756
0.00232741
-0.000295045
-0.00498068
0.00137946
-0.00792841
0.00166156
-0.00152135
0.000611077
0.00408298
-0.000507127
0.00503387
-0.00127402
0.00418515
-0.000972248
-4.61118e-05
0.000675658
-0.00667145
0.0016905
-0.00565419
0.000998828
0.00221929
-0.000100878
0.00552194
-0.00105973
0.0047479
-0.00117036
0.000672332
0.000344803
-0.00661989
0.00156147
-0.005858
0.00106075
0.00194823
3.41374e-05
0.00525091
-0.000994877
0.0049659
-0.00123011
0.00064326
0.00024223
-0.00682337
0.00152528
-0.00578006
0.00113397
0.00178138
0.000137035
0.00503639
-0.000948148
0.00515988
-0.00138532
0.00143717
-0.0066032
-0.00186059
0.0131728
-0.00296893
0.00315642
-0.00250834
-0.00677677
-0.00159055
-0.00488943
-0.000752631
-0.00208591
-0.000157907
-0.00316677
0.000251743
-0.00367704
0.000283727
-0.00148418
-6.37484e-05
0.00188817
-0.000415739
0.00368095
-0.000640426
0.00362019
-0.000584626
0.00169933
0.000129724
-0.00377392
0.000916445
-0.00681015
0.00105828
-0.00118767
0.000848362
0.00439545
0.000516863
0.00519437
-0.00013522
0.00297949
-0.000203207
-0.00491269
0.000572557
-0.00870417
0.000721486
-0.00167028
9.67594e-05
0.00470771
-0.000577557
0.00570818
-0.000902341
0.00450993
-0.000424455
-0.000523999
0.000614885
-0.00771079
0.000929504
-0.00596881
0.000406069
0.00274273
-0.0001141
0.00604211
-0.000564508
0.00519831
-0.000577587
0.000685411
0.000296177
-0.00749365
0.000895275
-0.0064571
0.000560749
0.00228276
7.62271e-05
0.00573543
-0.000408438
0.00545056
-0.000597109
0.000831929
0.000162668
-0.00758315
0.000877496
-0.00649489
0.000655327
0.00200355
0.000171337
0.00552038
-0.00036423
0.00569544
-0.000681698
0.00175464
-0.0072849
-0.00106339
0.0142362
-0.00228829
0.00438132
-0.00249472
-0.00657034
-0.00187275
-0.00551139
-0.000999479
-0.00295918
-0.000550434
-0.00361582
-0.000445243
-0.00378223
-0.00054366
-0.00138576
-0.000642152
0.00198666
-0.000578735
0.00361753
-0.000400614
0.00344207
-0.000106618
0.00140533
0.000391572
-0.00427211
0.000556086
-0.00697466
0.000503589
-0.00113518
0.000647666
0.00425137
0.000777894
0.00506414
0.000494442
0.00326295
-8.75876e-05
-0.00433066
-0.000213211
-0.00857855
-0.000185693
-0.00169779
-0.000307403
0.00482942
-0.000432376
0.00583316
-0.000336878
0.00441443
0.000145771
-0.00100665
0.00047679
-0.00804181
0.000108455
-0.00560048
-0.000152303
0.00300349
-8.63893e-05
0.0059762
-6.95623e-05
0.00518148
5.22698e-07
0.000615326
0.000215981
-0.00770911
0.000184841
-0.00642596
5.1247e-05
0.00241635
7.98411e-05
0.00570684
0.000116888
0.00541352
1.07273e-05
0.00093809
7.91108e-05
-0.00765153
0.000201113
-0.00661689
0.000137695
0.00206696
0.000125127
0.00553295
0.000127399
0.00569317
-1.59255e-05
0.00189796
-0.00730082
-9.92159e-05
0.0143354
-0.00126155
0.00554366
-0.00211432
-0.00571758
-0.00194315
-0.00568257
-0.00124778
-0.00365455
-0.000989583
-0.00387401
-0.00114967
-0.00362214
-0.0012768
-0.00125863
-0.00108049
0.00179035
-0.000628156
0.0031652
-0.000143502
0.00295742
0.000358288
0.000903542
0.000557111
-0.00447093
0.000134069
-0.00655162
-0.000131673
-0.00086944
0.000281199
0.0038385
0.000787105
0.00455823
0.000889263
0.00316079
6.26222e-05
-0.00350402
-0.000810718
-0.00770521
-0.0009238
-0.00158471
-0.00055204
0.00445766
-0.000106667
0.00538778
0.000291781
0.00401598
0.000661648
-0.00137651
0.000254521
-0.00763468
-0.000628378
-0.00471758
-0.000597216
0.00297232
-3.60382e-05
0.00541502
0.000390368
0.00475507
0.000538011
0.000467681
9.86389e-05
-0.00726974
-0.000478682
-0.00584864
-0.000402262
0.00233993
7.58723e-05
0.0052287
0.000551784
0.0049376
0.000588064
0.00090181
2.39317e-06
-0.00706586
-0.000464817
-0.00614968
-0.000359464
0.00196161
3.37285e-05
0.00513975
0.000497649
0.00522925
0.000590482
0.00180513
-0.00671034
0.00105702
0.0132784
0.000209623
0.00639106
-0.00128376
-0.0042242
-0.0016783
-0.00528803
-0.00135124
-0.0039816
-0.00135853
-0.00386672
-0.00168845
-0.00329222
-0.00177416
-0.00117292
-0.00130922
0.00132541
-0.0005964
0.00245238
9.25007e-05
0.00226852
0.000736127
0.000259916
0.000566958
-0.00430176
-0.000373133
-0.00561154
-0.000691428
-0.000551149
-8.45223e-05
0.0032316
0.0007064
0.00376731
0.00114805
0.00271914
0.000290982
-0.00264696
-0.00113892
-0.00627531
-0.00137002
-0.0013536
-0.000646511
0.00373415
0.000221727
0.00451954
0.000866384
0.00337132
0.00100989
-0.00152002
-4.67109e-05
-0.00657808
-0.00117057
-0.00359372
-0.000884238
0.00268599
2.36409e-05
0.00450715
0.000721593
0.00405712
0.00096507
0.000224201
-3.83146e-05
-0.00626635
-0.00105149
-0.00483545
-0.000750981
0.00203942
8.30083e-05
0.00439471
0.000865327
0.00415529
0.0010476
0.000719533
-5.83018e-05
-0.00595996
-0.00103741
-0.00517058
-0.000782595
0.0017068
-4.32017e-05
0.00440036
0.00076441
0.00442164
0.00105711
0.00151243
-0.00565323
0.00212181
0.0111566
0.00192314
0.00658973
-7.72286e-06
-0.00229334
-0.000995229
-0.00430053
-0.00115999
-0.00381684
-0.00145853
-0.00356818
-0.00189573
-0.00285501
-0.00192736
-0.0011413
-0.00132347
0.000721516
-0.000477524
0.00160643
0.00033727
0.00145372
0.000944841
-0.000347662
0.000401702
-0.00375862
-0.000862088
-0.00434775
-0.00105664
-0.000356601
-0.000319014
0.00249398
0.000629051
0.00281924
0.00129996
0.00204823
0.000513092
-0.00186009
-0.00121885
-0.00454336
-0.00154898
-0.00102348
-0.000651354
0.00283652
0.000423638
0.00344455
0.00125971
0.00253525
0.00114866
-0.00140897
-0.000355479
-0.00507394
-0.00148928
-0.00245991
-0.000971184
0.00216788
0.000105568
0.00343039
0.000978182
0.00318451
0.00123762
-3.52423e-05
-0.000152622
-0.0048761
-0.001412
-0.00357607
-0.000919717
0.00154713
0.000108492
0.0033665
0.00103104
0.00323274
0.00134273
0.000407841
-9.69192e-05
-0.0045203
-0.00143113
-0.00383637
-0.00100753
0.0012832
-6.8025e-05
0.00346086
0.000891249
0.00346236
0.00135678
0.0010469
-0.00429646
0.00265448
0.00850211
0.00331021
0.00593399
0.0014545
-0.000437624
5.16737e-05
-0.0028977
-0.000629926
-0.00313524
-0.00122127
-0.00297684
-0.00173103
-0.00234525
-0.00174623
-0.0011261
-0.00115773
0.000133009
-0.000323059
0.000771764
0.000492624
0.000638042
0.000915658
-0.000770702
0.000108856
-0.00295182
-0.00120628
-0.00303261
-0.00127101
-0.000291866
-0.000455715
0.00167869
0.000456788
0.00190674
0.0012311
0.00127392
0.000566904
-0.0011959
-0.00112914
-0.00284732
-0.00149628
-0.00065633
-0.000568919
0.00190916
0.000510003
0.00236563
0.00138556
0.00165969
0.00108811
-0.00111153
-0.000575274
-0.00341056
-0.00153538
-0.0014998
-0.000891351
0.00152386
0.000147238
0.0023918
0.00114047
0.00219127
0.00131711
-0.000211887
-0.000218697
-0.00334029
-0.00146355
-0.00233121
-0.000922874
0.00100645
0.000128082
0.00231555
0.00112762
0.0022332
0.00140039
0.000135064
-0.000120517
-0.00299939
-0.00151177
-0.00244512
-0.00108715
0.00085858
-5.03261e-05
0.00242404
0.000979437
0.0024326
0.00143415
0.00059218
-0.0028623
0.0025039
0.00599821
0.00373122
0.00470667
0.00254012
0.000753481
0.00109358
-0.00145116
0.000101283
-0.00214293
-0.000700246
-0.00217531
-0.00125772
-0.00178778
-0.00132215
-0.00106168
-0.000864975
-0.000324164
-0.000167952
7.47356e-05
0.000511136
-4.10485e-05
0.000684832
-0.0009444
-0.000180312
-0.00208668
-0.00129618
-0.00191673
-0.00128998
-0.000298073
-0.000531795
0.000920506
0.00027695
0.00109799
0.000921138
0.000629733
0.000414594
-0.000689353
-0.00094092
-0.00149181
-0.0012589
-0.000338347
-0.000458991
0.00110925
0.000477062
0.00142958
0.00122246
0.000914294
0.00084355
-0.000732618
-0.000640792
-0.00192622
-0.00134623
-0.000794363
-0.000742088
0.000919713
0.000172212
0.0014775
0.00109871
0.00126478
0.00114781
-0.00026099
-0.000241373
-0.00195111
-0.00125627
-0.00131631
-0.000808075
0.000558254
0.000110302
0.00139717
0.00103791
0.0013056
0.00118807
-1.51016e-05
-0.000142145
-0.00166917
-0.0012988
-0.00128846
-0.000967276
0.000527052
-2.55551e-05
0.00148232
0.000932681
0.00147436
0.00125032
0.000274547
-0.00161199
0.00198964
0.00400857
0.00331312
0.00338318
0.00278419
0.00128241
0.00173794
-0.000404902
0.000728897
-0.00113389
-8.97957e-05
-0.00135662
-0.000631543
-0.00124603
-0.000762098
-0.000931125
-0.000495885
-0.000590378
-6.73615e-06
-0.000414415
0.00043194
-0.000479727
0.00039543
-0.000907894
-0.000345503
-0.00134574
-0.00112969
-0.00113254
-0.0011182
-0.000309566
-0.000551746
0.000354053
6.24308e-05
0.000483817
0.000483152
0.000209011
0.000144538
-0.000350741
-0.000713486
-0.000633782
-0.000923951
-0.000127878
-0.000359255
0.000544554
0.000340814
0.000729509
0.000845164
0.000409942
0.000499128
-0.000386582
-0.000554957
-0.000872129
-0.00100738
-0.000341934
-0.000558136
0.000470464
0.000145592
0.000773772
0.000830102
0.000580268
0.000783391
-0.000214279
-0.000223734
-0.000943984
-0.00091519
-0.000624857
-0.000616343
0.000259408
6.83225e-05
0.000712505
0.000751526
0.000622397
0.000785107
-4.86853e-05
-0.000149168
-0.000734891
-0.000925679
-0.000511949
-0.000708616
0.000309991
-1.21795e-05
0.000785878
0.000717197
0.000744984
0.000883327
0.000108421
-0.000728661
0.00122547
0.0027831
0.00230236
0.00230629
0.0023661
0.00121869
0.0017411
0.000220107
0.00101287
-0.000405655
0.000372552
-0.000716303
-5.90099e-05
-0.000814465
-0.000209654
-0.000780478
-0.00010051
-0.000699527
0.000131474
-0.000646404
0.000312909
-0.000661161
0.000170248
-0.000765235
-0.000350414
-0.000825085
-0.000823154
-0.000659797
-0.000839986
-0.000292729
-0.000507113
2.11806e-05
-0.000119685
9.63859e-05
9.79401e-05
-8.61523e-06
-8.49021e-05
-0.000167897
-0.000498673
-0.000220008
-0.000604989
-2.15624e-05
-0.00028039
0.000219952
0.000156961
0.000292156
0.000420468
0.000146436
0.000179317
-0.00014543
-0.000399071
-0.00029374
-0.00064727
-9.37346e-05
-0.00037999
0.000203182
7.606e-05
0.000317721
0.00046415
0.000192178
0.00038162
-0.000131747
-0.000191718
-0.000370649
-0.000582077
-0.000234495
-0.000421388
9.872e-05
5.65623e-06
0.000285459
0.000397303
0.000230752
0.0003709
-2.22825e-05
-0.00014343
-0.00022056
-0.000552629
-0.00010275
-0.000433559
0.000190921
-5.30685e-06
0.000357625
0.000431913
0.000307758
0.000493458
4.68745e-05
-0.0002352
0.000778468
0.00200463
0.00139847
0.0016863
0.00159095
0.0010262
0.0013496
0.000461456
0.000958846
-1.4893e-05
0.000575012
-0.000332472
0.000296821
-0.000536273
0.000165601
-0.000649252
0.000159035
-0.000692964
0.000201907
-0.000689287
0.000194969
-0.000654227
3.22468e-05
-0.000602508
-0.000265751
-0.000527085
-0.000517517
-0.000408032
-0.000555384
-0.000254861
-0.000399051
-0.00013515
-0.000205217
-9.74486e-05
-0.000121154
-9.26768e-05
-0.000196285
-9.27648e-05
-0.000350031
-6.62627e-05
-0.00036627
-5.32658e-06
-0.000209895
6.35734e-05
-1.37996e-06
8.36411e-05
0.000101515
4.35439e-05
-1.96656e-05
-2.42464e-05
-0.000267927
-4.54805e-05
-0.000370309
8.64529e-06
-0.00024065
7.35223e-05
-3.91008e-06
8.09801e-05
0.000160639
2.76308e-05
9.14016e-05
-6.25076e-05
-0.000168226
-0.000111023
-0.000339318
-6.34033e-05
-0.00027028
2.96833e-05
-5.78349e-05
7.30139e-05
0.000115981
5.69381e-05
8.53188e-05
8.381e-06
-0.000129509
-5.73009e-06
-0.000287541
5.52816e-05
-0.000220274
0.00012365
-5.22419e-06
0.000142574
0.000197208
0.000105325
0.000210177
3.3902e-05
-2.50221e-05
0.000550045
0.00145459
0.000914409
0.00132194
0.00104627
0.000894332
0.000999869
0.000507861
0.000804175
0.000180812
0.000602662
-0.000130953
0.000431786
-0.000365401
0.000308313
-0.000525783
0.000226055
-0.000610708
0.000157047
-0.000620283
7.03203e-05
-0.000567502
-5.25146e-05
-0.00047967
-0.00019624
-0.000383356
-0.000304831
-0.000299439
-0.000328386
-0.000231306
-0.000279586
-0.000183947
-0.000224656
-0.000152376
-0.000196423
-0.00012091
-0.000211145
-7.8046e-05
-0.000237783
-3.96279e-05
-0.000229199
-1.39126e-05
-0.000166939
1.31427e-06
-9.21807e-05
8.88646e-06
-6.20172e-05
1.33817e-05
-0.000104045
1.77797e-05
-0.000174061
2.45321e-05
-0.000194321
2.89036e-05
-0.000141221
2.04255e-05
-6.00236e-05
-2.16048e-07
-1.35647e-05
-1.88291e-05
-4.91336e-05
-2.69381e-05
-0.000138641
-2.15157e-05
-0.000191924
-1.01203e-05
-0.000163906
1.66658e-06
-9.45778e-05
3.68892e-06
-4.15372e-05
3.90102e-06
-5.00496e-05
1.6893e-05
-0.00010695
5.11676e-05
-0.000131416
7.97479e-05
-8.92904e-05
8.15225e-05
-6.30988e-06
5.95907e-05
5.971e-05
3.93075e-05
6.122e-05
3.23928e-05
3.61954e-05
0.000428714
0.00102586
0.000732046
0.00101861
0.000853263
0.000773119
0.00084958
0.000511543
0.000776794
0.000253598
0.0006287
1.71456e-05
0.000479427
-0.000216128
0.000334405
-0.000380769
0.000199146
-0.000475452
7.76961e-05
-0.000498829
-2.52791e-05
-0.000464523
-0.000110175
-0.000394774
-0.000170051
-0.000323478
-0.000204107
-0.000265379
-0.000211343
-0.000224066
-0.000202054
-0.000193233
-0.000192322
-0.000162109
-0.000188882
-0.000124355
-0.000183695
-8.32357e-05
-0.000172416
-5.09065e-05
-0.000156461
-2.98667e-05
-0.000134065
-2.10788e-05
-0.000114406
-1.07718e-05
-0.000106044
5.01766e-06
-0.000109363
2.10963e-05
-0.000113237
2.84038e-05
-0.000105366
2.10336e-05
-8.80484e-05
3.11086e-06
-7.47248e-05
-1.3538e-05
-7.39824e-05
-1.95738e-05
-8.7671e-05
-1.32505e-05
-0.000105864
-3.32005e-06
-0.000115131
-8.51151e-07
-0.000107149
-6.31421e-06
-9.31786e-05
-1.02809e-05
-8.49025e-05
-4.37219e-06
-8.45748e-05
1.65673e-05
-7.75821e-05
4.41724e-05
-5.72013e-05
5.93655e-05
-2.93328e-05
5.36567e-05
-6.05279e-06
3.63096e-05
6.0946e-06
2.71577e-05
4.40691e-06
3.40832e-05
4.06033e-05
0.000326773
0.000699089
0.000606372
0.000739007
0.000761293
0.000618203
0.000810442
0.000462396
0.000778832
0.000285205
0.000693933
0.000102043
0.000549358
-7.15518e-05
0.00038738
-0.000218791
0.000225678
-0.00031375
8.20152e-05
-0.000355164
-3.07842e-05
-0.000351722
-0.000102818
-0.000322739
-0.000142483
-0.00028381
-0.00015997
-0.000247885
-0.000165889
-0.000218143
-0.000168328
-0.000190797
-0.00016964
-0.000160803
-0.000166832
-0.000127165
-0.00015626
-9.3805e-05
-0.000140738
-6.64266e-05
-0.000123679
-4.69245e-05
-0.0001127
-3.20573e-05
-0.000104714
-1.87599e-05
-9.67207e-05
-2.97912e-06
-8.56219e-05
9.99616e-06
-7.18324e-05
1.46162e-05
-5.98361e-05
9.03869e-06
-5.51073e-05
-1.61783e-06
-5.78569e-05
-1.07884e-05
-6.51586e-05
-1.22724e-05
-7.06534e-05
-7.75506e-06
-7.08369e-05
-3.13444e-06
-6.84199e-05
-3.26529e-06
-6.75066e-05
-7.22658e-06
-6.90366e-05
-8.75272e-06
-7.0942e-05
-2.46624e-06
-6.68638e-05
1.24943e-05
-5.03947e-05
2.77082e-05
-2.79528e-05
3.69207e-05
-1.04707e-05
3.61721e-05
-4.80297e-06
3.06425e-05
-6.68418e-06
2.90362e-05
-6.03233e-06
3.34311e-05
3.45738e-05
0.000231604
0.000467487
0.000458992
0.000511618
0.000622314
0.000454879
0.000713823
0.000370888
0.000735286
0.000263742
0.000694974
0.000142356
0.000600229
2.31952e-05
0.00046872
-8.72785e-05
0.000323346
-0.000168375
0.000186363
-0.000218182
7.40301e-05
-0.000239389
-8.30754e-06
-0.000240399
-6.24517e-05
-0.00022966
-9.59642e-05
-0.000214368
-0.000117317
-0.000196792
-0.000131685
-0.000176434
-0.000139828
-0.000152661
-0.000140356
-0.000126632
-0.000133142
-0.000101016
-0.000121187
-7.83825e-05
-0.000108627
-5.94849e-05
-9.752e-05
-4.31643e-05
-8.81248e-05
-2.81566e-05
-7.55208e-05
-1.55859e-05
-6.03743e-05
-5.15097e-06
-4.49514e-05
-8.05245e-07
-3.39984e-05
-1.91367e-06
-3.00086e-05
-5.60772e-06
-3.28338e-05
-7.96258e-06
-3.70567e-05
-8.04765e-06
-3.86217e-05
-6.18811e-06
-3.71389e-05
-4.61768e-06
-3.56463e-05
-4.75901e-06
-3.7378e-05
-5.49463e-06
-4.1716e-05
-4.41285e-06
-4.5325e-05
1.14533e-06
-4.12797e-05
8.4503e-06
-3.06496e-05
1.70837e-05
-1.71588e-05
2.34308e-05
-7.42218e-06
2.64282e-05
-4.32815e-06
2.75463e-05
-4.65444e-06
2.93648e-05
-3.69985e-06
3.24778e-05
3.08745e-05
0.000156558
0.000310931
0.000322503
0.00034567
0.000460403
0.000316977
0.000559526
0.000271764
0.000612237
0.000211032
0.000615586
0.000139008
0.000576125
6.26575e-05
0.000499756
-1.091e-05
0.000401262
-6.98822e-05
0.000297801
-0.000114722
0.000202184
-0.00014377
0.000121335
-0.000159546
5.72279e-05
-0.000165551
7.49241e-06
-0.000164634
-3.08571e-05
-0.000158446
-5.98049e-05
-0.000147486
-7.95592e-05
-0.000132902
-9.03786e-05
-0.00011581
-9.33543e-05
-9.80428e-05
-9.07052e-05
-8.10332e-05
-8.48182e-05
-6.53701e-05
-7.69826e-05
-5.10005e-05
-6.72213e-05
-3.79222e-05
-5.60882e-05
-2.67208e-05
-4.29633e-05
-1.82751e-05
-3.03337e-05
-1.34354e-05
-2.15712e-05
-1.06767e-05
-1.74489e-05
-9.72805e-06
-1.67361e-05
-8.67418e-06
-1.71847e-05
-7.59951e-06
-1.73782e-05
-5.995e-06
-1.72189e-05
-4.77809e-06
-1.79028e-05
-4.07634e-06
-2.03805e-05
-3.01848e-06
-2.40078e-05
-7.84042e-07
-2.57118e-05
2.85558e-06
-2.49618e-05
7.69868e-06
-2.08561e-05
1.29749e-05
-1.51001e-05
1.76783e-05
-1.0145e-05
2.14732e-05
-7.26803e-06
2.4667e-05
-5.4996e-06
2.75979e-05
-3.18664e-06
3.01676e-05
2.76874e-05
0.000105762
0.000205166
0.000221843
0.000229586
0.000325332
0.000213488
0.000409086
0.000188012
0.000466534
0.000153584
0.000493303
0.000112238
0.000488881
6.70779e-05
0.000454002
2.39683e-05
0.00040274
-1.86198e-05
0.00034011
-5.20906e-05
0.000274387
-7.80446e-05
0.000211263
-9.64202e-05
0.000153783
-0.000108071
0.000103106
-0.000113959
5.95308e-05
-0.00011487
2.36911e-05
-0.000111641
-4.48771e-06
-0.000104719
-2.4964e-05
-9.53351e-05
-3.84314e-05
-8.4579e-05
-4.61275e-05
-7.33351e-05
-4.92986e-05
-6.21952e-05
-4.88217e-05
-5.14801e-05
-4.52435e-05
-4.15057e-05
-3.9282e-05
-3.2682e-05
-3.21119e-05
-2.54429e-05
-2.55746e-05
-1.99744e-05
-2.02677e-05
-1.59841e-05
-1.70006e-05
-1.29923e-05
-1.54272e-05
-1.02464e-05
-1.49117e-05
-8.11629e-06
-1.48557e-05
-6.05391e-06
-1.54279e-05
-4.20882e-06
-1.6925e-05
-2.57702e-06
-1.91494e-05
-7.93217e-07
-2.14351e-05
1.49805e-06
-2.29829e-05
4.40721e-06
-2.30936e-05
7.81245e-06
-2.14867e-05
1.13626e-05
-1.87613e-05
1.49513e-05
-1.55448e-05
1.82605e-05
-1.21617e-05
2.12862e-05
-8.4898e-06
2.39258e-05
-4.27522e-06
2.59524e-05
2.3411e-05
7.25352e-05
0.000132629
0.00015319
0.000148928
0.000227162
0.000139515
0.000290279
0.000124891
0.000338495
0.000105362
0.000368804
8.19259e-05
0.000379794
5.60849e-05
0.00037411
2.96502e-05
0.000351448
4.04245e-06
0.000318486
-1.91285e-05
0.000278888
-3.84468e-05
0.000236304
-5.38384e-05
0.000193446
-6.52138e-05
0.000152218
-7.27318e-05
0.000114022
-7.66709e-05
7.97963e-05
-7.74125e-05
5.05114e-05
-7.54346e-05
2.65054e-05
-7.13328e-05
7.64018e-06
-6.57148e-05
-6.50012e-06
-5.91929e-05
-1.65576e-05
-5.21391e-05
-2.29923e-05
-4.50506e-05
-2.6352e-05
-3.81484e-05
-2.73094e-05
-3.17228e-05
-2.67403e-05
-2.60126e-05
-2.55863e-05
-2.11306e-05
-2.45356e-05
-1.70337e-05
-2.39512e-05
-1.35759e-05
-2.36371e-05
-1.05631e-05
-2.38506e-05
-7.90259e-06
-2.4376e-05
-5.52878e-06
-2.51878e-05
-3.40291e-06
-2.63589e-05
-1.40565e-06
-2.77097e-05
5.62972e-07
-2.88376e-05
2.62263e-06
-2.93513e-05
4.91826e-06
-2.88697e-05
7.3351e-06
-2.72942e-05
9.78787e-06
-2.46495e-05
1.23035e-05
-2.10655e-05
1.46753e-05
-1.66164e-05
1.68377e-05
-1.13782e-05
1.86876e-05
-5.4917e-06
2.00651e-05
1.79193e-05
5.05902e-05
8.20366e-05
0.00010714
9.23768e-05
0.000159727
8.69276e-05
0.000205965
7.86485e-05
0.000243569
6.77552e-05
0.00027076
5.47348e-05
0.0002866
4.02475e-05
0.00029119
2.50608e-05
0.000284467
1.07674e-05
0.000270051
-4.71057e-06
0.000248538
-1.69329e-05
0.000222381
-2.76809e-05
0.00019348
-3.63122e-05
0.000163481
-4.27308e-05
0.00013378
-4.69664e-05
0.000105519
-4.91508e-05
7.95875e-05
-4.95041e-05
5.65667e-05
-4.83124e-05
3.67536e-05
-4.58996e-05
2.01391e-05
-4.25778e-05
6.72143e-06
-3.87249e-05
-3.861e-06
-3.44703e-05
-1.18993e-05
-3.01068e-05
-1.78228e-05
-2.57972e-05
-2.2095e-05
-2.17434e-05
-2.52062e-05
-1.80202e-05
-2.75704e-05
-1.46642e-05
-2.94803e-05
-1.16652e-05
-3.10618e-05
-8.98681e-06
-3.23703e-05
-6.5927e-06
-3.34632e-05
-4.43141e-06
-3.4396e-05
-2.47416e-06
-3.5211e-05
-5.93898e-07
-3.56414e-05
9.98634e-07
-3.56483e-05
2.63159e-06
-3.49804e-05
4.24734e-06
-3.34786e-05
5.8339e-06
-3.11299e-05
7.44219e-06
-2.78013e-05
8.9754e-06
-2.353e-05
1.04025e-05
-1.83713e-05
1.16778e-05
-1.24276e-05
1.27434e-05
-5.88193e-06
1.35196e-05
1.20385e-05
3.29959e-05
4.90371e-05
7.0054e-05
5.53152e-05
0.000104811
5.21663e-05
0.000135993
4.74585e-05
0.000162411
4.13328e-05
0.0001831
3.4045e-05
0.000197433
2.59148e-05
0.000205181
1.73113e-05
0.000207355
8.5911e-06
0.000202625
1.74882e-08
0.000193396
-7.70482e-06
0.000180169
-1.4455e-05
0.000164016
-2.01607e-05
0.000145946
-2.46616e-05
0.000126892
-2.79137e-05
0.000107683
-2.9944e-05
8.90136e-05
-3.08369e-05
7.14226e-05
-3.07218e-05
5.52805e-05
-2.9757e-05
4.08185e-05
-2.81181e-05
2.80638e-05
-2.59745e-05
1.7081e-05
-2.3488e-05
7.7827e-06
-2.08046e-05
4.49958e-08
-1.80585e-05
-6.34977e-06
-1.53527e-05
-1.16062e-05
-1.27643e-05
-1.59176e-05
-1.03477e-05
-1.94529e-05
-8.12894e-06
-2.23309e-05
-6.1136e-06
-2.46593e-05
-4.26404e-06
-2.64341e-05
-2.65175e-06
-2.77474e-05
-1.16168e-06
-2.8617e-05
2.72027e-07
-2.89887e-05
1.37198e-06
-2.87852e-05
2.43089e-06
-2.79804e-05
3.44186e-06
-2.65501e-05
4.40234e-06
-2.4417e-05
5.30982e-06
-2.15931e-05
6.15274e-06
-1.81079e-05
6.91771e-06
-1.40165e-05
7.58635e-06
-9.40743e-06
8.13433e-06
-4.41382e-06
8.52626e-06
7.62489e-06
2.12044e-05
2.78316e-05
4.51833e-05
3.13383e-05
6.78489e-05
2.95004e-05
8.85147e-05
2.67906e-05
0.000106556
2.32929e-05
0.000121462
1.91436e-05
0.000132871
1.45087e-05
0.000140602
9.58087e-06
0.000144649
4.54419e-06
0.000145039
-3.72859e-07
0.000142289
-4.95415e-06
0.000136801
-8.96653e-06
0.000129062
-1.24213e-05
0.000119595
-1.51942e-05
0.00010892
-1.72397e-05
9.75299e-05
-1.85552e-05
8.58669e-05
-1.91739e-05
7.43047e-05
-1.91579e-05
6.31403e-05
-1.85909e-05
5.25917e-05
-1.75703e-05
4.28135e-05
-1.61981e-05
3.38998e-05
-1.45728e-05
2.58916e-05
-1.27921e-05
1.88045e-05
-1.09698e-05
1.25732e-05
-9.12345e-06
7.14989e-06
-7.34076e-06
2.46869e-06
-5.66208e-06
-1.54253e-06
-4.11569e-06
-4.95088e-06
-2.70749e-06
-7.75563e-06
-1.45911e-06
-1.00625e-05
-3.41084e-07
-1.18647e-05
6.41727e-07
-1.31554e-05
1.56056e-06
-1.39896e-05
2.20566e-06
-1.43766e-05
2.81897e-06
-1.43142e-05
3.37936e-06
-1.37967e-05
3.88351e-06
-1.28284e-05
4.34063e-06
-1.14282e-05
4.75276e-06
-9.6289e-06
5.11899e-06
-7.47692e-06
5.43492e-06
-5.03519e-06
5.6929e-06
-2.38666e-06
5.8777e-06
5.23687e-06
1.48501e-05
1.29797e-05
3.17223e-05
1.44657e-05
4.77845e-05
1.34347e-05
6.26137e-05
1.19578e-05
7.58277e-05
1.00791e-05
8.71083e-05
7.86364e-06
9.62158e-05
5.40059e-06
0.00010301
2.78577e-06
0.000107424
1.28253e-07
0.000109528
-2.47922e-06
0.000109426
-4.8547e-06
0.000107428
-6.96931e-06
0.00010374
-8.7342e-06
9.86445e-05
-1.00995e-05
9.24411e-05
-1.10382e-05
8.54305e-05
-1.15465e-05
7.78981e-05
-1.16417e-05
7.0101e-05
-1.13594e-05
6.22603e-05
-1.07489e-05
5.45582e-05
-9.86893e-06
4.71423e-05
-8.78386e-06
4.01293e-05
-7.55932e-06
3.35985e-05
-6.25859e-06
2.75557e-05
-4.92637e-06
2.20619e-05
-3.63161e-06
1.71257e-05
-2.40485e-06
1.2735e-05
-1.26844e-06
8.86329e-06
-2.42058e-07
5.49048e-06
6.64236e-07
2.58671e-06
1.44434e-06
1.47875e-07
2.09994e-06
-1.84089e-06
2.63175e-06
-3.33707e-06
3.0555e-06
-4.52166e-06
3.38883e-06
-5.35332e-06
3.65027e-06
-5.832e-06
3.85761e-06
-5.97383e-06
4.02412e-06
-5.79598e-06
4.16124e-06
-5.32216e-06
4.27767e-06
-4.58335e-06
4.37921e-06
-3.61803e-06
4.46866e-06
-2.47196e-06
4.54567e-06
-1.20031e-06
4.60458e-06
4.03509e-06
1.05124e-05
2.46922e-06
2.24193e-05
2.56139e-06
3.37952e-05
2.05785e-06
4.43797e-05
1.37289e-06
5.393e-05
5.31078e-07
6.22285e-05
-4.33721e-07
6.90561e-05
-1.42658e-06
7.43671e-05
-2.52441e-06
7.81198e-05
-3.62445e-06
8.03103e-05
-4.67086e-06
8.10083e-05
-5.55335e-06
8.02978e-05
-6.25834e-06
7.83179e-05
-6.75308e-06
7.52372e-05
-7.01815e-06
7.12441e-05
-7.04538e-06
6.65357e-05
-6.83862e-06
6.13052e-05
-6.41076e-06
5.57347e-05
-5.78701e-06
4.99922e-05
-5.00474e-06
4.42213e-05
-4.09836e-06
3.85487e-05
-3.11255e-06
3.30754e-05
-2.08588e-06
2.78756e-05
-1.05717e-06
2.30245e-05
-7.48479e-08
1.854e-05
8.5159e-07
1.44951e-05
1.63972e-06
1.08699e-05
2.35898e-06
7.6532e-06
2.97681e-06
4.82508e-06
3.49242e-06
2.39791e-06
3.87143e-06
3.66355e-07
4.13288e-06
-1.2993e-06
4.29867e-06
-2.61034e-06
4.3662e-06
-3.58714e-06
4.36451e-06
-4.24645e-06
4.30878e-06
-4.60565e-06
4.21618e-06
-4.68656e-06
4.10398e-06
-4.51336e-06
3.98643e-06
-4.1127e-06
3.87507e-06
-3.51572e-06
3.78015e-06
-2.75736e-06
3.70812e-06
-1.87536e-06
3.66144e-06
-9.1225e-07
3.63934e-06
3.12223e-06
6.89433e-06
-4.42445e-06
1.46103e-05
-5.15432e-06
2.19715e-05
-5.30527e-06
2.88247e-05
-5.48057e-06
3.50021e-05
-5.64503e-06
4.03559e-05
-5.78796e-06
4.48192e-05
-5.88981e-06
4.82444e-05
-5.94854e-06
5.05594e-05
-5.93925e-06
5.17338e-05
-5.84606e-06
5.183e-05
-5.6498e-06
5.09132e-05
-5.34078e-06
4.90774e-05
-4.91585e-06
4.64388e-05
-4.37872e-06
4.31276e-05
-3.73437e-06
3.92817e-05
-2.99378e-06
3.50555e-05
-2.18498e-06
3.05891e-05
-1.32019e-06
2.60114e-05
-4.2659e-07
2.14368e-05
4.75421e-07
1.69865e-05
1.33602e-06
1.27386e-05
2.16145e-06
8.77605e-06
2.90616e-06
5.10913e-06
3.59234e-06
1.79897e-06
4.16078e-06
-1.17183e-06
4.61017e-06
-3.75672e-06
4.94542e-06
-5.93266e-06
5.15462e-06
-7.69717e-06
5.25738e-06
-9.07569e-06
5.24974e-06
-1.00848e-05
5.14244e-06
-1.07353e-05
4.94982e-06
-1.10592e-05
4.68987e-06
-1.10755e-05
4.37985e-06
-1.08038e-05
4.03628e-06
-1.0267e-05
3.67873e-06
-9.48725e-06
3.32368e-06
-8.49337e-06
2.99171e-06
-7.31819e-06
2.69872e-06
-5.99152e-06
2.45202e-06
-4.54364e-06
2.25859e-06
-3.00599e-06
2.12211e-06
-1.41183e-06
2.04367e-06
1.71021e-06
3.59363e-06
-8.01716e-06
7.61913e-06
-9.17882e-06
1.14282e-05
-9.11447e-06
1.4858e-05
-8.90851e-06
1.77962e-05
-8.58171e-06
2.01469e-05
-8.13908e-06
2.18393e-05
-7.58099e-06
2.28041e-05
-6.91117e-06
2.29945e-05
-6.12859e-06
2.23991e-05
-5.25046e-06
2.10538e-05
-4.30412e-06
1.90273e-05
-3.31363e-06
1.64057e-05
-2.29341e-06
1.32781e-05
-1.25075e-06
9.74116e-06
-1.98286e-07
5.8827e-06
8.62948e-07
1.8568e-06
1.83939e-06
-2.19044e-06
2.72648e-06
-6.21172e-06
3.59453e-06
-1.01468e-05
4.40972e-06
-1.37599e-05
4.94783e-06
-1.70865e-05
5.48769e-06
-2.00807e-05
5.90116e-06
-2.26681e-05
6.18028e-06
-2.48259e-05
6.31808e-06
-2.65358e-05
6.31983e-06
-2.77834e-05
6.19392e-06
-2.85755e-05
5.94807e-06
-2.89142e-05
5.59653e-06
-2.88188e-05
5.15407e-06
-2.8309e-05
4.63253e-06
-2.74084e-05