/*--------------------------------*- C++ -*----------------------------------*\
  =========                 |
  \\      /  F ield         | OpenFOAM: The Open Source CFD Toolbox
   \\    /   O peration     | Website:  https://openfoam.org
    \\  /    A nd           | Version:  7
     \\/     M anipulation  |
\*---------------------------------------------------------------------------*/
FoamFile
{
    version     2.0;
    format      ascii;
    class       volVectorField;
    location    "0.51";
    object      U;
}
// * * * * * * * * * * * * * * * * * * * * * * * * * * * * * * * * * * * * * //

dimensions      [0 1 -1 0 0 0 0];

internalField   nonuniform List<vector> 
1936
(
(-10.9277 3.06794 0)
(-68.1471 188.224 0)
(-24.7663 413.239 0)
(1.52046 412.971 0)
(-9.13872 378.619 0)
(-4.05874 399.632 0)
(8.51188 405.164 0)
(21.5014 363.604 0)
(21.935 304.05 0)
(11.2034 273.149 0)
(-2.50278 274.523 0)
(-12.2515 314.181 0)
(-22.9948 418.958 0)
(5.45721 465.953 0)
(30.9832 349.859 0)
(7.97161 245.449 0)
(-9.03153 234.494 0)
(-25.4566 275.805 0)
(-29.7693 418.42 0)
(19.4221 489.387 0)
(43.0452 359.599 0)
(25.2068 240.876 0)
(10.7092 223.101 0)
(-4.23533 241.241 0)
(-24.23 342.131 0)
(-16.626 476.9 0)
(30.7678 432.759 0)
(34.2124 270.946 0)
(5.80097 215.734 0)
(-4.42793 228.637 0)
(-28.0974 316.819 0)
(-21.587 474.549 0)
(30.5849 448.922 0)
(30.1134 281.188 0)
(3.91665 219.732 0)
(-6.07013 224.952 0)
(-32.3029 311.199 0)
(-21.1208 471.486 0)
(30.0199 448.424 0)
(28.3269 284.063 0)
(3.98319 220.18 0)
(-6.29027 219.264 0)
(-31.3537 292.444 0)
(-29.2102 461.608 0)
(-12.9509 7.48187 0)
(-75.2531 0.537117 0)
(-27.9383 -4.19315 0)
(-0.50551 -2.34216 0)
(-11.0026 -0.548671 0)
(-4.85603 -1.59433 0)
(8.09106 -2.17531 0)
(20.154 -1.1714 0)
(19.0249 0.770948 0)
(9.35283 2.32515 0)
(-0.210623 2.47771 0)
(-10.9276 1.16487 0)
(-24.5999 -1.66817 0)
(5.61941 -3.60394 0)
(30.046 -0.848599 0)
(4.68752 3.11606 0)
(-6.29821 3.71763 0)
(-19.7452 0.726135 0)
(-29.7686 -4.1272 0)
(19.9029 -5.05591 0)
(42.3405 -1.29501 0)
(19.8409 2.30397 0)
(9.75986 3.51456 0)
(-1.05972 2.91529 0)
(-25.6919 0.250114 0)
(-18.4619 -3.77534 0)
(30.78 -4.01983 0)
(29.7149 0.849803 0)
(3.25584 3.95273 0)
(0.164571 3.28169 0)
(-27.1945 0.194602 0)
(-23.3335 -3.9592 0)
(31.4607 -3.81506 0)
(26.5289 0.847739 0)
(0.834455 3.79689 0)
(-1.22182 3.4037 0)
(-30.0676 -0.0492919 0)
(-22.2118 -4.26482 0)
(31.3409 -3.61659 0)
(25.3264 0.85156 0)
(0.35612 3.62706 0)
(-1.37645 3.55394 0)
(-28.2172 0.365404 0)
(-30.9379 -4.21931 0)
(-4.60786 15.6543 0)
(-70.0428 1.62029 0)
(-29.0777 -9.13359 0)
(-1.80841 -4.91192 0)
(-9.48095 -1.07662 0)
(-4.72288 -3.34219 0)
(7.67131 -4.50709 0)
(19.5465 -2.25637 0)
(17.4405 1.77543 0)
(6.13866 4.62798 0)
(-3.36403 4.92582 0)
(-13.8501 2.65481 0)
(-24.9546 -3.67333 0)
(9.19044 -7.96368 0)
(33.1146 -1.49312 0)
(8.35537 6.26972 0)
(-0.285527 7.17379 0)
(-15.4019 2.24692 0)
(-32.7244 -7.97587 0)
(16.2714 -10.8645 0)
(41.7045 -2.25774 0)
(17.2602 5.13884 0)
(4.1272 6.89844 0)
(-6.83688 6.05331 0)
(-29.1121 0.612906 0)
(-15.861 -8.49893 0)
(34.8656 -8.24335 0)
(29.1006 2.39829 0)
(1.59306 7.80733 0)
(-2.0282 6.66836 0)
(-29.9172 0.915615 0)
(-23.3263 -8.73632 0)
(34.191 -8.08794 0)
(27.8119 2.35395 0)
(1.30551 7.4746 0)
(-1.27929 6.90168 0)
(-31.7737 0.536415 0)
(-23.5714 -9.24487 0)
(32.9236 -7.76168 0)
(27.7492 2.31516 0)
(1.94352 7.14347 0)
(-0.566265 7.14249 0)
(-29.5305 1.52776 0)
(-32.4004 -9.05071 0)
(3.69676 22.0786 0)
(-58.427 3.37552 0)
(-25.0226 -12.6285 0)
(-6.48491 -7.46071 0)
(-9.97263 -2.0125 0)
(-4.65163 -4.87834 0)
(4.61834 -6.39557 0)
(12.5171 -2.97691 0)
(9.48725 2.84798 0)
(0.758639 6.56387 0)
(-3.16675 6.80993 0)
(-9.18337 3.59172 0)
(-18.5908 -5.76507 0)
(9.26448 -11.7026 0)
(25.3725 -2.06174 0)
(5.53743 8.48004 0)
(5.69507 9.80849 0)
(-2.67083 4.15082 0)
(-25.1363 -10.3244 0)
(9.92603 -15.5718 0)
(29.8159 -3.05201 0)
(7.32962 7.80503 0)
(-0.432208 9.87407 0)
(-5.29468 8.37213 0)
(-22.0333 0.245661 0)
(-10.185 -12.814 0)
(28.4169 -11.3379 0)
(17.0817 4.06963 0)
(-1.91493 10.9676 0)
(1.52997 9.4084 0)
(-21.2133 1.33794 0)
(-17.8062 -12.8677 0)
(27.6355 -11.5427 0)
(17.8126 3.7026 0)
(-1.55207 10.4551 0)
(3.52264 9.80941 0)
(-21.6867 1.12173 0)
(-18.6643 -13.3719 0)
(25.9372 -11.2866 0)
(18.8103 3.46352 0)
(-0.898885 10.011 0)
(4.27435 10.1815 0)
(-18.9067 2.64154 0)
(-25.9553 -12.9959 0)
(11.3516 27.0657 0)
(-48.1231 5.62509 0)
(-20.5493 -14.5144 0)
(-9.54408 -9.74919 0)
(-10.3607 -3.59416 0)
(-5.2384 -6.3098 0)
(0.878001 -7.6763 0)
(5.33025 -3.26687 0)
(2.2554 3.77765 0)
(-3.35965 7.79637 0)
(-2.72686 7.81613 0)
(-5.70446 3.83879 0)
(-12.8182 -7.53374 0)
(9.04954 -14.1862 0)
(18.35 -2.48428 0)
(2.78591 9.53461 0)
(7.82753 11.2127 0)
(5.25716 5.83687 0)
(-18.0235 -11.0243 0)
(4.16858 -18.4051 0)
(19.3372 -3.55351 0)
(-0.584079 9.72507 0)
(-2.56893 11.9436 0)
(-3.40954 9.64782 0)
(-15.8211 -0.603659 0)
(-5.10487 -15.8778 0)
(21.7781 -12.9001 0)
(7.11907 5.45564 0)
(-4.38322 12.866 0)
(4.28698 11.0516 0)
(-14.3062 1.48632 0)
(-12.6727 -15.5998 0)
(21.3027 -13.6357 0)
(9.84606 4.65928 0)
(-4.23045 12.2236 0)
(6.80314 11.5772 0)
(-13.6205 1.60102 0)
(-13.9709 -15.9385 0)
(19.3686 -13.5768 0)
(11.6745 4.1702 0)
(-3.9471 11.7403 0)
(7.57883 12.0705 0)
(-10.8017 3.49868 0)
(-19.9105 -15.3761 0)
(17.673 30.4207 0)
(-37.531 8.2298 0)
(-15.478 -14.8683 0)
(-10.3672 -11.5068 0)
(-10.5029 -5.51213 0)
(-6.24036 -7.49635 0)
(-3.02051 -8.28291 0)
(-1.19536 -3.20115 0)
(-3.54824 4.31402 0)
(-5.61269 8.17124 0)
(-1.66948 7.90955 0)
(-2.78124 3.46756 0)
(-7.76961 -8.90286 0)
(8.22485 -15.3114 0)
(11.8572 -2.60166 0)
(-1.04604 9.66938 0)
(6.98798 11.4925 0)
(8.60035 6.92634 0)
(-11.7728 -10.3483 0)
(0.000466579 -19.2289 0)
(10.6998 -3.76512 0)
(-6.1967 10.6048 0)
(-2.63001 12.8951 0)
(-0.0582304 9.9508 0)
(-10.1303 -1.66959 0)
(-1.18796 -17.4812 0)
(15.2568 -12.9124 0)
(-0.609146 6.37617 0)
(-5.60015 13.4498 0)
(6.45777 11.5848 0)
(-8.74458 1.43403 0)
(-8.17994 -16.8796 0)
(15.3052 -14.333 0)
(3.36998 5.20909 0)
(-6.14406 12.797 0)
(8.64219 12.1376 0)
(-7.27416 1.94121 0)
(-9.6298 -16.9319 0)
(13.3982 -14.5697 0)
(5.66399 4.50758 0)
(-6.50443 12.3539 0)
(9.08773 12.728 0)
(-4.69122 4.03222 0)
(-14.4157 -16.2186 0)
(21.5079 31.7857 0)
(-25.4572 10.9189 0)
(-9.62697 -13.7445 0)
(-8.94985 -12.4426 0)
(-9.91494 -7.29865 0)
(-7.08662 -8.30687 0)
(-6.19254 -8.24554 0)
(-6.0733 -2.94601 0)
(-7.26237 4.24736 0)
(-6.15805 7.62453 0)
(-0.544566 7.17944 0)
(-0.373596 2.59748 0)
(-3.60576 -9.69992 0)
(6.55998 -15.0792 0)
(6.07438 -2.26073 0)
(-4.72264 9.09238 0)
(4.80343 10.8003 0)
(8.87457 7.15487 0)
(-6.52374 -8.78664 0)
(-2.12187 -18.1918 0)
(4.20329 -3.67945 0)
(-9.01685 10.3609 0)
(-1.63853 12.566 0)
(3.53542 9.4233 0)
(-5.20307 -2.61929 0)
(1.2451 -17.4687 0)
(9.25285 -11.5619 0)
(-5.73387 6.6689 0)
(-5.41997 12.7877 0)
(7.34246 11.1128 0)
(-4.36036 1.20778 0)
(-4.44808 -16.6898 0)
(9.77957 -13.7034 0)
(-1.619 5.29702 0)
(-6.42171 12.2641 0)
(8.68529 11.5945 0)
(-2.51387 2.03999 0)
(-5.69711 -16.4167 0)
(8.15616 -14.2395 0)
(0.67511 4.48329 0)
(-7.38837 11.9576 0)
(8.54145 12.2344 0)
(-0.327749 4.11558 0)
(-9.50541 -15.6304 0)
(22.3311 30.7789 0)
(-11.7636 13.2063 0)
(-3.24881 -11.1753 0)
(-5.70575 -12.2485 0)
(-8.10403 -8.48862 0)
(-7.09517 -8.60975 0)
(-7.80079 -7.70927 0)
(-8.59099 -2.70784 0)
(-8.63471 3.53801 0)
(-5.49846 6.31367 0)
(0.359031 5.84965 0)
(1.38758 1.34091 0)
(-0.55499 -9.75253 0)
(4.11104 -13.6031 0)
(1.24722 -1.59673 0)
(-6.59115 7.97238 0)
(2.73524 9.33127 0)
(7.87063 6.5577 0)
(-2.19234 -6.89572 0)
(-2.45648 -15.6747 0)
(-0.133919 -3.29509 0)
(-9.31345 9.15999 0)
(-0.585173 11.0819 0)
(5.92184 8.27092 0)
(-1.33682 -3.19285 0)
(2.17862 -15.8911 0)
(4.12987 -9.33885 0)
(-8.27506 6.33825 0)
(-4.3678 11.1356 0)
(7.01813 9.85093 0)
(-1.00103 0.796086 0)
(-1.5417 -15.1262 0)
(4.97961 -11.9629 0)
(-4.9867 4.90171 0)
(-5.39281 10.7906 0)
(7.50318 10.1839 0)
(0.847675 1.82002 0)
(-2.30127 -14.5723 0)
(3.81898 -12.667 0)
(-3.18604 4.10688 0)
(-6.73778 10.6874 0)
(6.87483 10.8012 0)
(2.58543 3.71202 0)
(-5.23049 -13.8256 0)
(19.2908 27.3193 0)
(0.965918 14.426 0)
(3.07683 -7.38167 0)
(-1.29024 -10.7591 0)
(-4.97655 -8.71371 0)
(-5.87143 -8.29498 0)
(-7.58346 -6.85947 0)
(-8.73468 -2.5776 0)
(-8.03534 2.34281 0)
(-4.23845 4.53575 0)
(0.95894 4.14239 0)
(2.37712 -0.0347202 0)
(1.11837 -8.9706 0)
(1.38894 -11.1674 0)
(-2.35257 -0.983852 0)
(-6.53408 6.45672 0)
(1.36177 7.33892 0)
(6.39834 5.32903 0)
(0.882959 -5.04776 0)
(-1.86575 -12.1658 0)
(-2.62124 -2.65734 0)
(-8.00841 7.35363 0)
(-0.0113256 8.85959 0)
(6.5396 6.62354 0)
(1.34548 -3.23076 0)
(1.98855 -13.0632 0)
(0.365807 -6.81107 0)
(-8.47341 5.46005 0)
(-3.07553 8.8652 0)
(6.09493 8.07391 0)
(1.51159 0.259539 0)
(0.456911 -12.4805 0)
(1.38176 -9.44307 0)
(-6.49106 4.04516 0)
(-3.96477 8.66546 0)
(5.98536 8.24175 0)
(3.04024 1.30273 0)
(0.226562 -11.7537 0)
(0.679122 -10.1106 0)
(-5.57024 3.38628 0)
(-5.34882 8.77303 0)
(5.18973 8.78005 0)
(4.28257 2.89924 0)
(-1.83032 -11.1454 0)
(13.226 22.0961 0)
(8.99106 13.9906 0)
(8.06524 -3.16516 0)
(3.20236 -8.12468 0)
(-1.17289 -7.81378 0)
(-3.61337 -7.33682 0)
(-5.92222 -5.81611 0)
(-7.16332 -2.51895 0)
(-6.28445 0.980684 0)
(-2.91738 2.61626 0)
(1.17491 2.30518 0)
(2.56887 -1.16726 0)
(1.3927 -7.46474 0)
(-0.866922 -8.28029 0)
(-4.34377 -0.660932 0)
(-5.4975 4.6818 0)
(0.493292 5.20507 0)
(4.65456 3.72926 0)
(2.25899 -3.41308 0)
(-1.22972 -8.32546 0)
(-3.66499 -1.85151 0)
(-6.03285 5.30609 0)
(0.185396 6.39257 0)
(5.68191 4.70704 0)
(2.7731 -2.76859 0)
(1.29528 -9.53357 0)
(-1.84649 -4.43705 0)
(-7.08144 4.1661 0)
(-2.00008 6.43072 0)
(4.8798 5.9723 0)
(3.04449 -0.205883 0)
(1.40145 -9.21856 0)
(-0.736086 -6.63564 0)
(-6.15185 2.89337 0)
(-2.7578 6.28303 0)
(4.48882 6.05619 0)
(4.01934 0.672803 0)
(1.48055 -8.44777 0)
(-1.04798 -7.06466 0)
(-6.02946 2.44627 0)
(-3.87993 6.51476 0)
(3.85366 6.50891 0)
(4.77824 1.89743 0)
(0.328652 -8.02352 0)
(7.18331 16.3952 0)
(10.7296 11.9844 0)
(10.0472 0.243935 0)
(6.22706 -4.96201 0)
(2.06312 -5.97364 0)
(-1.05208 -5.81913 0)
(-3.53987 -4.64967 0)
(-4.779 -2.4431 0)
(-4.16457 -0.219338 0)
(-1.76878 0.882837 0)
(1.07814 0.639789 0)
(2.15322 -1.82985 0)
(0.84264 -5.58974 0)
(-2.07522 -5.52877 0)
(-4.60379 -0.594813 0)
(-4.20798 2.87843 0)
(-0.154864 3.25283 0)
(2.79812 2.14204 0)
(2.06838 -2.08802 0)
(-0.897119 -4.8853 0)
(-3.49582 -1.05849 0)
(-4.03566 3.36314 0)
(0.186795 4.10646 0)
(4.04005 2.88598 0)
(2.87113 -2.0025 0)
(0.542657 -6.00104 0)
(-2.60238 -2.536 0)
(-5.01082 2.76129 0)
(-1.25314 4.19822 0)
(3.45364 3.82006 0)
(3.30096 -0.448874 0)
(1.38794 -5.93656 0)
(-1.57593 -4.07199 0)
(-4.64566 1.76982 0)
(-1.83562 4.03662 0)
(3.01654 3.88273 0)
(3.71812 0.200754 0)
(1.58451 -5.23865 0)
(-1.61476 -4.18366 0)
(-4.88703 1.57378 0)
(-2.55607 4.26411 0)
(2.67777 4.2643 0)
(4.12526 1.03716 0)
(1.18359 -5.00117 0)
(3.59566 11.3166 0)
(8.32966 9.21791 0)
(8.9516 2.20684 0)
(6.84324 -2.16255 0)
(3.6992 -3.74089 0)
(0.90055 -4.02482 0)
(-1.26252 -3.44511 0)
(-2.37772 -2.25945 0)
(-2.15586 -1.05155 0)
(-0.77519 -0.401432 0)
(0.902195 -0.580994 0)
(1.4884 -1.99901 0)
(0.237 -3.79264 0)
(-2.15395 -3.37328 0)
(-3.66833 -0.637773 0)
(-2.99013 1.37218 0)
(-0.614317 1.66576 0)
(1.19112 0.945819 0)
(1.0918 -1.13327 0)
(-0.818043 -2.37465 0)
(-2.60429 -0.468647 0)
(-2.41746 1.82976 0)
(0.053689 2.28766 0)
(2.30654 1.47867 0)
(2.0117 -1.19448 0)
(0.024628 -3.13204 0)
(-2.25952 -1.22065 0)
(-3.05659 1.56647 0)
(-0.769266 2.38425 0)
(2.0268 2.02317 0)
(2.4616 -0.462038 0)
(0.886344 -3.23263 0)
(-1.51371 -2.12833 0)
(-2.92449 0.925154 0)
(-1.14698 2.24027 0)
(1.6841 2.08583 0)
(2.52306 -0.019017 0)
(1.05365 -2.67814 0)
(-1.42587 -1.98616 0)
(-3.14216 0.951364 0)
(-1.50344 2.4262 0)
(1.60346 2.38973 0)
(2.79397 0.478366 0)
(1.11764 -2.59199 0)
(2.00642 7.55249 0)
(4.98883 6.56551 0)
(6.12017 2.81554 0)
(5.36864 -0.23241 0)
(3.5871 -1.77159 0)
(1.74309 -2.37357 0)
(0.263246 -2.35709 0)
(-0.552844 -1.96259 0)
(-0.57234 -1.48986 0)
(0.0282764 -1.19394 0)
(0.746609 -1.26847 0)
(0.858726 -1.82828 0)
(-0.0800146 -2.39417 0)
(-1.5721 -1.96237 0)
(-2.39184 -0.646966 0)
(-1.97222 0.36993 0)
(-0.783413 0.57561 0)
(0.154697 0.231308 0)
(0.19185 -0.554029 0)
(-0.751217 -0.9343 0)
(-1.61519 -0.146238 0)
(-1.34935 0.835092 0)
(-0.122715 1.05847 0)
(0.975785 0.614255 0)
(0.928415 -0.559625 0)
(-0.237088 -1.28274 0)
(-1.47784 -0.445037 0)
(-1.64824 0.750604 0)
(-0.480383 1.12662 0)
(0.91855 0.83347 0)
(1.27539 -0.342107 0)
(0.332624 -1.44637 0)
(-1.06015 -0.912501 0)
(-1.61271 0.407699 0)
(-0.700582 1.03584 0)
(0.696482 0.905574 0)
(1.22502 -0.0476285 0)
(0.445075 -1.04149 0)
(-0.930681 -0.647775 0)
(-1.66873 0.576001 0)
(-0.786472 1.19736 0)
(0.790905 1.11724 0)
(1.47864 0.201905 0)
(0.688399 -1.04549 0)
(1.17914 5.16787 0)
(2.57037 4.59479 0)
(3.45719 2.60455 0)
(3.34852 0.776282 0)
(2.58438 -0.459005 0)
(1.67385 -1.18404 0)
(0.883659 -1.53347 0)
(0.401692 -1.63321 0)
(0.283071 -1.60061 0)
(0.415671 -1.53364 0)
(0.552719 -1.48823 0)
(0.399036 -1.52156 0)
(-0.17808 -1.49878 0)
(-0.926459 -1.16804 0)
(-1.3381 -0.596491 0)
(-1.18457 -0.150807 0)
(-0.686241 -0.0252255 0)
(-0.286618 -0.109536 0)
(-0.2592 -0.280559 0)
(-0.604636 -0.309276 0)
(-0.897264 -0.0246587 0)
(-0.741678 0.303209 0)
(-0.23862 0.378945 0)
(0.201877 0.204364 0)
(0.190787 -0.176575 0)
(-0.30175 -0.366458 0)
(-0.803289 -0.0797975 0)
(-0.813044 0.30252 0)
(-0.318826 0.406077 0)
(0.251508 0.228895 0)
(0.400887 -0.198908 0)
(-0.0224263 -0.5138 0)
(-0.622516 -0.300374 0)
(-0.822102 0.147943 0)
(-0.44735 0.375524 0)
(0.122219 0.304968 0)
(0.357857 -0.000867293 0)
(0.0539101 -0.228792 0)
(-0.499379 -0.0279146 0)
(-0.755667 0.356866 0)
(-0.363047 0.518277 0)
(0.309404 0.433196 0)
(0.602203 0.0999552 0)
(0.306476 -0.273253 0)
(0.70637 3.65685 0)
(1.44586 3.36756 0)
(1.96151 2.23887 0)
(2.03022 1.1235 0)
(1.75443 0.207101 0)
(1.33681 -0.487549 0)
(0.945438 -0.988913 0)
(0.657661 -1.31236 0)
(0.489671 -1.47383 0)
(0.39087 -1.48911 0)
(0.277129 -1.38716 0)
(0.0773292 -1.22203 0)
(-0.211536 -1.02162 0)
(-0.50827 -0.785844 0)
(-0.674103 -0.544885 0)
(-0.642031 -0.36762 0)
(-0.491959 -0.283146 0)
(-0.372716 -0.241228 0)
(-0.358715 -0.18974 0)
(-0.430691 -0.115679 0)
(-0.484262 -0.0129563 0)
(-0.417248 0.0657765 0)
(-0.254536 0.087773 0)
(-0.119505 0.0593399 0)
(-0.1233 0.000768758 0)
(-0.261593 -0.0190714 0)
(-0.393303 0.044006 0)
(-0.37772 0.102301 0)
(-0.220176 0.0838662 0)
(-0.0493041 0.00573073 0)
(-0.0140005 -0.0966769 0)
(-0.155206 -0.138074 0)
(-0.343986 -0.0669942 0)
(-0.400751 0.0355921 0)
(-0.287248 0.0809086 0)
(-0.117941 0.0647496 0)
(-0.0367099 0.0343887 0)
(-0.104807 0.0587441 0)
(-0.244467 0.15662 0)
(-0.292245 0.229824 0)
(-0.143772 0.212214 0)
(0.0836187 0.151389 0)
(0.17684 0.077035 0)
(0.0988166 0.0185014 0)
(0.447677 2.61376 0)
(0.992658 2.54351 0)
(1.37218 1.8911 0)
(1.465 1.18975 0)
(1.37662 0.502703 0)
(1.16583 -0.105774 0)
(0.901978 -0.60949 0)
(0.655466 -0.982406 0)
(0.438569 -1.19987 0)
(0.244932 -1.25135 0)
(0.0640376 -1.16169 0)
(-0.0965104 -0.986953 0)
(-0.226213 -0.796739 0)
(-0.321875 -0.635291 0)
(-0.36904 -0.516194 0)
(-0.365513 -0.433759 0)
(-0.336662 -0.363241 0)
(-0.313836 -0.28092 0)
(-0.304102 -0.181899 0)
(-0.298092 -0.0972894 0)
(-0.284096 -0.0467645 0)
(-0.25195 -0.0241764 0)
(-0.209344 -0.00674979 0)
(-0.178452 0.0190354 0)
(-0.172907 0.0479354 0)
(-0.185482 0.0660952 0)
(-0.192738 0.0596805 0)
(-0.177372 0.0264814 0)
(-0.146591 -0.016611 0)
(-0.122141 -0.0433287 0)
(-0.124409 -0.0441638 0)
(-0.154732 -0.0267015 0)
(-0.190983 -0.00699679 0)
(-0.202893 -0.00394408 0)
(-0.182085 -0.0147191 0)
(-0.149001 -0.00545149 0)
(-0.12721 0.039973 0)
(-0.117858 0.106849 0)
(-0.112159 0.155952 0)
(-0.0947816 0.15158 0)
(-0.0476551 0.104171 0)
(0.00784834 0.0721839 0)
(0.0298628 0.0788402 0)
(0.020412 0.0913448 0)
(0.282942 1.8348 0)
(0.696083 1.88958 0)
(1.02966 1.53206 0)
(1.17351 1.0985 0)
(1.17333 0.625163 0)
(1.07238 0.139931 0)
(0.893651 -0.292112 0)
(0.669808 -0.63578 0)
(0.440052 -0.854525 0)
(0.224976 -0.936998 0)
(0.0435831 -0.903468 0)
(-0.0916175 -0.799102 0)
(-0.17826 -0.676821 0)
(-0.223855 -0.57305 0)
(-0.242939 -0.496161 0)
(-0.248233 -0.433927 0)
(-0.24878 -0.367289 0)
(-0.246232 -0.287469 0)
(-0.235587 -0.202741 0)
(-0.215783 -0.132265 0)
(-0.193523 -0.0871703 0)
(-0.172926 -0.0600631 0)
(-0.157209 -0.0334229 0)
(-0.146402 0.000831169 0)
(-0.133529 0.033453 0)
(-0.115542 0.0475847 0)
(-0.0970636 0.0341886 0)
(-0.0857372 0.00177541 0)
(-0.0849211 -0.0281017 0)
(-0.0915072 -0.0360042 0)
(-0.0992039 -0.0228833 0)
(-0.102338 -0.00602126 0)
(-0.101721 -0.00290209 0)
(-0.101832 -0.0128203 0)
(-0.103385 -0.0210921 0)
(-0.103539 -0.00720041 0)
(-0.0977459 0.0329876 0)
(-0.0797242 0.0818952 0)
(-0.0540153 0.109603 0)
(-0.031486 0.101794 0)
(-0.0152059 0.0756097 0)
(-0.00572965 0.0644532 0)
(-0.00168165 0.0781963 0)
(0.000594151 0.0857612 0)
(0.169403 1.2572 0)
(0.446455 1.3502 0)
(0.705269 1.16678 0)
(0.864974 0.915022 0)
(0.930655 0.611417 0)
(0.910518 0.280652 0)
(0.818546 -0.0458494 0)
(0.672649 -0.321154 0)
(0.498401 -0.517148 0)
(0.320994 -0.621974 0)
(0.16308 -0.646158 0)
(0.0387276 -0.618335 0)
(-0.0479929 -0.565308 0)
(-0.102842 -0.509827 0)
(-0.13689 -0.458698 0)
(-0.158889 -0.407564 0)
(-0.173111 -0.350006 0)
(-0.179014 -0.285502 0)
(-0.174512 -0.220696 0)
(-0.160816 -0.164561 0)
(-0.143547 -0.120533 0)
(-0.12803 -0.0845694 0)
(-0.11555 -0.0522919 0)
(-0.103177 -0.0212461 0)
(-0.0871576 0.00305822 0)
(-0.067574 0.0131956 0)
(-0.0496279 0.0073043 0)
(-0.0396049 -0.00762811 0)
(-0.0396267 -0.0200669 0)
(-0.0452998 -0.0222158 0)
(-0.0494972 -0.0157823 0)
(-0.0488892 -0.00887738 0)
(-0.0459891 -0.00829187 0)
(-0.0459876 -0.0122418 0)
(-0.0505026 -0.0122771 0)
(-0.0549689 -0.000236704 0)
(-0.0537738 0.0237789 0)
(-0.0438757 0.0510251 0)
(-0.0285081 0.0686489 0)
(-0.0150013 0.0716058 0)
(-0.00760527 0.0668657 0)
(-0.00604974 0.0669814 0)
(-0.00506967 0.0748529 0)
(-0.00182268 0.0731387 0)
(0.0976572 0.846879 0)
(0.26726 0.932454 0)
(0.441151 0.839363 0)
(0.570749 0.699549 0)
(0.652793 0.518679 0)
(0.680393 0.310502 0)
(0.65759 0.0955835 0)
(0.591893 -0.0991961 0)
(0.494994 -0.25466 0)
(0.383673 -0.360086 0)
(0.273597 -0.41729 0)
(0.175866 -0.437324 0)
(0.0958529 -0.433378 0)
(0.0335628 -0.415958 0)
(-0.014172 -0.389976 0)
(-0.0506494 -0.356036 0)
(-0.0774579 -0.314901 0)
(-0.0945871 -0.268767 0)
(-0.102083 -0.221885 0)
(-0.10146 -0.178213 0)
(-0.0956933 -0.139416 0)
(-0.0875999 -0.104834 0)
(-0.0783277 -0.0737335 0)
(-0.0677254 -0.0470086 0)
(-0.0549524 -0.0273392 0)
(-0.04072 -0.0166468 0)
(-0.0283529 -0.0143392 0)
(-0.0206901 -0.0163945 0)
(-0.0181896 -0.0182388 0)
(-0.0187874 -0.0169604 0)
(-0.0197142 -0.0135454 0)
(-0.0196836 -0.0105288 0)
(-0.0195455 -0.00928613 0)
(-0.0210054 -0.00831173 0)
(-0.0243716 -0.00430101 0)
(-0.0276016 0.00514035 0)
(-0.0282044 0.0189069 0)
(-0.0249195 0.0340977 0)
(-0.0188258 0.046492 0)
(-0.0129185 0.0544041 0)
(-0.00907759 0.0592132 0)
(-0.00708905 0.0640681 0)
(-0.00539513 0.0696931 0)
(-0.00131443 0.0643602 0)
(0.0564171 0.563376 0)
(0.157864 0.628192 0)
(0.266312 0.578584 0)
(0.354929 0.501244 0)
(0.422387 0.39806 0)
(0.461713 0.275818 0)
(0.47116 0.145349 0)
(0.451416 0.0183114 0)
(0.409504 -0.0919884 0)
(0.354536 -0.17902 0)
(0.292858 -0.24073 0)
(0.230909 -0.279539 0)
(0.173073 -0.299813 0)
(0.121511 -0.305688 0)
(0.077198 -0.300005 0)
(0.0394179 -0.284583 0)
(0.00847835 -0.261407 0)
(-0.0147225 -0.232983 0)
(-0.0308679 -0.202172 0)
(-0.0406866 -0.171236 0)
(-0.0454334 -0.141492 0)
(-0.0464103 -0.11357 0)
(-0.0444779 -0.0881289 0)
(-0.0401599 -0.0662828 0)
(-0.0341003 -0.0490362 0)
(-0.0275066 -0.0370371 0)
(-0.0216116 -0.0295334 0)
(-0.017324 -0.0246912 0)
(-0.0150581 -0.0207384 0)
(-0.0143388 -0.0168097 0)
(-0.0143457 -0.0130427 0)
(-0.0146537 -0.0097722 0)
(-0.0154798 -0.00687676 0)
(-0.0170816 -0.00343771 0)
(-0.0192346 0.00165897 0)
(-0.0212204 0.0089002 0)
(-0.0220955 0.0177198 0)
(-0.0212377 0.0272212 0)
(-0.0189073 0.0362389 0)
(-0.0159471 0.0441174 0)
(-0.0129008 0.0508376 0)
(-0.009613 0.0565793 0)
(-0.00648856 0.0611081 0)
(-0.00123857 0.0553972 0)
(0.0329882 0.368416 0)
(0.0941974 0.413302 0)
(0.160063 0.385333 0)
(0.216198 0.341781 0)
(0.262541 0.283559 0)
(0.294819 0.213838 0)
(0.311583 0.137467 0)
(0.313334 0.0603152 0)
(0.301151 -0.0115571 0)
(0.277758 -0.0739445 0)
(0.247366 -0.124452 0)
(0.213048 -0.162472 0)
(0.177473 -0.188633 0)
(0.142581 -0.20403 0)
(0.109713 -0.209851 0)
(0.0797897 -0.207577 0)
(0.0535924 -0.198316 0)
(0.0315158 -0.184004 0)
(0.0137356 -0.166422 0)
(0.000216434 -0.147084 0)
(-0.00959284 -0.127061 0)
(-0.0162871 -0.107365 0)
(-0.0203212 -0.088717 0)
(-0.0221316 -0.0719133 0)
(-0.0223181 -0.0575968 0)
(-0.0215915 -0.0459943 0)
(-0.0206199 -0.0367445 0)
(-0.0198754 -0.0292764 0)
(-0.0195001 -0.0229637 0)
(-0.0195323 -0.0174339 0)
(-0.0199273 -0.0125535 0)
(-0.0205354 -0.00820815 0)
(-0.0213526 -0.00411885 0)
(-0.022366 0.000172807 0)
(-0.0233913 0.00505739 0)
(-0.0241043 0.0106698 0)
(-0.0241438 0.0168809 0)
(-0.0232657 0.023379 0)
(-0.0214485 0.0298181 0)
(-0.0188205 0.0359108 0)
(-0.015493 0.0414139 0)
(-0.0113347 0.0460587 0)
(-0.00715244 0.0494866 0)
(-0.00153633 0.0445512 0)
(0.0195062 0.233385 0)
(0.0571335 0.262618 0)
(0.097146 0.246541 0)
(0.132191 0.221912 0)
(0.162507 0.189319 0)
(0.185746 0.150293 0)
(0.20111 0.107019 0)
(0.208252 0.0621436 0)
(0.207301 0.0180602 0)
(0.199501 -0.0223797 0)
(0.186386 -0.0576484 0)
(0.169125 -0.0867487 0)
(0.149204 -0.109239 0)
(0.127952 -0.125111 0)
(0.106461 -0.134662 0)
(0.0856241 -0.138439 0)
(0.0661608 -0.137203 0)
(0.048579 -0.131913 0)
(0.0332186 -0.123523 0)
(0.0204136 -0.112998 0)
(0.00973393 -0.101163 0)
(0.000966267 -0.0887346 0)
(-0.00569741 -0.0763306 0)
(-0.0106748 -0.0644653 0)
(-0.0143207 -0.0536143 0)
(-0.0169543 -0.04397 0)
(-0.0188978 -0.0355381 0)
(-0.0204123 -0.0281812 0)
(-0.0216583 -0.0217128 0)
(-0.0227063 -0.0160102 0)
(-0.023592 -0.010936 0)
(-0.0243447 -0.00636377 0)
(-0.0249852 -0.00212531 0)
(-0.0254443 0.00197967 0)
(-0.0256147 0.00612179 0)
(-0.0253832 0.0103856 0)
(-0.0246143 0.0147532 0)
(-0.0232307 0.0191359 0)
(-0.0211789 0.0234153 0)
(-0.0184406 0.0274553 0)
(-0.015036 0.0310937 0)
(-0.0109005 0.0341398 0)
(-0.00661096 0.0363585 0)
(-0.00167334 0.0325227 0)
(0.0123749 0.141798 0)
(0.0374602 0.159684 0)
(0.0635342 0.150471 0)
(0.0869 0.136591 0)
(0.107738 0.118427 0)
(0.124666 0.0967498 0)
(0.137214 0.0725652 0)
(0.145103 0.0470681 0)
(0.148566 0.0214999 0)
(0.147544 -0.00293442 0)
(0.142434 -0.0251811 0)
(0.134248 -0.0445049 0)
(0.123615 -0.0604083 0)
(0.111248 -0.0726396 0)
(0.0978563 -0.0811622 0)
(0.0840759 -0.0861269 0)
(0.0704507 -0.087844 0)
(0.057421 -0.0867452 0)
(0.045312 -0.0833297 0)
(0.0343414 -0.0781225 0)
(0.0245894 -0.0716978 0)
(0.0160994 -0.0643866 0)
(0.00895069 -0.0566779 0)
(0.00287676 -0.048908 0)
(-0.00226576 -0.0414169 0)
(-0.00644311 -0.0343781 0)
(-0.00986291 -0.0279 0)
(-0.0126689 -0.022017 0)
(-0.0149621 -0.0167133 0)
(-0.0168254 -0.0119517 0)
(-0.0183035 -0.00767806 0)
(-0.0194259 -0.00383004 0)
(-0.0202196 -0.000326974 0)
(-0.0206754 0.00291985 0)
(-0.0207455 0.00598953 0)
(-0.0203875 0.00893694 0)
(-0.0195914 0.0117821 0)
(-0.0183223 0.0145116 0)
(-0.0165452 0.0170888 0)
(-0.0142774 0.0194591 0)
(-0.0115432 0.0215496 0)
(-0.00832374 0.0232722 0)
(-0.00493485 0.0245112 0)
(-0.0013809 0.0217832 0)
(0.00889219 0.0829056 0)
(0.0279754 0.0932269 0)
(0.0472943 0.0878888 0)
(0.0650064 0.0799544 0)
(0.0811415 0.0696626 0)
(0.0948068 0.0574228 0)
(0.10571 0.0437469 0)
(0.113617 0.029241 0)
(0.118452 0.0145529 0)
(0.120232 0.000208595 0)
(0.119188 -0.0131503 0)
(0.115711 -0.0250356 0)
(0.110177 -0.0351057 0)
(0.102997 -0.0431405 0)
(0.0946098 -0.0490437 0)
(0.0854377 -0.0528329 0)
(0.0758673 -0.054625 0)
(0.0662364 -0.0546169 0)
(0.0568218 -0.0530624 0)
(0.0478332 -0.0502473 0)
(0.0394188 -0.0464674 0)
(0.0317041 -0.0420031 0)
(0.024808 -0.0371223 0)
(0.01857 -0.0320992 0)
(0.0129841 -0.0270681 0)
(0.00817243 -0.0222165 0)
(0.00400743 -0.017653 0)
(0.000424723 -0.0134418 0)
(-0.00261618 -0.00961212 0)
(-0.00518482 -0.00616778 0)
(-0.00732637 -0.0030913 0)
(-0.00903776 -0.000358046 0)
(-0.0103227 0.00207287 0)
(-0.0112015 0.00424844 0)
(-0.0117132 0.0062146 0)
(-0.0118617 0.00801141 0)
(-0.0116309 0.0096667 0)
(-0.0110211 0.0111928 0)
(-0.0100433 0.0125881 0)
(-0.00872268 0.013839 0)
(-0.0070825 0.014922 0)
(-0.00513315 0.015804 0)
(-0.00303096 0.0164331 0)
(-0.000904586 0.0145158 0)
(0.00698669 0.0440369 0)
(0.0227844 0.049297 0)
(0.0383343 0.0462182 0)
(0.0528744 0.0417232 0)
(0.0663437 0.03595 0)
(0.0780665 0.0291102 0)
(0.0878184 0.0214768 0)
(0.0954058 0.0133572 0)
(0.100736 0.00510767 0)
(0.103812 -0.00293763 0)
(0.104726 -0.010462 0)
(0.103684 -0.017186 0)
(0.10093 -0.0228929 0)
(0.0967026 -0.0274343 0)
(0.0912762 -0.030732 0)
(0.0849407 -0.0327751 0)
(0.0779774 -0.0336133 0)
(0.0706457 -0.0333474 0)
(0.0631735 -0.0321177 0)
(0.0557524 -0.0300899 0)
(0.0485399 -0.027442 0)
(0.0416633 -0.024352 0)
(0.0352122 -0.0209924 0)
(0.029215 -0.0175372 0)
(0.0237162 -0.014085 0)
(0.0187568 -0.0107626 0)
(0.0143151 -0.00764255 0)
(0.0103736 -0.00478591 0)
(0.00691775 -0.00222685 0)
(0.00391987 2.86265e-05 0)
(0.00136597 0.00198224 0)
(-0.000744917 0.0036547 0)
(-0.00240884 0.00507656 0)
(-0.00369216 0.00628189 0)
(-0.00465935 0.00730733 0)
(-0.00529583 0.00818819 0)
(-0.00560177 0.00895443 0)
(-0.00559136 0.00962847 0)
(-0.00528607 0.0102246 0)
(-0.00471411 0.010749 0)
(-0.0039025 0.0112008 0)
(-0.00288162 0.0115721 0)
(-0.00171863 0.0118415 0)
(-0.000543445 0.0103908 0)
(0.0056044 0.0167031 0)
(0.0187665 0.0184258 0)
(0.031273 0.0167888 0)
(0.0431033 0.0144871 0)
(0.05426 0.0115775 0)
(0.0641207 0.0081522 0)
(0.0724664 0.00435073 0)
(0.0791482 0.000367539 0)
(0.0841249 -0.0036365 0)
(0.0873764 -0.00748436 0)
(0.0889428 -0.0110082 0)
(0.088912 -0.0140589 0)
(0.0874073 -0.0165193 0)
(0.0845972 -0.0183098 0)
(0.0806805 -0.0193895 0)
(0.0758715 -0.0197558 0)
(0.0703856 -0.0194421 0)
(0.0644298 -0.0185112 0)
(0.058197 -0.0170492 0)
(0.0518585 -0.0151597 0)
(0.0455619 -0.0129577 0)
(0.0394371 -0.010553 0)
(0.0336093 -0.00805543 0)
(0.0280869 -0.00556808 0)
(0.0229221 -0.00316631 0)
(0.0182368 -0.000922884 0)
(0.0140273 0.00109652 0)
(0.0102675 0.0028769 0)
(0.00694459 0.00438539 0)
(0.00404955 0.00562828 0)
(0.00156243 0.0066148 0)
(-0.000475087 0.00736589 0)
(-0.00208379 0.00790966 0)
(-0.00334188 0.00828025 0)
(-0.00425076 0.00851409 0)
(-0.00482042 0.00864686 0)
(-0.00507059 0.00871174 0)
(-0.0050265 0.00873771 0)
(-0.00471669 0.00874775 0)
(-0.00417499 0.00875821 0)
(-0.00343352 0.008779 0)
(-0.0025324 0.00881268 0)
(-0.00150912 0.0088531 0)
(-0.000483248 0.00771993 0)
(0.00415013 -0.00215553 0)
(0.0143965 -0.00277855 0)
(0.0235002 -0.00344099 0)
(0.0322109 -0.00428031 0)
(0.0405477 -0.00528773 0)
(0.0479024 -0.00643138 0)
(0.0541512 -0.00764659 0)
(0.0591597 -0.00883701 0)
(0.0627962 -0.00993833 0)
(0.0649976 -0.0108768 0)
(0.0657847 -0.0115807 0)
(0.0652411 -0.0119929 0)
(0.0634722 -0.0120723 0)
(0.0606113 -0.0117946 0)
(0.056816 -0.0111557 0)
(0.0522568 -0.0101721 0)
(0.047119 -0.00887631 0)
(0.0415928 -0.0073161 0)
(0.0358486 -0.00555344 0)
(0.0300377 -0.00365264 0)
(0.0243138 -0.00172112 0)
(0.0188033 0.000214275 0)
(0.0136037 0.00208233 0)
(0.00877523 0.00380252 0)
(0.00436039 0.00535887 0)
(0.000389633 0.00669726 0)
(-0.00310371 0.00778394 0)
(-0.0061144 0.00861554 0)
(-0.00862547 0.00919892 0)
(-0.0106125 0.00954127 0)
(-0.0121183 0.00966099 0)
(-0.0131692 0.00958645 0)
(-0.0137873 0.00935031 0)
(-0.0140014 0.00899107 0)
(-0.0138415 0.00854679 0)
(-0.0133353 0.00805373 0)
(-0.012506 0.00754751 0)
(-0.011384 0.00705997 0)
(-0.0100104 0.00661784 0)
(-0.00842849 0.00624294 0)
(-0.00667206 0.00595051 0)
(-0.00477634 0.00574742 0)
(-0.00278093 0.00563389 0)
(-0.000863079 0.00487909 0)
(0.00236163 -0.0133936 0)
(0.00905674 -0.0153076 0)
(0.0141447 -0.015352 0)
(0.0191198 -0.0152255 0)
(0.0238442 -0.0149579 0)
(0.027741 -0.0145498 0)
(0.0307013 -0.013985 0)
(0.0326334 -0.0132688 0)
(0.0334643 -0.0123735 0)
(0.0331449 -0.0112963 0)
(0.0316934 -0.0100419 0)
(0.0291955 -0.00862036 0)
(0.0257682 -0.00704822 0)
(0.0215389 -0.00534723 0)
(0.0166398 -0.0035446 0)
(0.0112088 -0.00167371 0)
(0.00542906 0.000226579 0)
(-0.00048746 0.00211194 0)
(-0.00640289 0.003935 0)
(-0.0122245 0.00562734 0)
(-0.0177445 0.0072278 0)
(-0.0228176 0.00862737 0)
(-0.0274282 0.00979727 0)
(-0.0314985 0.010716 0)
(-0.0349547 0.0113699 0)
(-0.0377664 0.0117504 0)
(-0.0399121 0.0118723 0)
(-0.0413872 0.0117288 0)
(-0.0421979 0.0113583 0)
(-0.0423582 0.0107785 0)
(-0.0418983 0.0100235 0)
(-0.0408491 0.00912988 0)
(-0.0392597 0.00813901 0)
(-0.0371957 0.00709357 0)
(-0.0347267 0.00603251 0)
(-0.031909 0.00499226 0)
(-0.0287715 0.00400552 0)
(-0.0253513 0.00310256 0)
(-0.0217096 0.00230887 0)
(-0.0178995 0.00164323 0)
(-0.0139484 0.00112041 0)
(-0.00987376 0.000748289 0)
(-0.00571647 0.00052919 0)
(-0.00177062 0.000395986 0)
(0.000197183 -0.0176252 0)
(0.00235545 -0.0199078 0)
(0.0023866 -0.0196065 0)
(0.00263653 -0.0188603 0)
(0.00276627 -0.0177336 0)
(0.0021882 -0.0162649 0)
(0.000794537 -0.0144898 0)
(-0.00144394 -0.0124528 0)
(-0.00452668 -0.0102019 0)
(-0.00848523 -0.00778985 0)
(-0.0132742 -0.00527286 0)
(-0.018754 -0.0027063 0)
(-0.0247581 -0.000144735 0)
(-0.0311572 0.00235757 0)
(-0.0378478 0.00475184 0)
(-0.0446726 0.00699354 0)
(-0.0514942 0.00903755 0)
(-0.0582217 0.0108433 0)
(-0.0646895 0.0123788 0)
(-0.0706512 0.0136393 0)
(-0.0760559 0.0146132 0)
(-0.0808674 0.0152404 0)
(-0.0849224 0.015518 0)
(-0.0881423 0.0154503 0)
(-0.0904812 0.01505 0)
(-0.0919097 0.0143356 0)
(-0.0924106 0.0133347 0)
(-0.0919839 0.0120787 0)
(-0.0906438 0.0106098 0)
(-0.0884099 0.00897299 0)
(-0.0853241 0.00721929 0)
(-0.0814168 0.00539972 0)
(-0.0767637 0.00356434 0)
(-0.0714858 0.00176268 0)
(-0.0657035 4.03313e-05 0)
(-0.0595178 -0.00156224 0)
(-0.0530009 -0.00301241 0)
(-0.0462319 -0.00428526 0)
(-0.0392599 -0.0053649 0)
(-0.0321334 -0.006245 0)
(-0.0249007 -0.00692285 0)
(-0.0175751 -0.00740044 0)
(-0.0101984 -0.00768148 0)