/*--------------------------------*- C++ -*----------------------------------*\
  =========                 |
  \\      /  F ield         | OpenFOAM: The Open Source CFD Toolbox
   \\    /   O peration     | Website:  https://openfoam.org
    \\  /    A nd           | Version:  7
     \\/     M anipulation  |
\*---------------------------------------------------------------------------*/
FoamFile
{
    version     2.0;
    format      ascii;
    class       volScalarField;
    location    "1.51";
    object      p;
}
// * * * * * * * * * * * * * * * * * * * * * * * * * * * * * * * * * * * * * //

dimensions      [0 2 -2 0 0 0 0];

internalField   nonuniform List<scalar> 
1936
(
-1.91683e-05
-3348.58
-6344.9
-5427.79
-4196.82
-3610.31
-3388.96
-3876.97
-5876.21
-7277.42
-5553.39
-3517.3
-3001.43
-3011.83
-3704.92
-5583.73
-6816.95
-5417.9
-3475.99
-2850.54
-2864.58
-3541.69
-5812.97
-7254.46
-5455.04
-3348.95
-2778.3
-2795.93
-3454.9
-5340.06
-6841.5
-5606.67
-3488.51
-2797.88
-2833.44
-3687.66
-6182.67
-7163.18
-4870.15
-2961.7
-2653.76
-2771.28
-4150.87
-6642.05
-85.4364
-3300.28
-6283.44
-5424.04
-4217.89
-3649.72
-3431.18
-3880.48
-5826.53
-7203.09
-5507.08
-3526.15
-3050.67
-3066.01
-3728.6
-5562.2
-6768.14
-5393.29
-3501.88
-2907.9
-2913.43
-3542.02
-5753.14
-7177.18
-5412.79
-3357.42
-2827.21
-2852.3
-3482.46
-5324.44
-6791.57
-5573.88
-3511
-2857.75
-2883.06
-3682.04
-6116.47
-7088.62
-4838.03
-2985.57
-2711.69
-2823.33
-4153.35
-6595.78
-361.562
-3166.52
-6051.66
-5416.84
-4293.21
-3747.61
-3532.91
-3912.17
-5699.45
-6969.64
-5393.57
-3570.91
-3165.42
-3202.32
-3813.52
-5505.39
-6606.76
-5329.28
-3591.29
-3048.67
-3029.8
-3567.81
-5596.03
-6934.44
-5311.94
-3404.61
-2942.53
-2991.91
-3578.2
-5288.21
-6625.96
-5483.32
-3592.88
-3003.58
-3002.9
-3695.58
-5932.64
-6853.96
-4775.45
-3066.21
-2842.6
-2965
-4187.39
-6446.96
-747.572
-3026.16
-5699.04
-5363.09
-4385.4
-3876.78
-3678.53
-3983.09
-5528.57
-6625.15
-5245.05
-3659.48
-3328.88
-3383.97
-3928.7
-5410.45
-6353.99
-5229.95
-3715
-3235.73
-3196.15
-3631.93
-5385.13
-6573.55
-5174.75
-3496.51
-3109.65
-3178.49
-3708.39
-5220.98
-6365.38
-5347.28
-3708.22
-3197.78
-3175.35
-3742.92
-5677.55
-6503.49
-4698.36
-3200.62
-3026.02
-3159.22
-4232.92
-6210.51
-1186.13
-2925.87
-5285.2
-5250.8
-4464.39
-4011.09
-3843.52
-4083.26
-5343.12
-6228.98
-5088.4
-3781.79
-3518.86
-3578.21
-4046.81
-5287.24
-6049.31
-5107.64
-3844.71
-3435.63
-3388.66
-3727.68
-5159.11
-6155.25
-5023.04
-3622.48
-3307.36
-3380.11
-3843.74
-5126.48
-6050.25
-5185.8
-3830.05
-3404.93
-3374.49
-3819.36
-5397.77
-6096.95
-4618.98
-3371.14
-3236.7
-3368.81
-4273.41
-5923.19
-1639.09
-2893.28
-4866.7
-5078.97
-4511.81
-4133.01
-4007.14
-4195.32
-5161.71
-5828.06
-4941.07
-3924.16
-3717.58
-3767.17
-4152.2
-5143.76
-5724.13
-4971.32
-3964.45
-3630.33
-3588.68
-3843.95
-4945.02
-5729.49
-4871.25
-3768.66
-3516.81
-3579.07
-3968.09
-5008.24
-5713.13
-5013.7
-3943.82
-3605.09
-3579.68
-3915.88
-5127.36
-5682.48
-4544.57
-3559.14
-3455.4
-3572.42
-4299.98
-5614.16
-2079.39
-2935.73
-4493.74
-4864.3
-4518.87
-4233.43
-4150.61
-4298.9
-4994.37
-5456.78
-4813.4
-4069.61
-3909.3
-3939.92
-4240.13
-4990.35
-5404.34
-4831.95
-4069.71
-3809.64
-3779.99
-3966.21
-4760.35
-5334.36
-4729.88
-3917.26
-3721.33
-3764.43
-4075.44
-4874.52
-5381.4
-4845.14
-4045.07
-3787.91
-3773.61
-4019.31
-4889.12
-5296.91
-4478.99
-3745.53
-3665.01
-3757.24
-4315.16
-5307.63
-2488.76
-3044.91
-4201.63
-4636.57
-4487.65
-4304.85
-4260.62
-4377.99
-4843.82
-5137.57
-4708.01
-4202.82
-4080.32
-4091.33
-4310.59
-4838.01
-5111.9
-4702.07
-4159.94
-3967.87
-3950.24
-4081.27
-4611.6
-4996.92
-4605.03
-4053.11
-3906.14
-3929.96
-4164.93
-4736.4
-5078.14
-4693.81
-4132.87
-3947.67
-3943.86
-4117.15
-4693.58
-4966.71
-4422.74
-3914.74
-3852.12
-3917.04
-4324
-5024.71
-2854.57
-3202.14
-4006.96
-4428.05
-4426.87
-4341.48
-4330.67
-4424.63
-4712.48
-4882.18
-4623.38
-4311.22
-4220.39
-4217.72
-4362.58
-4699.39
-4863.92
-4591.13
-4234.49
-4102.02
-4090.83
-4178.64
-4499.77
-4732.58
-4502.82
-4164.69
-4060.34
-4071.35
-4234.21
-4608.01
-4821.42
-4568.36
-4205.84
-4081.56
-4082.31
-4199.23
-4544.54
-4706.96
-4376.88
-4055.42
-4008.29
-4050.78
-4328
-4781.64
-3167.46
-3382.07
-3907.5
-4263.36
-4349.94
-4343.5
-4362.71
-4438.52
-4602.51
-4691.97
-4557.05
-4386.74
-4324.2
-4314.06
-4395.93
-4585.05
-4670.67
-4505.45
-4292.36
-4207.93
-4198.51
-4251.13
-4422.39
-4545.74
-4427.23
-4245.39
-4178.99
-4182.84
-4282.97
-4501.69
-4622.23
-4473.26
-4262.03
-4186.03
-4186.82
-4258.7
-4440.38
-4522.42
-4343.16
-4162.34
-4129.34
-4156.49
-4327.26
-4589.58
-3422.36
-3559.98
-3884.72
-4154.46
-4274.19
-4320.5
-4364.06
-4426.28
-4514.57
-4560.33
-4505.57
-4428.52
-4391.05
-4377.68
-4412.52
-4499.93
-4534.4
-4445.53
-4332.51
-4283.17
-4273.71
-4298.56
-4374.67
-4429.51
-4378.66
-4296.87
-4261.25
-4261.21
-4313.51
-4423.79
-4482.8
-4407.64
-4300.35
-4259.05
-4259.03
-4295.97
-4375.38
-4407.16
-4322.37
-4235.01
-4215.91
-4232.02
-4322.87
-4453.22
-3621.46
-3715.45
-3910.73
-4099.22
-4215.75
-4287.65
-4345.29
-4397.59
-4447.17
-4474.98
-4465.47
-4442.22
-4424.37
-4410.82
-4416.01
-4442.9
-4449.09
-4407.25
-4355.52
-4329.38
-4320.33
-4325.93
-4349.95
-4368.54
-4352.8
-4325.54
-4310.88
-4308.58
-4329.06
-4373.63
-4397.08
-4366.68
-4322.08
-4303.44
-4302.72
-4315.92
-4340.61
-4346.82
-4313
-4279.01
-4270.85
-4278.58
-4317.16
-4369.05
-3771.41
-3840
-3959.38
-4083.67
-4181.67
-4256.81
-4316.52
-4362.56
-4397.41
-4421.42
-4433.56
-4436.57
-4431.77
-4419.93
-4410.53
-4408.27
-4402.28
-4384.65
-4364.96
-4352.74
-4344.74
-4339.86
-4340.63
-4343.74
-4342.3
-4338.85
-4335.42
-4331.95
-4334.61
-4345.86
-4352.3
-4343.98
-4331.33
-4325.79
-4324.56
-4324.87
-4325.97
-4322.63
-4311.54
-4302.45
-4300.57
-4302.3
-4312.44
-4325.89
-3886.81
-3933.96
-4009.36
-4092.04
-4168.29
-4234.42
-4288.78
-4330.35
-4361.66
-4386.8
-4407.12
-4420.15
-4422.61
-4414.05
-4400.34
-4388.46
-4379.43
-4371.96
-4366.12
-4361.07
-4354.39
-4346.14
-4339.69
-4337.86
-4339.91
-4343.35
-4343.89
-4340.02
-4335.15
-4333.21
-4333.34
-4333.22
-4333.36
-4333.91
-4332.53
-4328.21
-4322.42
-4317.32
-4313.96
-4313.34
-4313.52
-4311.72
-4309.97
-4309.14
-3977.41
-4006.91
-4054.83
-4110.64
-4167.58
-4220.93
-4267.27
-4305.07
-4335.68
-4361.72
-4383.65
-4398.85
-4404.17
-4399.22
-4388.06
-4376.58
-4368.63
-4364.95
-4363.6
-4361.41
-4356.16
-4348.5
-4341.75
-4339.05
-4340.57
-4343.74
-4344.45
-4340.57
-4334.18
-4328.92
-4327.3
-4329.13
-4332.54
-4334.9
-4333.87
-4329.16
-4323.27
-4318.82
-4317.34
-4317.77
-4317.55
-4314.45
-4309.61
-4305.51
-4049.32
-4066.34
-4096.06
-4133.32
-4174.16
-4215.19
-4253.1
-4286.52
-4315.51
-4340.64
-4361.46
-4376.17
-4382.9
-4381.71
-4375.35
-4367.98
-4362.77
-4360.58
-4359.89
-4358.35
-4354.41
-4348.79
-4343.75
-4341.2
-4341.38
-4342.49
-4342.03
-4338.64
-4333.47
-4329.08
-4327.4
-4328.71
-4331.4
-4333.2
-4332.33
-4329
-4324.82
-4321.61
-4320.09
-4319.51
-4318.29
-4315.12
-4310.95
-4307.73
-4106.11
-4115.61
-4133.56
-4157.74
-4185.92
-4215.83
-4245.64
-4273.62
-4299.14
-4321.7
-4340.41
-4354.11
-4361.93
-4364.19
-4362.6
-4359.63
-4357.25
-4356.1
-4355.44
-4354.09
-4351.37
-4347.74
-4344.38
-4342.26
-4341.46
-4341
-4339.66
-4336.88
-4333.29
-4330.28
-4328.93
-4329.32
-4330.53
-4331.22
-4330.47
-4328.4
-4325.8
-4323.46
-4321.73
-4320.29
-4318.47
-4315.89
-4313.15
-4311.17
-4150.5
-4155.91
-4166.71
-4182.1
-4200.97
-4222.02
-4244.01
-4265.91
-4286.71
-4305.61
-4321.74
-4334.3
-4342.87
-4347.71
-4349.75
-4350.27
-4350.31
-4350.32
-4350.1
-4349.26
-4347.64
-4345.5
-4343.41
-4341.78
-4340.6
-4339.47
-4337.93
-4335.8
-4333.44
-4331.45
-4330.31
-4330.03
-4330.11
-4329.98
-4329.21
-4327.8
-4326.06
-4324.31
-4322.67
-4321.05
-4319.29
-4317.38
-4315.65
-4314.51
-4184.86
-4188.09
-4194.73
-4204.51
-4216.94
-4231.32
-4246.92
-4263.02
-4278.87
-4293.77
-4307.03
-4318.12
-4326.73
-4332.93
-4337.17
-4339.97
-4341.84
-4343.07
-4343.7
-4343.71
-4343.12
-4342.14
-4341.02
-4339.93
-4338.91
-4337.81
-4336.52
-4335.02
-4333.47
-4332.11
-4331.12
-4330.48
-4329.99
-4329.4
-4328.56
-4327.46
-4326.18
-4324.83
-4323.46
-4322.07
-4320.67
-4319.34
-4318.27
-4317.61
-4211.18
-4213.21
-4217.42
-4223.72
-4231.88
-4241.55
-4252.31
-4263.7
-4275.28
-4286.51
-4296.95
-4306.24
-4314.14
-4320.6
-4325.71
-4329.68
-4332.72
-4334.96
-4336.52
-4337.44
-4337.83
-4337.82
-4337.54
-4337.09
-4336.53
-4335.83
-4335
-4334.06
-4333.08
-4332.15
-4331.33
-4330.62
-4329.93
-4329.21
-4328.39
-4327.48
-4326.48
-4325.45
-4324.4
-4323.36
-4322.37
-4321.49
-4320.83
-4320.44
-4231.07
-4232.41
-4235.15
-4239.28
-4244.7
-4251.19
-4258.53
-4266.46
-4274.69
-4282.96
-4290.93
-4298.39
-4305.14
-4311.09
-4316.21
-4320.53
-4324.1
-4326.98
-4329.24
-4330.94
-4332.14
-4332.94
-4333.41
-4333.63
-4333.64
-4333.47
-4333.15
-4332.71
-4332.19
-4331.62
-4331.04
-4330.45
-4329.84
-4329.2
-4328.51
-4327.78
-4327.03
-4326.27
-4325.52
-4324.8
-4324.14
-4323.59
-4323.18
-4322.95
-4245.79
-4246.69
-4248.53
-4251.31
-4254.96
-4259.38
-4264.44
-4269.99
-4275.86
-4281.88
-4287.88
-4293.71
-4299.24
-4304.36
-4309.03
-4313.19
-4316.84
-4319.99
-4322.65
-4324.86
-4326.65
-4328.07
-4329.16
-4329.96
-4330.52
-4330.87
-4331.04
-4331.06
-4330.95
-4330.74
-4330.45
-4330.1
-4329.69
-4329.24
-4328.75
-4328.24
-4327.71
-4327.19
-4326.68
-4326.21
-4325.8
-4325.46
-4325.21
-4325.08
-4255.51
-4256.16
-4257.47
-4259.46
-4262.09
-4265.28
-4268.97
-4273.05
-4277.44
-4282.01
-4286.69
-4291.35
-4295.9
-4300.27
-4304.39
-4308.22
-4311.73
-4314.89
-4317.69
-4320.15
-4322.27
-4324.07
-4325.57
-4326.81
-4327.79
-4328.55
-4329.11
-4329.49
-4329.72
-4329.82
-4329.81
-4329.71
-4329.53
-4329.29
-4329.01
-4328.69
-4328.35
-4328.01
-4327.69
-4327.38
-4327.12
-4326.91
-4326.76
-4326.68
-4261.01
-4261.53
-4262.57
-4264.14
-4266.23
-4268.78
-4271.73
-4275.03
-4278.61
-4282.39
-4286.29
-4290.26
-4294.2
-4298.07
-4301.81
-4305.37
-4308.7
-4311.8
-4314.63
-4317.18
-4319.46
-4321.46
-4323.2
-4324.68
-4325.93
-4326.95
-4327.77
-4328.4
-4328.87
-4329.19
-4329.38
-4329.47
-4329.46
-4329.38
-4329.24
-4329.06
-4328.85
-4328.63
-4328.42
-4328.21
-4328.03
-4327.89
-4327.79
-4327.74
-4263.87
-4264.32
-4265.21
-4266.57
-4268.38
-4270.6
-4273.18
-4276.07
-4279.23
-4282.59
-4286.09
-4289.68
-4293.29
-4296.88
-4300.39
-4303.78
-4307.01
-4310.05
-4312.88
-4315.48
-4317.84
-4319.95
-4321.83
-4323.46
-4324.86
-4326.04
-4327.02
-4327.81
-4328.42
-4328.88
-4329.2
-4329.4
-4329.5
-4329.52
-4329.47
-4329.38
-4329.25
-4329.1
-4328.94
-4328.79
-4328.66
-4328.55
-4328.48
-4328.44
-4265.19
-4265.61
-4266.43
-4267.68
-4269.35
-4271.4
-4273.79
-4276.48
-4279.43
-4282.58
-4285.88
-4289.27
-4292.72
-4296.17
-4299.56
-4302.87
-4306.05
-4309.08
-4311.92
-4314.55
-4316.97
-4319.15
-4321.11
-4322.84
-4324.34
-4325.62
-4326.69
-4327.57
-4328.27
-4328.82
-4329.21
-4329.48
-4329.65
-4329.72
-4329.73
-4329.68
-4329.59
-4329.47
-4329.35
-4329.23
-4329.12
-4329.03
-4328.96
-4328.93
-4265.64
-4266.04
-4266.82
-4268.02
-4269.63
-4271.6
-4273.91
-4276.51
-4279.36
-4282.41
-4285.63
-4288.95
-4292.33
-4295.72
-4299.08
-4302.37
-4305.54
-4308.57
-4311.43
-4314.1
-4316.57
-4318.81
-4320.82
-4322.61
-4324.17
-4325.51
-4326.65
-4327.58
-4328.34
-4328.92
-4329.36
-4329.66
-4329.86
-4329.96
-4329.98
-4329.95
-4329.88
-4329.78
-4329.66
-4329.55
-4329.45
-4329.36
-4329.3
-4329.27
-4265.6
-4265.99
-4266.76
-4267.95
-4269.53
-4271.48
-4273.77
-4276.34
-4279.17
-4282.2
-4285.39
-4288.7
-4292.07
-4295.46
-4298.83
-4302.12
-4305.32
-4308.38
-4311.27
-4313.97
-4316.47
-4318.75
-4320.8
-4322.62
-4324.22
-4325.6
-4326.76
-4327.72
-4328.49
-4329.09
-4329.54
-4329.86
-4330.06
-4330.16
-4330.19
-4330.15
-4330.08
-4329.98
-4329.86
-4329.75
-4329.64
-4329.56
-4329.5
-4329.47
-4265.39
-4265.78
-4266.55
-4267.73
-4269.32
-4271.28
-4273.56
-4276.15
-4278.98
-4282.03
-4285.24
-4288.57
-4291.96
-4295.38
-4298.77
-4302.09
-4305.31
-4308.4
-4311.31
-4314.04
-4316.57
-4318.87
-4320.94
-4322.78
-4324.39
-4325.77
-4326.93
-4327.89
-4328.66
-4329.25
-4329.69
-4329.99
-4330.18
-4330.27
-4330.28
-4330.23
-4330.14
-4330.03
-4329.9
-4329.78
-4329.67
-4329.58
-4329.51
-4329.48
-4265.18
-4265.57
-4266.34
-4267.54
-4269.14
-4271.11
-4273.42
-4276.04
-4278.91
-4281.99
-4285.24
-4288.6
-4292.02
-4295.47
-4298.89
-4302.24
-4305.49
-4308.59
-4311.53
-4314.27
-4316.8
-4319.1
-4321.17
-4323
-4324.6
-4325.96
-4327.1
-4328.03
-4328.77
-4329.34
-4329.74
-4330.01
-4330.16
-4330.22
-4330.2
-4330.13
-4330.01
-4329.88
-4329.74
-4329.6
-4329.48
-4329.38
-4329.32
-4329.28
-4265.09
-4265.48
-4266.25
-4267.46
-4269.08
-4271.09
-4273.43
-4276.08
-4278.99
-4282.11
-4285.4
-4288.79
-4292.25
-4295.73
-4299.17
-4302.54
-4305.8
-4308.91
-4311.85
-4314.59
-4317.11
-4319.4
-4321.45
-4323.25
-4324.81
-4326.14
-4327.24
-4328.12
-4328.81
-4329.32
-4329.68
-4329.89
-4329.99
-4330
-4329.93
-4329.82
-4329.67
-4329.5
-4329.34
-4329.19
-4329.06
-4328.95
-4328.89
-4328.85
-4265.18
-4265.56
-4266.34
-4267.57
-4269.22
-4271.26
-4273.64
-4276.32
-4279.26
-4282.4
-4285.71
-4289.13
-4292.61
-4296.11
-4299.56
-4302.94
-4306.21
-4309.32
-4312.25
-4314.97
-4317.47
-4319.73
-4321.75
-4323.51
-4325.02
-4326.3
-4327.34
-4328.16
-4328.78
-4329.22
-4329.51
-4329.65
-4329.68
-4329.62
-4329.49
-4329.31
-4329.11
-4328.91
-4328.71
-4328.54
-4328.39
-4328.29
-4328.22
-4328.19
-4265.5
-4265.89
-4266.67
-4267.91
-4269.58
-4271.64
-4274.03
-4276.72
-4279.67
-4282.83
-4286.15
-4289.58
-4293.06
-4296.56
-4300.02
-4303.4
-4306.66
-4309.76
-4312.67
-4315.38
-4317.85
-4320.07
-4322.05
-4323.76
-4325.22
-4326.44
-4327.41
-4328.16
-4328.71
-4329.07
-4329.27
-4329.32
-4329.27
-4329.12
-4328.9
-4328.65
-4328.37
-4328.1
-4327.86
-4327.64
-4327.48
-4327.37
-4327.3
-4327.28
-4266.1
-4266.48
-4267.27
-4268.5
-4270.17
-4272.21
-4274.59
-4277.27
-4280.2
-4283.34
-4286.65
-4290.07
-4293.55
-4297.04
-4300.5
-4303.87
-4307.12
-4310.2
-4313.1
-4315.78
-4318.22
-4320.41
-4322.34
-4324.01
-4325.41
-4326.56
-4327.47
-4328.15
-4328.61
-4328.89
-4329
-4328.96
-4328.81
-4328.56
-4328.24
-4327.89
-4327.51
-4327.15
-4326.82
-4326.54
-4326.33
-4326.19
-4326.13
-4326.12
-4267
-4267.38
-4268.15
-4269.33
-4270.95
-4272.93
-4275.25
-4277.88
-4280.77
-4283.88
-4287.17
-4290.57
-4294.03
-4297.51
-4300.96
-4304.32
-4307.55
-4310.62
-4313.5
-4316.16
-4318.57
-4320.73
-4322.62
-4324.24
-4325.59
-4326.68
-4327.53
-4328.13
-4328.52
-4328.72
-4328.74
-4328.6
-4328.35
-4327.99
-4327.57
-4327.09
-4326.59
-4326.1
-4325.65
-4325.25
-4324.95
-4324.74
-4324.68
-4324.69
-4268.3
-4268.62
-4269.31
-4270.37
-4271.87
-4273.74
-4275.97
-4278.51
-4281.34
-4284.4
-4287.65
-4291.02
-4294.47
-4297.94
-4301.37
-4304.72
-4307.95
-4311.01
-4313.87
-4316.5
-4318.89
-4321.02
-4322.88
-4324.46
-4325.76
-4326.8
-4327.59
-4328.13
-4328.45
-4328.57
-4328.5
-4328.28
-4327.93
-4327.47
-4326.92
-4326.32
-4325.69
-4325.05
-4324.43
-4323.86
-4323.41
-4323.04
-4322.93
-4322.92
-4270.08
-4270.21
-4270.74
-4271.54
-4272.85
-4274.55
-4276.66
-4279.1
-4281.86
-4284.86
-4288.07
-4291.42
-4294.85
-4298.31
-4301.73
-4305.07
-4308.29
-4311.34
-4314.19
-4316.81
-4319.18
-4321.28
-4323.11
-4324.66
-4325.92
-4326.92
-4327.65
-4328.14
-4328.4
-4328.45
-4328.31
-4328.01
-4327.57
-4327.01
-4326.35
-4325.63
-4324.85
-4324.05
-4323.24
-4322.46
-4321.77
-4321.13
-4320.88
-4320.7
-4272.5
-4272.1
-4272.34
-4272.75
-4273.81
-4275.32
-4277.28
-4279.62
-4282.29
-4285.25
-4288.42
-4291.74
-4295.16
-4298.61
-4302.02
-4305.36
-4308.57
-4311.62
-4314.46
-4317.07
-4319.42
-4321.51
-4323.31
-4324.83
-4326.07
-4327.03
-4327.72
-4328.16
-4328.37
-4328.37
-4328.17
-4327.8
-4327.28
-4326.63
-4325.88
-4325.04
-4324.13
-4323.16
-4322.16
-4321.12
-4320.15
-4319.1
-4318.58
-4317.9
-4275.68
-4274.21
-4274.01
-4273.89
-4274.67
-4275.97
-4277.79
-4280.03
-4282.63
-4285.54
-4288.68
-4291.99
-4295.4
-4298.84
-4302.25
-4305.59
-4308.8
-4311.84
-4314.68
-4317.28
-4319.63
-4321.7
-4323.49
-4324.99
-4326.2
-4327.13
-4327.79
-4328.2
-4328.36
-4328.31
-4328.06
-4327.64
-4327.06
-4326.34
-4325.51
-4324.57
-4323.54
-4322.43
-4321.25
-4319.95
-4318.66
-4317.07
-4316.14
-4314.39
-4279.71
-4276.35
-4275.57
-4274.87
-4275.37
-4276.47
-4278.17
-4280.33
-4282.88
-4285.75
-4288.87
-4292.17
-4295.57
-4299
-4302.42
-4305.76
-4308.97
-4312.01
-4314.84
-4317.44
-4319.78
-4321.85
-4323.62
-4325.11
-4326.3
-4327.21
-4327.85
-4328.23
-4328.37
-4328.28
-4328
-4327.53
-4326.9
-4326.13
-4325.24
-4324.22
-4323.1
-4321.87
-4320.54
-4319.01
-4317.41
-4315.22
-4313.74
-4310.08
-4284.52
-4278.32
-4276.87
-4275.62
-4275.89
-4276.83
-4278.43
-4280.53
-4283.04
-4285.89
-4288.99
-4292.28
-4295.68
-4299.12
-4302.53
-4305.87
-4309.08
-4312.13
-4314.96
-4317.56
-4319.89
-4321.95
-4323.72
-4325.2
-4326.38
-4327.28
-4327.9
-4328.26
-4328.38
-4328.27
-4327.96
-4327.46
-4326.8
-4325.99
-4325.05
-4323.99
-4322.81
-4321.49
-4320.03
-4318.32
-4316.47
-4313.72
-4311.6
-4305.07
-4289.75
-4279.88
-4277.79
-4276.11
-4276.21
-4277.04
-4278.59
-4280.65
-4283.13
-4285.96
-4289.06
-4292.35
-4295.74
-4299.18
-4302.6
-4305.94
-4309.15
-4312.19
-4315.03
-4317.63
-4319.96
-4322.02
-4323.78
-4325.25
-4326.43
-4327.32
-4327.93
-4328.28
-4328.38
-4328.26
-4327.94
-4327.42
-4326.75
-4325.92
-4324.95
-4323.85
-4322.63
-4321.25
-4319.73
-4317.9
-4315.87
-4312.68
-4309.93
-4299.7
-4294.69
-4280.86
-4278.28
-4276.37
-4276.37
-4277.15
-4278.67
-4280.7
-4283.18
-4286
-4289.09
-4292.38
-4295.77
-4299.21
-4302.63
-4305.97
-4309.18
-4312.23
-4315.06
-4317.66
-4319.99
-4322.05
-4323.81
-4325.28
-4326.45
-4327.33
-4327.94
-4328.29
-4328.39
-4328.26
-4327.93
-4327.41
-4326.72
-4325.88
-4324.9
-4323.79
-4322.55
-4321.15
-4319.58
-4317.69
-4315.56
-4312.13
-4308.9
-4294.69
-4298.64
-4281.29
-4278.45
-4276.46
-4276.42
-4277.18
-4278.69
-4280.72
-4283.19
-4286.01
-4289.1
-4292.38
-4295.78
-4299.22
-4302.64
-4305.98
-4309.19
-4312.24
-4315.07
-4317.67
-4320
-4322.05
-4323.82
-4325.28
-4326.45
-4327.34
-4327.95
-4328.29
-4328.39
-4328.26
-4327.92
-4327.4
-4326.71
-4325.87
-4324.89
-4323.77
-4322.52
-4321.11
-4319.53
-4317.62
-4315.46
-4311.95
-4308.46
-4290.72
)
;

boundaryField
{
    movingWall
    {
        type            zeroGradient;
    }
    fixedWalls
    {
        type            zeroGradient;
    }
    frontAndBack
    {
        type            empty;
    }
    defaultFaces
    {
        type            empty;
    }
}


// ************************************************************************* //
