/*--------------------------------*- C++ -*----------------------------------*\
  =========                 |
  \\      /  F ield         | OpenFOAM: The Open Source CFD Toolbox
   \\    /   O peration     | Website:  https://openfoam.org
    \\  /    A nd           | Version:  7
     \\/     M anipulation  |
\*---------------------------------------------------------------------------*/
FoamFile
{
    version     2.0;
    format      ascii;
    class       volVectorField;
    location    "2.6";
    object      U;
}
// * * * * * * * * * * * * * * * * * * * * * * * * * * * * * * * * * * * * * //

dimensions      [0 1 -1 0 0 0 0];

internalField   nonuniform List<vector> 
900
(
(5.62773e-05 -5.56307e-05 0)
(3.70894e-06 2.17759e-05 0)
(-0.000322424 0.000105888 0)
(-0.000831951 0.000160916 0)
(-0.00145837 0.000189349 0)
(-0.00214202 0.00019905 0)
(-0.00283838 0.000197339 0)
(-0.00351826 0.000189227 0)
(-0.00416304 0.000177445 0)
(-0.00476003 0.000163156 0)
(-0.00529924 0.000146627 0)
(-0.00577158 0.000127701 0)
(-0.00616796 0.000106089 0)
(-0.00647903 8.15268e-05 0)
(-0.00669528 5.38577e-05 0)
(-0.00680739 2.30874e-05 0)
(-0.00680674 -1.0574e-05 0)
(-0.00668598 -4.67157e-05 0)
(-0.00643985 -8.46155e-05 0)
(-0.00606611 -0.000123222 0)
(-0.00556664 -0.000161078 0)
(-0.00494888 -0.000196202 0)
(-0.00422755 -0.00022593 0)
(-0.0034268 -0.000246699 0)
(-0.0025828 -0.000253762 0)
(-0.0017464 -0.000241011 0)
(-0.000984435 -0.000201536 0)
(-0.000375071 -0.000129804 0)
(5.07601e-06 -2.74189e-05 0)
(6.4431e-05 6.27671e-05 0)
(-2.03101e-05 -4.82015e-06 0)
(-0.00040355 0.000401844 0)
(-0.00134543 0.000794491 0)
(-0.00265367 0.00106976 0)
(-0.00420277 0.00122692 0)
(-0.00587884 0.00129011 0)
(-0.00758709 0.00128694 0)
(-0.0092584 0.0012395 0)
(-0.0108441 0.00116218 0)
(-0.0123089 0.00106289 0)
(-0.0136248 0.000945181 0)
(-0.0147675 0.000810172 0)
(-0.0157144 0.000657898 0)
(-0.0164434 0.000488214 0)
(-0.0169336 0.000301347 0)
(-0.0171648 9.82429e-05 0)
(-0.0171197 -0.000119188 0)
(-0.016784 -0.000347671 0)
(-0.0161491 -0.000582444 0)
(-0.0152136 -0.000816864 0)
(-0.0139856 -0.00104198 0)
(-0.0124864 -0.00124599 0)
(-0.0107536 -0.00141362 0)
(-0.00884557 -0.00152558 0)
(-0.00684519 -0.00155836 0)
(-0.00486348 -0.00148543 0)
(-0.00303792 -0.00128172 0)
(-0.00151702 -0.000933961 0)
(-0.000444661 -0.000461026 0)
(-1.90872e-05 7.06528e-06 0)
(-0.000108166 0.000323765 0)
(-0.000823041 0.00135022 0)
(-0.00231769 0.00225697 0)
(-0.00428192 0.00290168 0)
(-0.00654829 0.00328048 0)
(-0.00897299 0.00343776 0)
(-0.0114324 0.00342928 0)
(-0.0138328 0.00330322 0)
(-0.0161058 0.00309361 0)
(-0.0181999 0.00282109 0)
(-0.0200742 0.00249649 0)
(-0.0216933 0.00212468 0)
(-0.0230253 0.0017076 0)
(-0.0240398 0.00124644 0)
(-0.0247084 0.000743063 0)
(-0.025005 0.000200892 0)
(-0.024907 -0.000374293 0)
(-0.024397 -0.000973551 0)
(-0.0234652 -0.00158423 0)
(-0.022112 -0.00218904 0)
(-0.0203512 -0.00276499 0)
(-0.0182142 -0.00328222 0)
(-0.0157545 -0.00370283 0)
(-0.0130529 -0.00398022 0)
(-0.0102214 -0.00406008 0)
(-0.00740705 -0.00388492 0)
(-0.00478723 -0.00340548 0)
(-0.00254908 -0.0026019 0)
(-0.000883879 -0.00151826 0)
(-0.000109721 -0.000349126 0)
(-0.000173019 0.000859768 0)
(-0.00115981 0.00271903 0)
(-0.00311788 0.00425368 0)
(-0.00561655 0.00532916 0)
(-0.00844868 0.00595824 0)
(-0.0114484 0.00621432 0)
(-0.0144738 0.00618594 0)
(-0.0174166 0.00595063 0)
(-0.0201963 0.00556469 0)
(-0.0227516 0.00506375 0)
(-0.0250332 0.0044677 0)
(-0.0269986 0.00378652 0)
(-0.0286094 0.00302521 0)
(-0.0298299 0.00218721 0)
(-0.0306266 0.00127688 0)
(-0.0309692 0.000301098 0)
(-0.0308315 -0.000729281 0)
(-0.0301936 -0.00179829 0)
(-0.0290445 -0.00288343 0)
(-0.027385 -0.00395421 0)
(-0.0252322 -0.00497035 0)
(-0.0226239 -0.00587999 0)
(-0.0196239 -0.00661805 0)
(-0.016328 -0.00710582 0)
(-0.0128679 -0.00725357 0)
(-0.00941452 -0.00696882 0)
(-0.00617359 -0.00617411 0)
(-0.00336219 -0.0048367 0)
(-0.00121547 -0.00301051 0)
(-0.000170214 -0.000912698 0)
(-0.000216645 0.00155525 0)
(-0.00141264 0.0044281 0)
(-0.00374379 0.00668405 0)
(-0.00667363 0.00823232 0)
(-0.00995746 0.00912412 0)
(-0.0134096 0.00947334 0)
(-0.0168743 0.00940706 0)
(-0.020234 0.00903501 0)
(-0.0234012 0.00843752 0)
(-0.0263092 0.00766628 0)
(-0.0289036 0.00675112 0)
(-0.0311375 0.00570786 0)
(-0.0329686 0.00454501 0)
(-0.034357 0.00326872 0)
(-0.0352654 0.00188618 0)
(-0.0356595 0.000408119 0)
(-0.0355093 -0.00114916 0)
(-0.0347914 -0.00276181 0)
(-0.0334916 -0.00439636 0)
(-0.0316091 -0.00600737 0)
(-0.0291611 -0.00753495 0)
(-0.0261882 -0.0089021 0)
(-0.022761 -0.0100128 0)
(-0.0189863 -0.0107523 0)
(-0.015012 -0.0109912 0)
(-0.0110302 -0.0105979 0)
(-0.0072731 -0.00946134 0)
(-0.00398821 -0.0075275 0)
(-0.0014532 -0.00484417 0)
(-0.000206014 -0.00162593 0)
(-0.000245797 0.00236791 0)
(-0.00160266 0.0064079 0)
(-0.00423522 0.00947044 0)
(-0.00751959 0.0115298 0)
(-0.0111768 0.012694 0)
(-0.015002 0.0131292 0)
(-0.0188276 0.0130078 0)
(-0.0225291 0.0124755 0)
(-0.026015 0.0116384 0)
(-0.0292155 0.0105651 0)
(-0.0320738 0.00929561 0)
(-0.0345406 0.00785173 0)
(-0.0365704 0.00624545 0)
(-0.0381204 0.00448538 0)
(-0.0391492 0.00258128 0)
(-0.0396182 0.000547383 0)
(-0.0394922 -0.00159474 0)
(-0.0387418 -0.0038133 0)
(-0.0373473 -0.00606325 0)
(-0.0353027 -0.00828293 0)
(-0.0326217 -0.0103905 0)
(-0.0293448 -0.0122804 0)
(-0.0255468 -0.0138215 0)
(-0.0213442 -0.0148574 0)
(-0.0169016 -0.0152138 0)
(-0.0124351 -0.0147136 0)
(-0.00820712 -0.0132064 0)
(-0.00449973 -0.0106089 0)
(-0.00163278 -0.00695338 0)
(-0.0002272 -0.00244499 0)
(-0.000267158 0.0032689 0)
(-0.00175548 0.00860597 0)
(-0.00464414 0.012553 0)
(-0.00823636 0.0151608 0)
(-0.0122219 0.0166079 0)
(-0.0163775 0.0171238 0)
(-0.0205243 0.0169334 0)
(-0.0245319 0.0162223 0)
(-0.0283063 0.0151245 0)
(-0.0317764 0.0137262 0)
(-0.0348844 0.0120777 0)
(-0.0375795 0.0102065 0)
(-0.0398144 0.00812732 0)
(-0.0415429 0.00585049 0)
(-0.0427197 0.00338732 0)
(-0.0433001 0.00075451 0)
(-0.0432419 -0.00202206 0)
(-0.0425072 -0.00490334 0)
(-0.0410668 -0.00783269 0)
(-0.0389056 -0.0107312 0)
(-0.0360298 -0.0134925 0)
(-0.0324761 -0.0159784 0)
(-0.0283213 -0.0180165 0)
(-0.0236922 -0.0194018 0)
(-0.018773 -0.0199066 0)
(-0.0138095 -0.019301 0)
(-0.00910205 -0.017388 0)
(-0.00497418 -0.0140504 0)
(-0.00178982 -0.00930248 0)
(-0.00024221 -0.00334611 0)
(-0.000285783 0.00424402 0)
(-0.00189348 0.0109945 0)
(-0.00501905 0.0158998 0)
(-0.0089005 0.0190943 0)
(-0.0131982 0.0208374 0)
(-0.017671 0.0214318 0)
(-0.0221287 0.0211621 0)
(-0.0264359 0.0202584 0)
(-0.0304969 0.0188845 0)
(-0.0342402 0.0171452 0)
(-0.0376081 0.0151012 0)
(-0.0405493 0.0127847 0)
(-0.0430148 0.0102124 0)
(-0.0449558 0.00739467 0)
(-0.0463218 0.00434285 0)
(-0.0470611 0.00107419 0)
(-0.0471219 -0.00238297 0)
(-0.0464545 -0.00598388 0)
(-0.0450159 -0.00966096 0)
(-0.0427768 -0.0133172 0)
(-0.0397308 -0.016819 0)
(-0.0359061 -0.0199901 0)
(-0.0313791 -0.0226088 0)
(-0.0262872 -0.0244109 0)
(-0.0208387 -0.0251042 0)
(-0.0153173 -0.0243954 0)
(-0.0100725 -0.0220335 0)
(-0.00547969 -0.0178652 0)
(-0.00195278 -0.0118912 0)
(-0.000256527 -0.0043243 0)
(-0.000304973 0.00529046 0)
(-0.00203345 0.0135672 0)
(-0.00539852 0.0195047 0)
(-0.00957393 0.0233259 0)
(-0.0141908 0.0253808 0)
(-0.0189897 0.0260543 0)
(-0.0237696 0.025698 0)
(-0.0283901 0.0245911 0)
(-0.0327545 0.0229302 0)
(-0.036792 0.0208394 0)
(-0.0404459 0.0183894 0)
(-0.0436654 0.0156165 0)
(-0.0464007 0.0125378 0)
(-0.0486 0.00916199 0)
(-0.0502078 0.00549781 0)
(-0.0511639 0.00156032 0)
(-0.0514046 -0.00262262 0)
(-0.0508645 -0.00700323 0)
(-0.0494818 -0.0115047 0)
(-0.0472067 -0.0160117 0)
(-0.0440131 -0.0203605 0)
(-0.0399143 -0.02433 0)
(-0.0349817 -0.0276382 0)
(-0.0293626 -0.0299476 0)
(-0.0232943 -0.0308852 0)
(-0.0171095 -0.0300796 0)
(-0.0112218 -0.0272173 0)
(-0.00607433 -0.0221085 0)
(-0.00214301 -0.0147505 0)
(-0.000273105 -0.00538813 0)
(-0.000326737 0.00641312 0)
(-0.00218705 0.0163341 0)
(-0.00581081 0.0233813 0)
(-0.0103027 0.0278716 0)
(-0.0152627 0.0302558 0)
(-0.0204126 0.0310105 0)
(-0.0255401 0.0305619 0)
(-0.0305002 0.0292437 0)
(-0.0351961 0.0272876 0)
(-0.0395591 0.0248386 0)
(-0.0435345 0.0219773 0)
(-0.0470733 0.018743 0)
(-0.0501261 0.0151513 0)
(-0.0526389 0.0112069 0)
(-0.0545511 0.00691269 0)
(-0.0557934 0.00227776 0)
(-0.0562881 -0.00267483 0)
(-0.0559503 -0.00789867 0)
(-0.0546932 -0.0133108 0)
(-0.0524388 -0.0187789 0)
(-0.0491315 -0.0241065 0)
(-0.0447601 -0.0290199 0)
(-0.0393825 -0.0331626 0)
(-0.0331526 -0.0361041 0)
(-0.0263407 -0.0373675 0)
(-0.0193415 -0.0364827 0)
(-0.0126544 -0.0330604 0)
(-0.00681382 -0.0268757 0)
(-0.0023784 -0.0179383 0)
(-0.000293341 -0.00655565 0)
(-0.000352295 0.00762203 0)
(-0.00236227 0.0193169 0)
(-0.00627605 0.0275572 0)
(-0.0111198 0.032762 0)
(-0.0164592 0.0354936 0)
(-0.0219952 0.0363313 0)
(-0.0275041 0.0357848 0)
(-0.032837 0.0342474 0)
(-0.0378982 0.0319901 0)
(-0.0426223 0.0291795 0)
(-0.0469587 0.0259062 0)
(-0.0508622 0.0222115 0)
(-0.0542852 0.0181078 0)
(-0.0571736 0.0135925 0)
(-0.0594625 0.00865905 0)
(-0.0610738 0.00330532 0)
(-0.0619147 -0.00245625 0)
(-0.0618767 -0.00858776 0)
(-0.0608418 -0.0150052 0)
(-0.0586936 -0.0215631 0)
(-0.0553346 -0.0280311 0)
(-0.0507135 -0.0340748 0)
(-0.0448609 -0.0392465 0)
(-0.0379277 -0.0429956 0)
(-0.0302178 -0.0447085 0)
(-0.0222032 -0.0437842 0)
(-0.0144979 -0.0397373 0)
(-0.00776482 -0.0323079 0)
(-0.00267872 -0.0215424 0)
(-0.000318033 -0.00785321 0)
(-0.00038248 0.00893075 0)
(-0.00256508 0.0225456 0)
(-0.00680947 0.0320708 0)
(-0.0120502 0.0380378 0)
(-0.0178132 0.0411342 0)
(-0.0237767 0.0420548 0)
(-0.0297049 0.0414025 0)
(-0.035446 0.0396377 0)
(-0.0409069 0.0370736 0)
(-0.0460277 0.0339005 0)
(-0.0507646 0.0302194 0)
(-0.0550783 0.0260726 0)
(-0.0589265 0.021467 0)
(-0.0622574 0.0163899 0)
(-0.0650047 0.0108204 0)
(-0.0670827 0.00473893 0)
(-0.0683846 -0.00186042 0)
(-0.0687756 -0.00895855 0)
(-0.0680986 -0.0164791 0)
(-0.0661889 -0.0242712 0)
(-0.0628893 -0.0320736 0)
(-0.0580867 -0.039485 0)
(-0.0517602 -0.0459465 0)
(-0.044038 -0.0507528 0)
(-0.0352502 -0.0531066 0)
(-0.0259601 -0.0522255 0)
(-0.0169359 -0.0474923 0)
(-0.00902451 -0.0386079 0)
(-0.00307304 -0.0256892 0)
(-0.000348384 -0.00931761 0)
(-0.000418056 0.0103556 0)
(-0.00280084 0.0260572 0)
(-0.00742452 0.0369687 0)
(-0.013115 0.0437474 0)
(-0.0193517 0.0472231 0)
(-0.0257873 0.0482221 0)
(-0.0321734 0.0474522 0)
(-0.0383565 0.0454488 0)
(-0.0442483 0.042572 0)
(-0.0497974 0.039038 0)
(-0.0549695 0.0349583 0)
(-0.0597356 0.0303759 0)
(-0.0640622 0.0252907 0)
(-0.0679046 0.0196763 0)
(-0.0711993 0.0134921 0)
(-0.0738573 0.00669302 0)
(-0.0757614 -0.000756881 0)
(-0.0767494 -0.00885964 0)
(-0.0766198 -0.0175722 0)
(-0.0751482 -0.0267509 0)
(-0.0720966 -0.0361127 0)
(-0.067259 -0.0451878 0)
(-0.060525 -0.0532874 0)
(-0.0519621 -0.0595086 0)
(-0.0419033 -0.0628027 0)
(-0.0310097 -0.0621274 0)
(-0.0202531 -0.0566686 0)
(-0.0107491 -0.0460706 0)
(-0.0036104 -0.0305659 0)
(-0.000387392 -0.0110028 0)
(-0.000459986 0.0119159 0)
(-0.00307573 0.0298954 0)
(-0.00813591 0.042305 0)
(-0.0143364 0.049945 0)
(-0.0211014 0.0538095 0)
(-0.0280548 0.0548749 0)
(-0.0349351 0.0539691 0)
(-0.0415889 0.0517111 0)
(-0.0479359 0.0485139 0)
(-0.0539363 0.0446217 0)
(-0.0595697 0.0401582 0)
(-0.0648216 0.0351667 0)
(-0.0696732 0.0296389 0)
(-0.0740932 0.0235322 0)
(-0.0780289 0.0167815 0)
(-0.0813961 0.00930857 0)
(-0.084064 0.00103656 0)
(-0.085856 -0.00808294 0)
(-0.0865331 -0.0180536 0)
(-0.0857904 -0.0287639 0)
(-0.0832865 -0.039931 0)
(-0.0786827 -0.0510282 0)
(-0.0717226 -0.0612244 0)
(-0.0623483 -0.0693703 0)
(-0.0508412 -0.0740749 0)
(-0.0379472 -0.0739115 0)
(-0.0248957 -0.0677522 0)
(-0.0131939 -0.0551334 0)
(-0.00437552 -0.0364587 0)
(-0.000442026 -0.0129932 0)
(-0.000509699 0.0136346 0)
(-0.0033981 0.0341119 0)
(-0.00896263 0.048142 0)
(-0.0157416 0.056691 0)
(-0.0230937 0.0609445 0)
(-0.0306098 0.0620535 0)
(-0.0380157 0.0609829 0)
(-0.0451606 0.0584472 0)
(-0.0519756 0.0549177 0)
(-0.058437 0.0506705 0)
(-0.0645429 0.0458428 0)
(-0.070299 0.0404793 0)
(-0.0757076 0.0345631 0)
(-0.0807588 0.0280343 0)
(-0.0854202 0.0207994 0)
(-0.0896229 0.0127403 0)
(-0.0932448 0.00372646 0)
(-0.0960981 -0.00636623 0)
(-0.0979051 -0.017608 0)
(-0.0982855 -0.0299577 0)
(-0.0967713 -0.0431737 0)
(-0.0928422 -0.0567045 0)
(-0.0860176 -0.0695833 0)
(-0.0760127 -0.0803699 0)
(-0.0629559 -0.0872134 0)
(-0.0476201 -0.0881151 0)
(-0.0315344 -0.081426 0)
(-0.0167624 -0.0664501 0)
(-0.00551001 -0.0438137 0)
(-0.000526443 -0.0154273 0)
(-0.000569448 0.0155401 0)
(-0.0037802 0.0387693 0)
(-0.00993137 0.0545527 0)
(-0.017368 0.0640522 0)
(-0.0253698 0.0686806 0)
(-0.033491 0.0697937 0)
(-0.0414457 0.0685153 0)
(-0.0490892 0.0656674 0)
(-0.0563687 0.0617872 0)
(-0.0632814 0.0571861 0)
(-0.069849 0.0520174 0)
(-0.0761033 0.0463287 0)
(-0.0820751 0.0400966 0)
(-0.0877859 0.0332439 0)
(-0.0932356 0.0256473 0)
(-0.0983874 0.0171423 0)
(-0.103146 0.0075305 0)
(-0.107333 -0.00340127 0)
(-0.110651 -0.0158329 0)
(-0.11265 -0.029848 0)
(-0.112723 -0.0453099 0)
(-0.110118 -0.0617086 0)
(-0.104037 -0.0779834 0)
(-0.0938273 -0.092381 0)
(-0.0792978 -0.102458 0)
(-0.0611158 -0.105376 0)
(-0.0410981 -0.0986178 0)
(-0.0220522 -0.0809827 0)
(-0.00723693 -0.053324 0)
(-0.000666338 -0.0185328 0)
(-0.000642862 0.0176689 0)
(-0.00424047 0.0439457 0)
(-0.0110809 0.0616243 0)
(-0.0192677 0.0721032 0)
(-0.0279858 0.0770702 0)
(-0.0367492 0.0781249 0)
(-0.045263 0.0765749 0)
(-0.053394 0.0733651 0)
(-0.0611113 0.0691051 0)
(-0.068438 0.0641459 0)
(-0.0754246 0.0586593 0)
(-0.0821344 0.0526993 0)
(-0.0886341 0.0462392 0)
(-0.0949858 0.0391883 0)
(-0.101236 0.031396 0)
(-0.107401 0.0226501 0)
(-0.113434 0.0126761 0)
(-0.119196 0.00114986 0)
(-0.124404 -0.012262 0)
(-0.128565 -0.0278333 0)
(-0.130935 -0.0456269 0)
(-0.130501 -0.0652873 0)
(-0.126051 -0.0857597 0)
(-0.116398 -0.105007 0)
(-0.100801 -0.119874 0)
(-0.0795806 -0.126347 0)
(-0.0547088 -0.120495 0)
(-0.0298691 -0.100083 0)
(-0.00988458 -0.0660356 0)
(-0.000905064 -0.0226771 0)
(-0.000735882 0.02007 0)
(-0.00480721 0.0497423 0)
(-0.0124682 0.0694632 0)
(-0.0215148 0.0809279 0)
(-0.0310181 0.0861641 0)
(-0.0404504 0.0870646 0)
(-0.0495135 0.0851519 0)
(-0.0580937 0.0815087 0)
(-0.0661888 0.0768243 0)
(-0.0738533 0.0714921 0)
(-0.0811707 0.0657052 0)
(-0.0882397 0.0595278 0)
(-0.0951679 0.0529356 0)
(-0.102066 0.0458319 0)
(-0.10904 0.0380463 0)
(-0.116174 0.0293246 0)
(-0.123503 0.0193157 0)
(-0.130963 0.00756739 0)
(-0.138327 -0.00645232 0)
(-0.145109 -0.0232797 0)
(-0.150466 -0.0432986 0)
(-0.153127 -0.0664734 0)
(-0.151413 -0.0919297 0)
(-0.143452 -0.117465 0)
(-0.127693 -0.139161 0)
(-0.103755 -0.151472 0)
(-0.0734199 -0.148324 0)
(-0.0411628 -0.125498 0)
(-0.013907 -0.0834483 0)
(-0.00131524 -0.0284301 0)
(-0.000858514 0.0228119 0)
(-0.00552435 0.0562931 0)
(-0.0141771 0.078202 0)
(-0.024213 0.0906201 0)
(-0.0345676 0.0960065 0)
(-0.0446752 0.0966113 0)
(-0.0542451 0.0942074 0)
(-0.0631948 0.0900309 0)
(-0.0715592 0.0848554 0)
(-0.0794296 0.0791174 0)
(-0.0869246 0.0730332 0)
(-0.09418 0.066681 0)
(-0.101345 0.0600463 0)
(-0.108582 0.0530365 0)
(-0.116061 0.0454749 0)
(-0.123949 0.0370786 0)
(-0.132379 0.0274287 0)
(-0.141402 0.0159407 0)
(-0.1509 0.00185555 0)
(-0.160455 -0.0157063 0)
(-0.169208 -0.0375793 0)
(-0.175708 -0.06425 0)
(-0.177841 -0.0952738 0)
(-0.172997 -0.128518 0)
(-0.158607 -0.159398 0)
(-0.13317 -0.180597 0)
(-0.0976689 -0.183073 0)
(-0.0568245 -0.159182 0)
(-0.019904 -0.107561 0)
(-0.00202593 -0.0366478 0)
(-0.00102824 0.0259947 0)
(-0.00646144 0.0637811 0)
(-0.0163316 0.0880058 0)
(-0.0275052 0.10128 0)
(-0.0387622 0.106624 0)
(-0.049511 0.106729 0)
(-0.0594893 0.103657 0)
(-0.0686625 0.0988098 0)
(-0.0771137 0.0930465 0)
(-0.0849755 0.0868435 0)
(-0.0924026 0.0804389 0)
(-0.0995648 0.0739275 0)
(-0.106649 0.0673112 0)
(-0.113862 0.0605139 0)
(-0.121433 0.0533689 0)
(-0.129608 0.045586 0)
(-0.138626 0.0366991 0)
(-0.148673 0.026005 0)
(-0.159783 0.0125129 0)
(-0.17168 -0.00505342 0)
(-0.183614 -0.0281284 0)
(-0.194123 -0.0578756 0)
(-0.200837 -0.0945816 0)
(-0.200548 -0.136544 0)
(-0.189642 -0.178835 0)
(-0.165151 -0.212434 0)
(-0.126434 -0.224709 0)
(-0.0772589 -0.20276 0)
(-0.0286249 -0.140772 0)
(-0.00327963 -0.0485856 0)
(-0.00127713 0.0297698 0)
(-0.00773128 0.0724594 0)
(-0.0191147 0.0990785 0)
(-0.0315832 0.113003 0)
(-0.0437486 0.118004 0)
(-0.0550259 0.117317 0)
(-0.0652154 0.113337 0)
(-0.0743563 0.107637 0)
(-0.0825939 0.101151 0)
(-0.0901076 0.0943875 0)
(-0.0970869 0.0876009 0)
(-0.10373 0.0809012 0)
(-0.11025 0.0743107 0)
(-0.116885 0.0677792 0)
(-0.123902 0.0611669 0)
(-0.131603 0.0541997 0)
(-0.140312 0.0463947 0)
(-0.150334 0.0369624 0)
(-0.161878 0.0247031 0)
(-0.17491 0.00794573 0)
(-0.188891 -0.0153764 0)
(-0.202585 -0.0472813 0)
(-0.213769 -0.0890229 0)
(-0.219016 -0.139763 0)
(-0.213952 -0.194822 0)
(-0.194056 -0.244049 0)
(-0.156267 -0.271229 0)
(-0.101631 -0.256512 0)
(-0.0408615 -0.185469 0)
(-0.00551616 -0.0660409 0)
(-0.0016671 0.034377 0)
(-0.00952272 0.0826826 0)
(-0.0227972 0.11166 0)
(-0.0366918 0.125847 0)
(-0.0496642 0.130045 0)
(-0.0612037 0.12816 0)
(-0.071231 0.122953 0)
(-0.0798966 0.11616 0)
(-0.0874282 0.108772 0)
(-0.0940598 0.10131 0)
(-0.100016 0.0940335 0)
(-0.105518 0.0870601 0)
(-0.110792 0.0804305 0)
(-0.116083 0.0741227 0)
(-0.121666 0.0680335 0)
(-0.127858 0.0619247 0)
(-0.135017 0.0553302 0)
(-0.143526 0.047424 0)
(-0.153742 0.0368646 0)
(-0.165882 0.0216707 0)
(-0.179791 -0.000767818 0)
(-0.194742 -0.033405 0)
(-0.209092 -0.0785482 0)
(-0.219847 -0.136637 0)
(-0.222515 -0.204052 0)
(-0.211419 -0.270687 0)
(-0.180696 -0.317789 0)
(-0.126861 -0.31792 0)
(-0.0569971 -0.243057 0)
(-0.00942176 -0.0914401 0)
(-0.00232381 0.0402146 0)
(-0.0121627 0.0949459 0)
(-0.0277778 0.126001 0)
(-0.0431144 0.139766 0)
(-0.0565564 0.142466 0)
(-0.0677977 0.138824 0)
(-0.0769739 0.131976 0)
(-0.0844019 0.123789 0)
(-0.0904214 0.115273 0)
(-0.0953371 0.106937 0)
(-0.0994158 0.0990224 0)
(-0.102899 0.0916413 0)
(-0.106015 0.0848404 0)
(-0.108997 0.0786179 0)
(-0.112093 0.0729037 0)
(-0.115585 0.0675029 0)
(-0.119802 0.0619924 0)
(-0.125128 0.0555686 0)
(-0.131997 0.0468534 0)
(-0.140853 0.0337112 0)
(-0.152033 0.0131735 0)
(-0.165475 -0.0183667 0)
(-0.180527 -0.064292 0)
(-0.195379 -0.126543 0)
(-0.206342 -0.203393 0)
(-0.207529 -0.286428 0)
(-0.190739 -0.356618 0)
(-0.146936 -0.380371 0)
(-0.076024 -0.312269 0)
(-0.0157862 -0.127624 0)
(-0.00351063 0.0479761 0)
(-0.0162324 0.109925 0)
(-0.0346252 0.142276 0)
(-0.0510928 0.154447 0)
(-0.064173 0.154624 0)
(-0.0740041 0.148474 0)
(-0.0810843 0.139469 0)
(-0.0859787 0.129533 0)
(-0.0891857 0.119642 0)
(-0.0911084 0.110246 0)
(-0.0920712 0.101544 0)
(-0.0923431 0.0936169 0)
(-0.0921542 0.0864962 0)
(-0.0917106 0.0801788 0)
(-0.09121 0.0746095 0)
(-0.0908608 0.0696271 0)
(-0.0909075 0.0648623 0)
(-0.0916636 0.0595831 0)
(-0.0935518 0.0524874 0)
(-0.0971454 0.0414868 0)
(-0.103164 0.0235803 0)
(-0.112293 -0.00505301 0)
(-0.12512 -0.048683 0)
(-0.141445 -0.110533 0)
(-0.159362 -0.191308 0)
(-0.174188 -0.285984 0)
(-0.176915 -0.378482 0)
(-0.153418 -0.433133 0)
(-0.0943018 -0.387147 0)
(-0.0249323 -0.17693 0)
(-0.00578317 0.0589361 0)
(-0.0227662 0.128481 0)
(-0.0440571 0.16034 0)
(-0.0605262 0.168977 0)
(-0.0714078 0.165171 0)
(-0.0777029 0.155556 0)
(-0.0804982 0.143802 0)
(-0.080723 0.131766 0)
(-0.0790998 0.120299 0)
(-0.0761658 0.109734 0)
(-0.0723202 0.100186 0)
(-0.0678665 0.0916717 0)
(-0.0630339 0.0841756 0)
(-0.0579962 0.0776626 0)
(-0.0528875 0.0720634 0)
(-0.0478259 0.0672278 0)
(-0.0429451 0.0628322 0)
(-0.0384424 0.0582432 0)
(-0.0346547 0.052326 0)
(-0.0321518 0.0432286 0)
(-0.0318446 0.0282175 0)
(-0.0351026 0.00365694 0)
(-0.0434728 -0.0348393 0)
(-0.0583423 -0.0914014 0)
(-0.0802846 -0.168976 0)
(-0.107269 -0.266941 0)
(-0.131936 -0.375505 0)
(-0.137264 -0.463287 0)
(-0.105043 -0.455949 0)
(-0.0356246 -0.239451 0)
(-0.0102813 0.0755844 0)
(-0.0335166 0.151513 0)
(-0.0565356 0.179153 0)
(-0.0698943 0.181177 0)
(-0.0747319 0.171433 0)
(-0.0735853 0.157278 0)
(-0.0684373 0.142264 0)
(-0.0607077 0.127956 0)
(-0.0513941 0.114954 0)
(-0.0411684 0.103366 0)
(-0.030479 0.0931759 0)
(-0.0196376 0.0842917 0)
(-0.00884397 0.0766138 0)
(0.00178396 0.0700453 0)
(0.0121903 0.0644751 0)
(0.022353 0.0597371 0)
(0.0322488 0.0555377 0)
(0.041801 0.0513446 0)
(0.0507876 0.0462338 0)
(0.0587133 0.0387051 0)
(0.0646393 0.0265109 0)
(0.066955 0.00656821 0)
(0.0635069 -0.0249436 0)
(0.0516509 -0.0723356 0)
(0.0286583 -0.139866 0)
(-0.00690806 -0.230896 0)
(-0.0520399 -0.343915 0)
(-0.0905353 -0.458977 0)
(-0.0994083 -0.502465 0)
(-0.0440119 -0.311548 0)
(-0.019103 0.102575 0)
(-0.0507668 0.178802 0)
(-0.0699034 0.195327 0)
(-0.0723384 0.186275 0)
(-0.0635299 0.168406 0)
(-0.0483585 0.148985 0)
(-0.0298892 0.130774 0)
(-0.00995975 0.114661 0)
(0.0102818 0.100749 0)
(0.0301868 0.0888557 0)
(0.0494251 0.0787311 0)
(0.0677915 0.0701365 0)
(0.0852156 0.0628669 0)
(0.101707 0.0567488 0)
(0.117327 0.0516194 0)
(0.132168 0.0472881 0)
(0.146313 0.043484 0)
(0.159785 0.0397722 0)
(0.172463 0.0354427 0)
(0.18395 0.029377 0)
(0.19338 0.0199162 0)
(0.199092 0.00476114 0)
(0.198787 -0.0190165 0)
(0.189217 -0.0550218 0)
(0.166273 -0.107552 0)
(0.125707 -0.182156 0)
(0.0647768 -0.284892 0)
(-0.00585637 -0.412614 0)
(-0.0681856 -0.50988 0)
(-0.043376 -0.384649 0)
(-0.0341394 0.145714 0)
(-0.0719277 0.202884 0)
(-0.0672003 0.197413 0)
(-0.0418219 0.172865 0)
(-0.00708504 0.146401 0)
(0.0303851 0.123034 0)
(0.0673548 0.103592 0)
(0.102396 0.0877232 0)
(0.134909 0.074803 0)
(0.164753 0.0642884 0)
(0.192017 0.0556882 0)
(0.216876 0.0486292 0)
(0.239554 0.0428241 0)
(0.260296 0.0380474 0)
(0.279351 0.0341091 0)
(0.296949 0.0308198 0)
(0.313278 0.0279511 0)
(0.328439 0.0251799 0)
(0.342368 0.0220171 0)
(0.354725 0.0177189 0)
(0.364735 0.0111931 0)
(0.370813 0.000923835 0)
(0.370782 -0.0148072 0)
(0.361198 -0.0385092 0)
(0.337327 -0.0734415 0)
(0.293595 -0.12493 0)
(0.222685 -0.202782 0)
(0.126968 -0.322006 0)
(0.00107646 -0.462592 0)
(-0.0209111 -0.437285 0)
(-0.0372555 0.23656 0)
(-0.0459392 0.20541 0)
(0.0310234 0.155223 0)
(0.103942 0.11903 0)
(0.171581 0.0917117 0)
(0.231594 0.0713365 0)
(0.283615 0.0563899 0)
(0.328404 0.045344 0)
(0.366991 0.0370281 0)
(0.40036 0.0306686 0)
(0.429368 0.0257396 0)
(0.454733 0.0218801 0)
(0.47706 0.018835 0)
(0.496855 0.016418 0)
(0.514547 0.0144836 0)
(0.530481 0.0129009 0)
(0.544914 0.0115273 0)
(0.55798 0.0101796 0)
(0.569627 0.00860056 0)
(0.57952 0.00642325 0)
(0.586897 0.00313992 0)
(0.590529 -0.00193451 0)
(0.588432 -0.00964579 0)
(0.57734 -0.0212595 0)
(0.552478 -0.0383444 0)
(0.508551 -0.0641677 0)
(0.434577 -0.106122 0)
(0.328322 -0.189598 0)
(0.139913 -0.337705 0)
(0.0593292 -0.414259 0)
(0.231273 0.158483 0)
(0.29189 0.11743 0)
(0.442444 0.0763503 0)
(0.542301 0.0510336 0)
(0.610089 0.0345955 0)
(0.659904 0.0236629 0)
(0.697825 0.016478 0)
(0.727214 0.0117611 0)
(0.750431 0.00861592 0)
(0.769149 0.00647695 0)
(0.784521 0.00499547 0)
(0.797354 0.0039532 0)
(0.808234 0.0032102 0)
(0.817596 0.00267438 0)
(0.825767 0.00228173 0)
(0.832985 0.00198205 0)
(0.839405 0.00172754 0)
(0.845081 0.00146278 0)
(0.849937 0.00111523 0)
(0.853719 0.00059263 0)
(0.85592 -0.00021965 0)
(0.855693 -0.00141503 0)
(0.851606 -0.00327801 0)
(0.841892 -0.0061466 0)
(0.823328 -0.0102992 0)
(0.793256 -0.0166789 0)
(0.739112 -0.027132 0)
(0.660963 -0.0499827 0)
(0.456784 -0.111254 0)
(0.313846 -0.178411 0)
)
;

boundaryField
{
    movingWall
    {
        type            fixedValue;
        value           uniform (1 0 0);
    }
    fixedWalls
    {
        type            noSlip;
    }
    frontAndBack
    {
        type            empty;
    }
}


// ************************************************************************* //
