/*--------------------------------*- C++ -*----------------------------------*\
  =========                 |
  \\      /  F ield         | OpenFOAM: The Open Source CFD Toolbox
   \\    /   O peration     | Website:  https://openfoam.org
    \\  /    A nd           | Version:  7
     \\/     M anipulation  |
\*---------------------------------------------------------------------------*/
FoamFile
{
    version     2.0;
    format      ascii;
    class       volScalarField;
    location    "0.2";
    object      p;
}
// * * * * * * * * * * * * * * * * * * * * * * * * * * * * * * * * * * * * * //

dimensions      [0 2 -2 0 0 0 0];

internalField   nonuniform List<scalar> 
900
(
1.32277e-08
0.0015081
-0.000874568
0.00251464
0.000260227
0.00344218
0.00262457
0.0048426
0.00561494
0.0071314
0.00870106
0.0103374
0.0120544
0.0138315
0.0156451
0.0174725
0.0192931
0.0210851
0.0228211
0.0244732
0.0260751
0.0277512
0.0282863
0.0309934
0.0295467
0.0336075
0.0304268
0.0349772
0.0312959
0.0334703
3.21098e-05
0.00134254
-0.000841144
0.00254141
0.000174229
0.00354107
0.00253128
0.00493205
0.00559416
0.00714384
0.00871707
0.0103474
0.0120601
0.0138343
0.0156442
0.0174676
0.019286
0.0210763
0.0228088
0.0244525
0.026054
0.0277893
0.0281788
0.0311151
0.0294346
0.0337037
0.0303953
0.034792
0.0316079
0.0334322
-0.000143508
0.00103222
-0.00104096
0.00229642
-8.86595e-05
0.0033838
0.00228901
0.00479662
0.00542654
0.00701269
0.00860918
0.010261
0.0119956
0.0137914
0.0156249
0.0174735
0.0193166
0.0211308
0.0228863
0.0245507
0.0261762
0.0279634
0.0283093
0.0313721
0.0295944
0.0339753
0.0306529
0.0349569
0.0320702
0.0336326
-0.00054848
0.000593864
-0.00142611
0.00186899
-0.000500463
0.00303024
0.0019168
0.00448825
0.00513312
0.00675915
0.00839797
0.0100912
0.0118689
0.0137102
0.0155909
0.0174872
0.0193778
0.0212385
0.0230394
0.0247482
0.0264196
0.0282538
0.0286109
0.0317492
0.0299485
0.0343903
0.0310905
0.0353165
0.0325478
0.0340586
-0.00116947
-4.61131e-05
-0.00202868
0.00125022
-0.00108975
0.00248007
0.00139257
0.00401528
0.00471101
0.00638386
0.00808305
0.00983924
0.0116815
0.0135906
0.0155415
0.0175084
0.0194687
0.0213983
0.0232674
0.0250436
0.0267819
0.0286657
0.0290781
0.0322712
0.0304999
0.0349842
0.0317229
0.0359108
0.033222
0.0347083
-0.00201105
-0.000909273
-0.00284525
0.000416247
-0.00186731
0.00172765
0.000706524
0.00337118
0.00415194
0.00588165
0.00766047
0.00950103
0.0114309
0.0134314
0.0154759
0.0175363
0.0195896
0.0216124
0.0235734
0.0254402
0.0272665
0.0292065
0.0297155
0.0329508
0.0312592
0.035764
0.0325751
0.0367326
0.0341212
0.0355789
-0.00308163
-0.00200785
-0.00388589
-0.000643514
-0.00284209
0.000763083
-0.000153167
0.00255107
0.00344692
0.0052461
0.0071253
0.00907332
0.0111147
0.0132305
0.015392
0.0175702
0.0197419
0.0218829
0.0239602
0.0259412
0.0278779
0.0298854
0.0305293
0.0337995
0.032235
0.0367396
0.0336632
0.0377834
0.0352588
0.03668
-0.00439757
-0.00335628
-0.00516182
-0.00194785
-0.00402994
-0.00042308
-0.00120027
0.00154532
0.00258473
0.00447101
0.00647252
0.00855182
0.0107288
0.012984
0.0152878
0.01761
0.0199265
0.0222114
0.02443
0.026551
0.028622
0.0307127
0.0315274
0.0348313
0.033438
0.0379279
0.0350034
0.0390753
0.0366509
0.0380276
-0.00597522
-0.00497168
-0.00669099
-0.0035111
-0.00544921
-0.00184375
-0.00245093
0.000342724
0.00155414
0.00354901
0.00569531
0.00793021
0.0102681
0.012689
0.0151617
0.0176553
0.020144
0.0225996
0.0249864
0.0272748
0.0295055
0.0317001
0.0327188
0.0360624
0.0348805
0.039349
0.0366119
0.040627
0.0383168
0.0396419
-0.00783317
-0.00687151
-0.00849499
-0.00535025
-0.00712086
-0.00351485
-0.00392247
-0.00106872
0.000342523
0.00247032
0.00478501
0.00720145
0.00972759
0.0123419
0.0150116
0.0177049
0.0203946
0.0230498
0.0256336
0.028118
0.0305358
0.0328598
0.034115
0.0375111
0.0365773
0.0410259
0.0385078
0.0424622
0.0402801
0.0415478
-0.00999569
-0.00907897
-0.0105989
-0.00748745
-0.00906863
-0.00545416
-0.00563424
-0.00270396
-0.00106517
0.00122356
0.00373234
0.00635812
0.00910129
0.0119382
0.0148344
0.0177574
0.0206782
0.0235637
0.0263759
0.0290871
0.0317207
0.034205
0.0357297
0.0391977
0.0385463
0.0429851
0.0407139
0.0446102
0.0425691
0.0437749
-0.0124927
-0.0116236
-0.0130325
-0.0099483
-0.0113194
-0.00768313
-0.00760885
-0.00458114
-0.00268567
-0.00020404
0.00252717
0.00539202
0.00838249
0.0114726
0.0146266
0.017811
0.0209949
0.0241432
0.0272171
0.0301882
0.0330689
0.0357495
0.0375783
0.041144
0.0408098
0.0452566
0.0432581
0.0471055
0.0452166
0.0463582
-0.0153595
-0.0145401
-0.0158304
-0.0127633
-0.0139042
-0.0102276
-0.00987146
-0.00672034
-0.0045368
-0.00182685
0.00115797
0.00429396
0.00756398
0.0109396
0.0143843
0.0178636
0.0213442
0.0247895
0.0281605
0.0314271
0.0345893
0.0375081
0.0396786
0.0433741
0.0433932
0.0478738
0.0461741
0.0499881
0.0482617
0.049338
-0.0186378
-0.0178696
-0.0190337
-0.0159695
-0.0168585
-0.0131176
-0.0124492
-0.00914304
-0.00663715
-0.00366022
-0.000387694
0.00305391
0.006638
0.0103333
0.0141032
0.0179122
0.0217248
0.0255031
0.0292083
0.0328083
0.0362904
0.0394953
0.0420497
0.0459139
0.0463261
0.050874
0.0495015
0.0533044
0.0517511
0.0527622
-0.0223774
-0.0216618
-0.0226906
-0.0196108
-0.0202225
-0.016387
-0.0153716
-0.0118727
-0.00900654
-0.00572016
-0.00212252
0.00166159
0.00559647
0.00964761
0.0137782
0.0179528
0.0221341
0.0262834
0.030362
0.0343363
0.0381805
0.0417248
0.0447109
0.0487908
0.0496417
0.0542992
0.053288
0.0571091
0.0557414
0.0566882
-0.0266373
-0.0259757
-0.0268577
-0.0237383
-0.0240416
-0.0200742
-0.0186713
-0.0149349
-0.0116664
-0.00802336
-0.0040588
0.000107341
0.00443154
0.00887623
0.0134045
0.017981
0.0225681
0.0271276
0.0316212
0.0360134
0.0402667
0.044209
0.0476809
0.0520327
0.0533767
0.0581971
0.0575901
0.0614676
0.0603022
0.0611858
-0.0314884
-0.0308822
-0.0316019
-0.0284121
-0.0283678
-0.0242219
-0.0223823
-0.0183559
-0.0146386
-0.0105862
-0.00620768
-0.00161684
0.00313658
0.0080131
0.0129764
0.0179916
0.0230218
0.0280311
0.0329826
0.0378393
0.0425533
0.0469574
0.050976
0.055667
0.0575707
0.062621
0.0624748
0.0664584
0.0655186
0.0663407
-0.0370174
-0.0364681
-0.0370044
-0.0337039
-0.0332614
-0.0288778
-0.02654
-0.022161
-0.017943
-0.0134228
-0.00857841
-0.00351702
0.00170676
0.0070532
0.012488
0.0179779
0.0234882
0.0289867
0.0344394
0.0398085
0.0450389
0.0499745
0.0546079
0.0597189
0.0622656
0.0676308
0.0680206
0.0721768
0.071496
0.0722594
-0.043332
-0.0428417
-0.0431644
-0.0396994
-0.0387915
-0.0340947
-0.031181
-0.0263745
-0.0215957
-0.0165429
-0.0111767
-0.00559646
0.000139716
0.0059934
0.0119344
0.0179328
0.0239578
0.0299831
0.035979
0.0419089
0.0477148
0.0532573
0.0585811
0.0642083
0.0675027
0.073292
0.0743196
0.0787398
0.0783673
0.0790773
-0.0505699
-0.0501396
-0.0502045
-0.0465003
-0.0450361
-0.0399281
-0.0363419
-0.0310177
-0.0256069
-0.0199495
-0.0140017
-0.00785316
-0.00156301
0.00483339
0.011312
0.0178484
0.0244185
0.0310038
0.0375813
0.0441188
0.050561
0.0567909
0.0628882
0.0691449
0.0733181
0.0796733
0.0814786
0.0862927
0.0863038
0.0869714
-0.0589104
-0.0585394
-0.0582789
-0.0542288
-0.0520828
-0.0464345
-0.042055
-0.0361044
-0.0299768
-0.0236354
-0.0170428
-0.0102769
-0.00339378
0.00357691
0.0106193
0.0177169
0.0248547
0.0320255
0.0392167
0.0464045
0.0535427
0.0605433
0.0675036
0.0745199
0.0797348
0.0868411
0.0896203
0.0950188
0.0955319
0.0961809
-0.0685976
-0.0682779
-0.0675859
-0.0630337
-0.0600303
-0.0536689
-0.0483427
-0.0416346
-0.0346907
-0.0275796
-0.0202768
-0.0128462
-0.00533598
0.00223362
0.00985764
0.01753
0.025248
0.033019
0.0408457
0.0487178
0.0566056
0.0644564
0.0723723
0.0802949
0.0867505
0.0948511
0.0988808
0.105149
0.106357
0.107042
-0.0799791
-0.0796826
-0.0783836
-0.0730926
-0.0689846
-0.0616782
-0.0552108
-0.0475855
-0.0397104
-0.0317408
-0.0236636
-0.0155254
-0.00736159
0.000821267
0.00903252
0.0172801
0.0255767
0.0339486
0.0424177
0.0509934
0.0596694
0.0684355
0.0773974
0.086386
0.0943183
0.103726
0.109396
0.116972
0.119199
0.120053
-0.0935802
-0.0932225
-0.0910128
-0.084614
-0.0790499
-0.0704872
-0.0626346
-0.0538987
-0.044967
-0.0360503
-0.0271404
-0.0182615
-0.00942951
-0.000633382
0.00815477
0.0169614
0.0258183
0.0347735
0.0438716
0.0531457
0.0626223
0.0723417
0.0824242
0.0926417
0.102312
0.113412
0.121266
0.130831
0.134652
0.13601
-0.110251
-0.109593
-0.105925
-0.0978311
-0.0903084
-0.0800748
-0.070538
-0.0604671
-0.050348
-0.0404038
-0.0306171
-0.0209808
-0.0114845
-0.00209399
0.00724194
0.0165728
0.0259519
0.0354498
0.0451347
0.055069
0.0653206
0.0759889
0.0872229
0.0988087
0.110469
0.123708
0.134487
0.147098
0.153567
0.156311
-0.131521
-0.129858
-0.123708
-0.11298
-0.10278
-0.0903337
-0.0787619
-0.0671151
-0.0556858
-0.0446542
-0.0339718
-0.0235881
-0.0134569
-0.00351399
0.00631996
0.0161207
0.0259594
0.035931
0.0461275
0.0566441
0.0675951
0.079141
0.0914757
0.104494
0.118318
0.134128
0.148786
0.166032
0.177198
0.18368
-0.16076
-0.155682
-0.145121
-0.130229
-0.116341
-0.101005
-0.0870212
-0.0735717
-0.0607425
-0.0486056
-0.0370501
-0.0259666
-0.0152616
-0.00483401
0.00542507
0.0156133
0.0258284
0.0361772
0.046778
0.0577564
0.069268
0.0815265
0.0947888
0.109147
0.125078
0.143691
0.163181
0.187172
0.206532
0.222965
-0.205941
-0.188997
-0.170987
-0.149341
-0.130514
-0.111497
-0.0947765
-0.0793927
-0.0651607
-0.0519828
-0.0396443
-0.0279602
-0.0167812
-0.00596668
0.00462032
0.0150983
0.0255802
0.0361879
0.0470601
0.0583415
0.070216
0.082934
0.0968202
0.11218
0.129736
0.150882
0.175311
0.20829
0.239308
0.281798
-0.276529
-0.227133
-0.199515
-0.167171
-0.142993
-0.119943
-0.100574
-0.0835422
-0.0681888
-0.05424
-0.0413558
-0.029271
-0.0177877
-0.00673562
0.00404183
0.0146803
0.0253033
0.0360425
0.0470404
0.0584535
0.0704759
0.0833726
0.0975104
0.113363
0.131916
0.154794
0.184133
0.229117
0.275439
0.393362
-0.470733
-0.261628
-0.208064
-0.17264
-0.144252
-0.120957
-0.101087
-0.0838001
-0.0683837
-0.0543941
-0.041487
-0.0293917
-0.0179011
-0.00684819
0.00391791
0.0145381
0.0251378
0.0358424
0.0467918
0.0581424
0.0700817
0.0828654
0.0968633
0.112721
0.13152
0.156002
0.191622
0.254556
0.362889
0.645088
)
;

boundaryField
{
    movingWall
    {
        type            zeroGradient;
    }
    fixedWalls
    {
        type            zeroGradient;
    }
    frontAndBack
    {
        type            empty;
    }
}


// ************************************************************************* //
