/*--------------------------------*- C++ -*----------------------------------*\
  =========                 |
  \\      /  F ield         | OpenFOAM: The Open Source CFD Toolbox
   \\    /   O peration     | Website:  https://openfoam.org
    \\  /    A nd           | Version:  7
     \\/     M anipulation  |
\*---------------------------------------------------------------------------*/
FoamFile
{
    version     2.0;
    format      ascii;
    class       volVectorField;
    location    "0.2";
    object      U;
}
// * * * * * * * * * * * * * * * * * * * * * * * * * * * * * * * * * * * * * //

dimensions      [0 1 -1 0 0 0 0];

internalField   nonuniform List<vector> 
900
(
(0.00389243 0.000583724 0)
(-0.00522308 -0.000627377 0)
(0.00388021 0.000785536 0)
(-0.0062607 -0.000299278 0)
(0.00176761 0.00049724 0)
(-0.00571561 -1.765e-05 0)
(-0.00118438 0.000293016 0)
(-0.00472794 0.000120671 0)
(-0.00364842 0.000174068 0)
(-0.0043645 0.000148439 0)
(-0.00468006 0.000118611 0)
(-0.00491161 9.67054e-05 0)
(-0.00509612 7.38811e-05 0)
(-0.00521489 4.14907e-05 0)
(-0.00528578 1.25389e-05 0)
(-0.00529198 -1.04239e-05 0)
(-0.00522493 -3.81287e-05 0)
(-0.00510696 -6.86438e-05 0)
(-0.00493719 -9.37243e-05 0)
(-0.00472774 -0.000115016 0)
(-0.00446298 -0.000143518 0)
(-0.0034632 -0.000179647 0)
(-0.00515218 -9.23757e-05 0)
(-0.000675513 -0.000321778 0)
(-0.00646213 7.08564e-05 0)
(0.00260191 -0.000601488 0)
(-0.0071148 0.0003605 0)
(0.00488828 -0.00096519 0)
(-0.00589298 0.00075147 0)
(0.00467693 -0.000597963 0)
(0.0106787 0.00134255 0)
(-0.0111733 -0.000455498 0)
(0.00770466 0.0019838 0)
(-0.0106076 8.68108e-05 0)
(0.00304482 0.00140964 0)
(-0.00886465 0.000474061 0)
(-0.00185069 0.000945003 0)
(-0.00714491 0.000611123 0)
(-0.00563771 0.000639607 0)
(-0.00667381 0.000551807 0)
(-0.00714638 0.000456379 0)
(-0.00749095 0.000358902 0)
(-0.0077745 0.000263834 0)
(-0.00795667 0.000160928 0)
(-0.00805781 5.4107e-05 0)
(-0.00806635 -4.67235e-05 0)
(-0.00796806 -0.000147262 0)
(-0.00778671 -0.000250435 0)
(-0.00752446 -0.000349842 0)
(-0.00720378 -0.000444564 0)
(-0.00679157 -0.000545322 0)
(-0.00536863 -0.000652198 0)
(-0.00774935 -0.000568461 0)
(-0.00106507 -0.00100044 0)
(-0.00999962 -0.000390353 0)
(0.00437981 -0.00158665 0)
(-0.0122528 4.753e-05 0)
(0.00950482 -0.00225668 0)
(-0.0131967 0.000712201 0)
(0.0127529 -0.00134737 0)
(0.0125276 0.00156909 0)
(-0.0127807 0.0009437 0)
(0.00860969 0.00261066 0)
(-0.0116853 0.0013016 0)
(0.00328826 0.00213571 0)
(-0.00962312 0.00144066 0)
(-0.00204907 0.00163631 0)
(-0.00773587 0.00134964 0)
(-0.00611363 0.0012355 0)
(-0.00722137 0.00106424 0)
(-0.00773409 0.000891818 0)
(-0.00810781 0.000707269 0)
(-0.00840102 0.000510773 0)
(-0.00859891 0.000310691 0)
(-0.00871684 0.000108539 0)
(-0.00872076 -9.10581e-05 0)
(-0.008608 -0.000289215 0)
(-0.00841738 -0.00048967 0)
(-0.00814204 -0.000688767 0)
(-0.00779687 -0.00087868 0)
(-0.00735128 -0.00106085 0)
(-0.00582239 -0.00123478 0)
(-0.00837491 -0.00132259 0)
(-0.0012083 -0.00168182 0)
(-0.0108512 -0.00139347 0)
(0.00473248 -0.00226987 0)
(-0.0135395 -0.00120346 0)
(0.0105998 -0.00282164 0)
(-0.0151722 -0.000809534 0)
(0.0149394 -0.00161861 0)
(0.0125804 0.00189636 0)
(-0.0130849 0.0022082 0)
(0.00871612 0.00321439 0)
(-0.01203 0.00241799 0)
(0.00330993 0.00281879 0)
(-0.00993847 0.00237014 0)
(-0.00217437 0.00232229 0)
(-0.00800506 0.0020782 0)
(-0.00636732 0.0018415 0)
(-0.00749839 0.00159985 0)
(-0.00801505 0.00133891 0)
(-0.00840825 0.00106123 0)
(-0.00872422 0.000765311 0)
(-0.00892389 0.000464136 0)
(-0.00903429 0.000166834 0)
(-0.00903945 -0.000131838 0)
(-0.00893267 -0.000437576 0)
(-0.00873933 -0.000742757 0)
(-0.00844933 -0.00103726 0)
(-0.00808694 -0.0013179 0)
(-0.00762544 -0.00158662 0)
(-0.00606653 -0.00183019 0)
(-0.00867078 -0.00207111 0)
(-0.0013209 -0.00234906 0)
(-0.011199 -0.00234265 0)
(0.00480098 -0.00291308 0)
(-0.0139149 -0.00235557 0)
(0.0107828 -0.0033594 0)
(-0.0154511 -0.00214349 0)
(0.0150204 -0.00193903 0)
(0.012418 0.00240561 0)
(-0.01313 0.00336729 0)
(0.00866661 0.00395252 0)
(-0.0122602 0.00354196 0)
(0.00323749 0.00358227 0)
(-0.0101971 0.00331214 0)
(-0.00237948 0.00304244 0)
(-0.00827953 0.00282478 0)
(-0.00665477 0.00246947 0)
(-0.00779168 0.00215372 0)
(-0.00834443 0.0017975 0)
(-0.0087564 0.00141614 0)
(-0.00907524 0.00102567 0)
(-0.00927623 0.000630877 0)
(-0.00939317 0.000229107 0)
(-0.00940556 -0.000180574 0)
(-0.0092979 -0.000592785 0)
(-0.00909418 -0.000996553 0)
(-0.00879177 -0.00138752 0)
(-0.00841728 -0.00176973 0)
(-0.00793012 -0.00213533 0)
(-0.00636942 -0.00245243 0)
(-0.00895505 -0.00283488 0)
(-0.0015121 -0.00305719 0)
(-0.0114881 -0.00331655 0)
(0.00474611 -0.00364559 0)
(-0.0141444 -0.00352727 0)
(0.0107724 -0.0040652 0)
(-0.0154461 -0.00336217 0)
(0.0148268 -0.00243246 0)
(0.0123207 0.00301634 0)
(-0.0131706 0.00449021 0)
(0.00860334 0.00481035 0)
(-0.0124652 0.00466607 0)
(0.00307097 0.00441186 0)
(-0.0104893 0.0042774 0)
(-0.00266597 0.00380918 0)
(-0.00858591 0.00360471 0)
(-0.007045 0.00313047 0)
(-0.00817804 0.00271967 0)
(-0.00876069 0.00226923 0)
(-0.0091885 0.00179487 0)
(-0.0095181 0.00130437 0)
(-0.00972928 0.000801668 0)
(-0.00985478 0.000288847 0)
(-0.00987037 -0.000230177 0)
(-0.0097575 -0.000748382 0)
(-0.0095427 -0.00125641 0)
(-0.00923083 -0.00175245 0)
(-0.00884261 -0.00224015 0)
(-0.00831534 -0.00270313 0)
(-0.00677371 -0.00310184 0)
(-0.00928076 -0.0036209 0)
(-0.00180703 -0.00381354 0)
(-0.0117916 -0.0043174 0)
(0.00459476 -0.00445741 0)
(-0.0143715 -0.00470229 0)
(0.0107054 -0.00489806 0)
(-0.0154633 -0.0045185 0)
(0.0147137 -0.00302377 0)
(0.0122979 0.00369698 0)
(-0.0132494 0.00561667 0)
(0.00849947 0.00577184 0)
(-0.012712 0.00580074 0)
(0.00284119 0.00531028 0)
(-0.0108036 0.00528145 0)
(-0.00305178 0.00463391 0)
(-0.00896009 0.00440682 0)
(-0.0075398 0.00381827 0)
(-0.00865369 0.0033157 0)
(-0.00926999 0.00277003 0)
(-0.00972202 0.00219197 0)
(-0.0100692 0.00159202 0)
(-0.0102925 0.000977027 0)
(-0.0104258 0.000351709 0)
(-0.0104436 -0.000279071 0)
(-0.0103249 -0.000908168 0)
(-0.010099 -0.00152852 0)
(-0.00977627 -0.00213698 0)
(-0.00936862 -0.0027317 0)
(-0.00879222 -0.00329408 0)
(-0.00728866 -0.00378628 0)
(-0.00966565 -0.00443568 0)
(-0.00220992 -0.0046248 0)
(-0.0121298 -0.00534798 0)
(0.00435943 -0.00535448 0)
(-0.0146274 -0.00589303 0)
(0.0106103 -0.00584949 0)
(-0.0155436 -0.00566998 0)
(0.0146842 -0.00368263 0)
(0.0123195 0.0044272 0)
(-0.0133639 0.00676747 0)
(0.0083932 0.00682704 0)
(-0.0129819 0.00698714 0)
(0.00254542 0.00630114 0)
(-0.0111683 0.00632578 0)
(-0.00353944 0.00551245 0)
(-0.00940316 0.00524954 0)
(-0.00813542 0.00455293 0)
(-0.00922643 0.00394981 0)
(-0.00988453 0.00329828 0)
(-0.0103666 0.00260761 0)
(-0.0107331 0.00189372 0)
(-0.0109696 0.00116275 0)
(-0.011111 0.000419529 0)
(-0.0111303 -0.000328341 0)
(-0.011007 -0.00107365 0)
(-0.0107716 -0.00181332 0)
(-0.0104341 -0.00254126 0)
(-0.00999971 -0.00324792 0)
(-0.0093697 -0.00391632 0)
(-0.00791639 -0.00451446 0)
(-0.0101173 -0.00529041 0)
(-0.00272084 -0.00550113 0)
(-0.0125192 -0.00641902 0)
(0.00404342 -0.00634068 0)
(-0.0149266 -0.00712048 0)
(0.0104898 -0.00691597 0)
(-0.0156843 -0.00686037 0)
(0.0147076 -0.00440593 0)
(0.0123727 0.00520601 0)
(-0.0135126 0.00799616 0)
(0.00826771 0.00799949 0)
(-0.0132964 0.00824334 0)
(0.00217417 0.00738104 0)
(-0.0115948 0.00742852 0)
(-0.00412635 0.00646308 0)
(-0.00992144 0.00614608 0)
(-0.0088387 0.00533873 0)
(-0.00990844 0.00462216 0)
(-0.0106123 0.00385587 0)
(-0.0111266 0.00304736 0)
(-0.011514 0.00221477 0)
(-0.0117667 0.00136194 0)
(-0.011917 0.000493386 0)
(-0.0119368 -0.000378988 0)
(-0.0118099 -0.00124772 0)
(-0.0115667 -0.00211253 0)
(-0.0112109 -0.00296492 0)
(-0.0107436 -0.00378975 0)
(-0.0100585 -0.00457376 0)
(-0.00866397 -0.00529019 0)
(-0.01065 -0.00619308 0)
(-0.00334055 -0.00645217 0)
(-0.0129675 -0.0075481 0)
(0.00364813 -0.00742427 0)
(-0.0152792 -0.00840919 0)
(0.0103406 -0.00809741 0)
(-0.0158779 -0.0081191 0)
(0.0147646 -0.00520051 0)
(0.0124425 0.00604458 0)
(-0.0137068 0.0093145 0)
(0.0081036 0.00928587 0)
(-0.0136704 0.00958681 0)
(0.00172422 0.00856141 0)
(-0.0120892 0.00860937 0)
(-0.00481975 0.00749591 0)
(-0.0105296 0.00710183 0)
(-0.00965841 0.00617866 0)
(-0.0107094 0.00533744 0)
(-0.0114594 0.00444834 0)
(-0.0120077 0.00351484 0)
(-0.0124184 0.00255587 0)
(-0.012691 0.00157412 0)
(-0.0128519 0.000574063 0)
(-0.0128714 -0.000429707 0)
(-0.0127405 -0.00142984 0)
(-0.0124888 -0.00242682 0)
(-0.0121114 -0.00341087 0)
(-0.0116085 -0.00436477 0)
(-0.0108699 -0.00527512 0)
(-0.00953711 -0.00612023 0)
(-0.0112766 -0.00714938 0)
(-0.00407847 -0.00748116 0)
(-0.0134895 -0.00874962 0)
(0.00316975 -0.00861451 0)
(-0.0156904 -0.00978362 0)
(0.0101613 -0.00940072 0)
(-0.0161161 -0.00947128 0)
(0.014845 -0.00607644 0)
(0.0125223 0.00695847 0)
(-0.0139467 0.0107402 0)
(0.00789866 0.0106977 0)
(-0.0141075 0.0110404 0)
(0.00118877 0.00985613 0)
(-0.0126638 0.00988091 0)
(-0.00563129 0.00861578 0)
(-0.0112411 0.00812359 0)
(-0.0106021 0.00707945 0)
(-0.0116388 0.00610329 0)
(-0.0124349 0.00508212 0)
(-0.0130191 0.00401404 0)
(-0.0134547 0.00291835 0)
(-0.0137485 0.00179869 0)
(-0.0139208 0.000660366 0)
(-0.0139407 -0.000481709 0)
(-0.013807 -0.00162205 0)
(-0.0135478 -0.00275805 0)
(-0.0131489 -0.00387816 0)
(-0.0126078 -0.00497197 0)
(-0.0118137 -0.00602299 0)
(-0.0105398 -0.00701242 0)
(-0.0120078 -0.00817241 0)
(-0.00494411 -0.0085988 0)
(-0.0140989 -0.0100384 0)
(0.00259953 -0.00991937 0)
(-0.0161683 -0.0112664 0)
(0.00994773 -0.0108385 0)
(-0.0163944 -0.0109425 0)
(0.014944 -0.00704385 0)
(0.0126112 0.00796526 0)
(-0.0142293 0.0123019 0)
(0.00764856 0.0122563 0)
(-0.0146166 0.0126252 0)
(0.000554921 0.0112762 0)
(-0.0133337 0.0112549 0)
(-0.00657392 0.00982999 0)
(-0.0120687 0.00921841 0)
(-0.0116776 0.00804512 0)
(-0.0127067 0.00692208 0)
(-0.0135487 0.00575791 0)
(-0.0141714 0.00454571 0)
(-0.0146338 0.00330368 0)
(-0.014949 0.00203725 0)
(-0.0151323 0.000754175 0)
(-0.0151538 -0.000531995 0)
(-0.0150168 -0.00182134 0)
(-0.014745 -0.00310753 0)
(-0.0143253 -0.00437207 0)
(-0.0137532 -0.00561319 0)
(-0.0129102 -0.00681611 0)
(-0.0116882 -0.00796766 0)
(-0.0128595 -0.00926918 0)
(-0.00594853 -0.00981507 0)
(-0.0148078 -0.0114319 0)
(0.00192528 -0.0113533 0)
(-0.016724 -0.0128839 0)
(0.00969123 -0.0124298 0)
(-0.0167141 -0.0125595 0)
(0.0150583 -0.00811327 0)
(0.0127083 0.00908395 0)
(-0.014558 0.0140271 0)
(0.0073429 0.0139815 0)
(-0.0152117 0.0143622 0)
(-0.000193383 0.0128359 0)
(-0.0141151 0.0127469 0)
(-0.007664 0.0111502 0)
(-0.0130291 0.0103958 0)
(-0.0128973 0.00908097 0)
(-0.013926 0.00779629 0)
(-0.0148114 0.00647547 0)
(-0.0154733 0.00510931 0)
(-0.0159631 0.00371286 0)
(-0.016298 0.00229118 0)
(-0.0164901 0.000855549 0)
(-0.0165161 -0.000580597 0)
(-0.0163825 -0.0020236 0)
(-0.0160985 -0.00346927 0)
(-0.0156546 -0.00489451 0)
(-0.0150517 -0.00629659 0)
(-0.0141681 -0.00766095 0)
(-0.0129946 -0.00898778 0)
(-0.0138512 -0.010443 0)
(-0.00711177 -0.0111371 0)
(-0.0156344 -0.0129472 0)
(0.00112906 -0.0129346 0)
(-0.0173719 -0.0146652 0)
(0.00937946 -0.0141993 0)
(-0.017082 -0.0143524 0)
(0.0151849 -0.00929924 0)
(0.0128123 0.0103355 0)
(-0.0149392 0.0159451 0)
(0.00696965 0.0158971 0)
(-0.0159074 0.0162759 0)
(-0.00107428 0.014553 0)
(-0.0150255 0.0143728 0)
(-0.00892056 0.0125871 0)
(-0.0141415 0.0116636 0)
(-0.014276 0.010192 0)
(-0.0153121 0.00872936 0)
(-0.0162358 0.00723541 0)
(-0.0169341 0.00570303 0)
(-0.0174518 0.00414436 0)
(-0.0178063 0.00256073 0)
(-0.0180041 0.000964446 0)
(-0.0180329 -0.000630997 0)
(-0.0179055 -0.00223347 0)
(-0.0176159 -0.00384107 0)
(-0.0171527 -0.00543609 0)
(-0.0165196 -0.00701504 0)
(-0.0156013 -0.00855793 0)
(-0.0144721 -0.0100764 0)
(-0.0150041 -0.0117009 0)
(-0.00845862 -0.0125739 0)
(-0.0166019 -0.0146003 0)
(0.000186279 -0.0146822 0)
(-0.0181311 -0.0166398 0)
(0.00899615 -0.0161765 0)
(-0.0175088 -0.0163558 0)
(0.0153214 -0.010623 0)
(0.0129219 0.0117445 0)
(-0.0153808 0.0180933 0)
(0.0065144 0.0180359 0)
(-0.0167229 0.0183968 0)
(-0.00211224 0.0164484 0)
(-0.0160884 0.0161473 0)
(-0.0103678 0.0141468 0)
(-0.0154281 0.0130232 0)
(-0.0158306 0.0113756 0)
(-0.0168824 0.0097187 0)
(-0.0178377 0.00803519 0)
(-0.0185643 0.0063227 0)
(-0.0191054 0.004593 0)
(-0.0194779 0.00284339 0)
(-0.0196818 0.00108387 0)
(-0.0197141 -0.000676974 0)
(-0.0195926 -0.0024474 0)
(-0.0193012 -0.00422292 0)
(-0.0188286 -0.00599356 0)
(-0.0181735 -0.00776063 0)
(-0.0172295 -0.00950082 0)
(-0.0161395 -0.0112312 0)
(-0.0163434 -0.0130459 0)
(-0.0100182 -0.0141337 0)
(-0.0177382 -0.0164066 0)
(-0.000934718 -0.0166165 0)
(-0.0190272 -0.0188394 0)
(0.0085205 -0.0183961 0)
(-0.018008 -0.0186108 0)
(0.0154659 -0.0121131 0)
(0.0130354 0.0133411 0)
(-0.0158952 0.020519 0)
(0.00595622 0.0204391 0)
(-0.0176852 0.0207614 0)
(-0.0033414 0.0185463 0)
(-0.0173361 0.018087 0)
(-0.0120382 0.0158368 0)
(-0.016917 0.0144743 0)
(-0.0175796 0.0126254 0)
(-0.0186523 0.0107562 0)
(-0.0196318 0.0088693 0)
(-0.0203762 0.00696474 0)
(-0.0209312 0.00505467 0)
(-0.0213154 0.00313418 0)
(-0.0215245 0.00121088 0)
(-0.0215642 -0.000715585 0)
(-0.0214515 -0.00265711 0)
(-0.0211621 -0.00460704 0)
(-0.0206904 -0.00656085 0)
(-0.0200268 -0.00852564 0)
(-0.0190721 -0.0104803 0)
(-0.018019 -0.0124445 0)
(-0.0179008 -0.0144753 0)
(-0.0118278 -0.0158218 0)
(-0.019079 -0.0183811 0)
(-0.00227474 -0.0187612 0)
(-0.0200935 -0.021301 0)
(0.00792568 -0.0209013 0)
(-0.018597 -0.021169 0)
(0.015617 -0.0138068 0)
(0.0131506 0.0151645 0)
(-0.0165016 0.0232801 0)
(0.00526438 0.0231542 0)
(-0.0188315 0.0234087 0)
(-0.00480628 0.0208701 0)
(-0.0188089 0.0202057 0)
(-0.0139729 0.017664 0)
(-0.0186442 0.0160168 0)
(-0.0195479 0.0139339 0)
(-0.0206382 0.0118293 0)
(-0.0216292 0.00972567 0)
(-0.022379 0.00762078 0)
(-0.022936 0.00552405 0)
(-0.0233218 0.00342909 0)
(-0.0235316 0.00134217 0)
(-0.0235821 -0.00074664 0)
(-0.0234841 -0.00285571 0)
(-0.023205 -0.00498089 0)
(-0.0227472 -0.00712363 0)
(-0.0220929 -0.00929599 0)
(-0.0211487 -0.0114825 0)
(-0.0201361 -0.0137039 0)
(-0.0197143 -0.0159813 0)
(-0.0139341 -0.0176386 0)
(-0.0206703 -0.0205355 0)
(-0.00388754 -0.0211413 0)
(-0.021375 -0.0240682 0)
(0.00717487 -0.0237469 0)
(-0.0192997 -0.0240978 0)
(0.015773 -0.0157521 0)
(0.0132641 0.0172666 0)
(-0.0172279 0.0264494 0)
(0.00439474 0.0262393 0)
(-0.0202139 0.0263828 0)
(-0.00656572 0.023442 0)
(-0.0205558 0.0225109 0)
(-0.0162183 0.0196266 0)
(-0.020652 0.0176432 0)
(-0.0217666 0.0152884 0)
(-0.0228603 0.0129196 0)
(-0.0238403 0.0105831 0)
(-0.0245779 0.0082723 0)
(-0.0251229 0.00598842 0)
(-0.0254974 0.00372201 0)
(-0.0257002 0.00147563 0)
(-0.0257621 -0.000768624 0)
(-0.0256858 -0.00303609 0)
(-0.02543 -0.00532996 0)
(-0.0250055 -0.00766125 0)
(-0.0243856 -0.0100485 0)
(-0.0234804 -0.0124838 0)
(-0.0225193 -0.0149876 0)
(-0.0218284 -0.0175471 0)
(-0.016394 -0.0195762 0)
(-0.022572 -0.0228746 0)
(-0.00584616 -0.0237804 0)
(-0.0229353 -0.0271919 0)
(0.00621381 -0.0270028 0)
(-0.0201517 -0.0274854 0)
(0.0159314 -0.0180119 0)
(0.0133703 0.0197176 0)
(-0.0181142 0.0301238 0)
(0.00328472 0.0297701 0)
(-0.0219051 0.0297392 0)
(-0.00870046 0.0262892 0)
(-0.0226409 0.0250057 0)
(-0.0188302 0.0217111 0)
(-0.0229877 0.019329 0)
(-0.0242712 0.0166617 0)
(-0.0253432 0.0140001 0)
(-0.0262765 0.011414 0)
(-0.0269737 0.00889403 0)
(-0.0274864 0.00642848 0)
(-0.0278346 0.00400347 0)
(-0.0280222 0.00161147 0)
(-0.0280939 -0.000774641 0)
(-0.0280455 -0.0031866 0)
(-0.0278301 -0.00563736 0)
(-0.0274658 -0.00815 0)
(-0.0269154 -0.010753 0)
(-0.0260882 -0.0134492 0)
(-0.0252006 -0.0162596 0)
(-0.0242954 -0.0191424 0)
(-0.0192758 -0.0216147 0)
(-0.0248615 -0.0253939 0)
(-0.00825074 -0.0267011 0)
(-0.0248661 -0.0307317 0)
(0.00496146 -0.0307583 0)
(-0.0212074 -0.0314493 0)
(0.0160863 -0.0206718 0)
(0.0134583 0.0226148 0)
(-0.0192211 0.0344348 0)
(0.00184319 0.0338435 0)
(-0.0240064 0.0335403 0)
(-0.0113216 0.0294377 0)
(-0.0251543 0.0276851 0)
(-0.0218827 0.0238907 0)
(-0.0257068 0.0210318 0)
(-0.0270955 0.018008 0)
(-0.0281077 0.0150326 0)
(-0.0289464 0.0121866 0)
(-0.0295634 0.00945966 0)
(-0.0300136 0.00682326 0)
(-0.0303144 0.00425798 0)
(-0.0304783 0.00174347 0)
(-0.0305603 -0.000760232 0)
(-0.0305486 -0.00329385 0)
(-0.0303934 -0.00588204 0)
(-0.0301212 -0.0085601 0)
(-0.0296848 -0.0113693 0)
(-0.0289875 -0.0143283 0)
(-0.0282132 -0.0174639 0)
(-0.0271756 -0.0207155 0)
(-0.0226622 -0.0237135 0)
(-0.0276409 -0.0280724 0)
(-0.0112391 -0.0299184 0)
(-0.0272992 -0.0347537 0)
(0.00329663 -0.0351268 0)
(-0.0225496 -0.0361491 0)
(0.0162248 -0.0238546 0)
(0.0135069 0.0261008 0)
(-0.0206446 0.0395646 0)
(-6.98768e-05 0.0385817 0)
(-0.0266633 0.0378477 0)
(-0.0145776 0.032895 0)
(-0.0282133 0.0305215 0)
(-0.0254693 0.0261201 0)
(-0.0288755 0.0226948 0)
(-0.0302708 0.0192631 0)
(-0.0311643 0.0159589 0)
(-0.0318494 0.0128523 0)
(-0.0323371 0.00992903 0)
(-0.0326882 0.00714515 0)
(-0.0329144 0.0044687 0)
(-0.0330404 0.00186436 0)
(-0.0331314 -0.000721515 0)
(-0.0331674 -0.00334177 0)
(-0.0330963 -0.00603573 0)
(-0.0329531 -0.00885092 0)
(-0.0326836 -0.0118429 0)
(-0.0321833 -0.0150519 0)
(-0.031588 -0.0185204 0)
(-0.0305373 -0.0221869 0)
(-0.0266525 -0.0258023 0)
(-0.0310434 -0.030858 0)
(-0.0149998 -0.0334266 0)
(-0.0304257 -0.0393209 0)
(0.00103213 -0.0402509 0)
(-0.0243122 -0.0418084 0)
(0.0163202 -0.0277443 0)
(0.0134749 0.0303919 0)
(-0.0225402 0.0457688 0)
(-0.00267609 0.0441422 0)
(-0.0300938 0.0427194 0)
(-0.0186677 0.0366408 0)
(-0.0319609 0.0334442 0)
(-0.0296929 0.0283149 0)
(-0.0325685 0.0242312 0)
(-0.0338321 0.0203385 0)
(-0.0345183 0.016698 0)
(-0.0349762 0.0133484 0)
(-0.0352707 0.0102556 0)
(-0.035474 0.00736194 0)
(-0.0355951 0.00461684 0)
(-0.0356685 0.00196672 0)
(-0.0357667 -0.000654763 0)
(-0.0358629 -0.00331356 0)
(-0.0359025 -0.00606599 0)
(-0.0359285 -0.00897274 0)
(-0.0358858 -0.0121055 0)
(-0.0356653 -0.0155328 0)
(-0.0353478 -0.0193238 0)
(-0.0344505 -0.0234414 0)
(-0.0313565 -0.0277648 0)
(-0.035235 -0.0336434 0)
(-0.0197868 -0.0371735 0)
(-0.0345276 -0.0444773 0)
(-0.00213588 -0.046313 0)
(-0.0267303 -0.0487519 0)
(0.0163135 -0.0326311 0)
(0.0132779 0.0358287 0)
(-0.0251691 0.0534104 0)
(-0.00632504 0.0507228 0)
(-0.0346235 0.048199 0)
(-0.0238678 0.0406145 0)
(-0.0365787 0.0363212 0)
(-0.0346635 0.0303273 0)
(-0.0368558 0.0255038 0)
(-0.0378049 0.0211194 0)
(-0.038154 0.017152 0)
(-0.0382915 0.0135962 0)
(-0.0383235 0.0103835 0)
(-0.0383268 0.0074355 0)
(-0.0383093 0.00467798 0)
(-0.0383118 0.00203864 0)
(-0.0384117 -0.000559049 0)
(-0.0385784 -0.00319342 0)
(-0.0387551 -0.00593756 0)
(-0.0389926 -0.00886777 0)
(-0.0392435 -0.0120763 0)
(-0.0394016 -0.0156652 0)
(-0.0394954 -0.0197393 0)
(-0.0389718 -0.0243121 0)
(-0.0368806 -0.0294088 0)
(-0.0404124 -0.036228 0)
(-0.0259414 -0.0410219 0)
(-0.0400328 -0.050217 0)
(-0.00671508 -0.0535364 0)
(-0.0302331 -0.0574561 0)
(0.0160728 -0.039006 0)
(0.0127294 0.0429852 0)
(-0.0290048 0.0630161 0)
(-0.0115787 0.0585479 0)
(-0.040733 0.0542614 0)
(-0.0305503 0.0446664 0)
(-0.0422958 0.0389298 0)
(-0.0404875 0.0319356 0)
(-0.0417766 0.0263194 0)
(-0.0421824 0.0214522 0)
(-0.0420384 0.017203 0)
(-0.0417414 0.0135037 0)
(-0.0414284 0.0102459 0)
(-0.0411765 0.00732056 0)
(-0.0409887 0.00462443 0)
(-0.0409023 0.0020677 0)
(-0.0409956 -0.000432579 0)
(-0.0412379 -0.00296381 0)
(-0.0415732 -0.00561352 0)
(-0.0420638 -0.00847707 0)
(-0.0426798 -0.0116707 0)
(-0.0433247 -0.0153295 0)
(-0.0439895 -0.019597 0)
(-0.0441113 -0.0245629 0)
(-0.0432971 -0.0304347 0)
(-0.0467926 -0.0382712 0)
(-0.0339115 -0.0446903 0)
(-0.0475822 -0.0564012 0)
(-0.0135531 -0.0621273 0)
(-0.0356276 -0.0686023 0)
(0.0152947 -0.0477648 0)
(0.0114017 0.0529198 0)
(-0.0349682 0.0753504 0)
(-0.0193687 0.067817 0)
(-0.0491182 0.0607087 0)
(-0.0391675 0.0484714 0)
(-0.0493444 0.0408969 0)
(-0.0472225 0.032811 0)
(-0.047309 0.0264161 0)
(-0.0468893 0.0211388 0)
(-0.046068 0.0167104 0)
(-0.045213 0.0129756 0)
(-0.0444705 0.00977742 0)
(-0.0439115 0.00697045 0)
(-0.0435245 0.00442512 0)
(-0.0433308 0.0020393 0)
(-0.0434047 -0.000273921 0)
(-0.0437199 -0.00260781 0)
(-0.0442282 -0.00506312 0)
(-0.0450092 -0.00775309 0)
(-0.0460546 -0.0108112 0)
(-0.0472852 -0.0143944 0)
(-0.0486832 -0.0186877 0)
(-0.049761 -0.0238876 0)
(-0.0505707 -0.0304225 0)
(-0.0545511 -0.0392362 0)
(-0.0442006 -0.0476189 0)
(-0.0580456 -0.0625529 0)
(-0.024033 -0.0721153 0)
(-0.0444934 -0.0831261 0)
(0.0132656 -0.0606436 0)
(0.00829466 0.0677912 0)
(-0.0448944 0.0914259 0)
(-0.0311503 0.0785442 0)
(-0.0606309 0.0669583 0)
(-0.05006 0.0514017 0)
(-0.0577325 0.0416154 0)
(-0.0546269 0.0324816 0)
(-0.0531132 0.0254552 0)
(-0.0515415 0.0199461 0)
(-0.0498444 0.0155196 0)
(-0.0483097 0.0119133 0)
(-0.047063 0.00891336 0)
(-0.0461531 0.00634031 0)
(-0.0455391 0.00405149 0)
(-0.0452163 0.00194035 0)
(-0.0452535 -8.4324e-05 0)
(-0.0456332 -0.00212059 0)
(-0.0463196 -0.00427793 0)
(-0.0474077 -0.00667035 0)
(-0.0489102 -0.00942855 0)
(-0.0507817 -0.0127246 0)
(-0.0530511 -0.0167932 0)
(-0.0554009 -0.0219521 0)
(-0.0582083 -0.028833 0)
(-0.0634144 -0.0382968 0)
(-0.0569342 -0.0487609 0)
(-0.0722204 -0.0674611 0)
(-0.0401195 -0.0829583 0)
(-0.0597172 -0.101907 0)
(0.00844378 -0.0809339 0)
(0.0011946 0.0918269 0)
(-0.0620625 0.111907 0)
(-0.0481808 0.0899523 0)
(-0.0749954 0.0715192 0)
(-0.0618507 0.0523002 0)
(-0.0655436 0.0400983 0)
(-0.0604217 0.0302787 0)
(-0.056798 0.023014 0)
(-0.053705 0.0176097 0)
(-0.0509238 0.0134696 0)
(-0.0485988 0.0102175 0)
(-0.0467882 0.00759038 0)
(-0.045488 0.00539269 0)
(-0.0446125 0.00348342 0)
(-0.0441302 0.00175674 0)
(-0.044105 0.000117811 0)
(-0.0445275 -0.00153053 0)
(-0.0453643 -0.00328246 0)
(-0.0467143 -0.0052274 0)
(-0.0486241 -0.00748747 0)
(-0.0511158 -0.0102537 0)
(-0.0543106 -0.0137876 0)
(-0.0581122 -0.0184724 0)
(-0.0631147 -0.0250471 0)
(-0.070382 -0.0343581 0)
(-0.0693408 -0.046545 0)
(-0.0882638 -0.0687054 0)
(-0.0619525 -0.0926731 0)
(-0.0841098 -0.124756 0)
(-0.00133038 -0.115131 0)
(-0.0126022 0.13123 0)
(-0.0872412 0.134414 0)
(-0.0630454 0.0977248 0)
(-0.0807399 0.0708449 0)
(-0.0607727 0.0486147 0)
(-0.0580999 0.0346544 0)
(-0.0493639 0.0251558 0)
(-0.0429834 0.0184902 0)
(-0.0379717 0.0137834 0)
(-0.0338957 0.0103533 0)
(-0.0306787 0.00775915 0)
(-0.0282421 0.00573157 0)
(-0.026498 0.00408451 0)
(-0.0253106 0.0026865 0)
(-0.0246225 0.00144233 0)
(-0.0244836 0.000271583 0)
(-0.0248728 -0.000898087 0)
(-0.0257414 -0.00212655 0)
(-0.0272018 -0.00348394 0)
(-0.0293564 -0.00508683 0)
(-0.0322853 -0.00708809 0)
(-0.036184 -0.00969994 0)
(-0.0411639 -0.0133254 0)
(-0.0479756 -0.0186984 0)
(-0.0578307 -0.026676 0)
(-0.0628679 -0.0391491 0)
(-0.0877839 -0.0636869 0)
(-0.072991 -0.0980112 0)
(-0.107487 -0.153146 0)
(-0.012226 -0.179137 0)
(-0.0156084 0.220566 0)
(-0.0754281 0.151235 0)
(-0.00876137 0.0859358 0)
(-0.0027398 0.0583201 0)
(0.0301654 0.0340305 0)
(0.0419371 0.0230488 0)
(0.0556144 0.0159768 0)
(0.0650106 0.0113197 0)
(0.0719303 0.00823794 0)
(0.0772175 0.00608019 0)
(0.0812253 0.00451124 0)
(0.0842142 0.00333579 0)
(0.0863622 0.00240238 0)
(0.0878451 0.00161308 0)
(0.0887594 0.000927927 0)
(0.0890987 0.000305488 0)
(0.0888983 -0.000313591 0)
(0.0881983 -0.000956603 0)
(0.0868845 -0.0016489 0)
(0.0848636 -0.00247644 0)
(0.082053 -0.00352481 0)
(0.0781638 -0.0048896 0)
(0.0729366 -0.00685792 0)
(0.0657085 -0.0100756 0)
(0.0543676 -0.0153096 0)
(0.0447476 -0.0242627 0)
(0.0139712 -0.0501972 0)
(0.00961832 -0.0883148 0)
(-0.061055 -0.181028 0)
(0.0170128 -0.264342 0)
(0.238786 0.149863 0)
(0.25787 0.0932035 0)
(0.387506 0.0462899 0)
(0.434158 0.0291542 0)
(0.467013 0.0148152 0)
(0.485089 0.00904383 0)
(0.497392 0.00585704 0)
(0.505854 0.00393176 0)
(0.511845 0.00277099 0)
(0.516225 0.00200178 0)
(0.51948 0.00146546 0)
(0.521898 0.00108747 0)
(0.523651 0.000802414 0)
(0.524885 0.000559851 0)
(0.525701 0.000352105 0)
(0.526117 0.00018178 0)
(0.526146 2.01548e-05 0)
(0.525832 -0.000152737 0)
(0.525133 -0.000328314 0)
(0.52397 -0.000522635 0)
(0.522291 -0.000771427 0)
(0.519927 -0.00109156 0)
(0.516585 -0.00152791 0)
(0.511896 -0.00228126 0)
(0.504 -0.00401006 0)
(0.494298 -0.00495723 0)
(0.465109 -0.0164686 0)
(0.436343 -0.028565 0)
(0.296507 -0.0808339 0)
(0.262887 -0.146373 0)
)
;

boundaryField
{
    movingWall
    {
        type            fixedValue;
        value           uniform (1 0 0);
    }
    fixedWalls
    {
        type            noSlip;
    }
    frontAndBack
    {
        type            empty;
    }
}


// ************************************************************************* //
