/*--------------------------------*- C++ -*----------------------------------*\
  =========                 |
  \\      /  F ield         | OpenFOAM: The Open Source CFD Toolbox
   \\    /   O peration     | Website:  https://openfoam.org
    \\  /    A nd           | Version:  7
     \\/     M anipulation  |
\*---------------------------------------------------------------------------*/
FoamFile
{
    version     2.0;
    format      ascii;
    class       volScalarField;
    location    "9.6";
    object      p;
}
// * * * * * * * * * * * * * * * * * * * * * * * * * * * * * * * * * * * * * //

dimensions      [0 2 -2 0 0 0 0];

internalField   nonuniform List<scalar> 
900
(
6.38763e-07
-0.000154942
-0.000363237
-0.000554851
-0.000696357
-0.000766846
-0.000758324
-0.000668621
-0.00049701
-0.000242656
9.52867e-05
0.000516513
0.00101783
0.00159124
0.00222227
0.00288883
0.00356115
0.00420285
0.00477404
0.00523553
0.00555424
0.00570879
0.00569422
0.00552453
0.00523262
0.00486558
0.00448416
0.00415367
0.00393843
0.00389538
0.000154423
-5.58551e-06
-0.000153541
-0.000282337
-0.000370584
-0.000403051
-0.000373043
-0.000277514
-0.000114529
0.000117422
0.000419246
0.000790422
0.00122775
0.00172395
0.00226629
0.00283549
0.00340754
0.00395173
0.00443517
0.00482596
0.00509762
0.00523373
0.00523169
0.00510456
0.00488048
0.00459967
0.00430971
0.00405416
0.00388542
0.00384948
0.000373518
0.000136664
-1.53928e-05
-0.000128297
-0.000198036
-0.000215328
-0.000177068
-8.18829e-05
7.17841e-05
0.000285716
0.000561468
0.000899473
0.00129781
0.00175077
0.00224757
0.00277223
0.00330165
0.00380755
0.00425886
0.00462482
0.00487955
0.00500676
0.00500359
0.0048824
0.00466996
0.00440402
0.00412814
0.00388462
0.00370957
0.00364505
0.000580204
0.000253039
7.61913e-05
-3.91738e-05
-0.000104508
-0.000116809
-7.74674e-05
1.23384e-05
0.000153304
0.000347478
0.000597467
0.000905362
0.00127136
0.00169221
0.00215961
0.00265919
0.00316989
0.00366376
0.00410911
0.00447346
0.00472842
0.00485505
0.00484829
0.00471923
0.00449432
0.00421142
0.00391393
0.00364469
0.0034393
0.0033172
0.000724987
0.00030446
9.63392e-05
-2.97424e-05
-9.88562e-05
-0.000113606
-7.97375e-05
-9.78435e-07
0.000122523
0.000293237
0.000515167
0.000792571
0.00112839
0.00152246
0.00196936
0.00245675
0.00296558
0.00346727
0.00392819
0.00431209
0.00458561
0.00472456
0.00471941
0.00457861
0.00432824
0.0040078
0.00366365
0.00334298
0.00308246
0.00288499
0.000761523
0.000251507
9.80233e-06
-0.000132153
-0.000211465
-0.000235617
-0.000214236
-0.000153288
-5.35348e-05
8.81558e-05
0.000277506
0.000521405
0.000826175
0.00119547
0.00162746
0.00211224
0.00263431
0.00316329
0.00366296
0.00409167
0.00440851
0.00458084
0.00459146
0.00444366
0.00416207
0.00378861
0.00337556
0.00297892
0.0026402
0.00234823
0.000652123
5.98736e-05
-0.000215096
-0.000375918
-0.000470516
-0.000510692
-0.000509456
-0.000474638
-0.000407365
-0.000303636
-0.000155733
4.6298e-05
0.000312802
0.000652138
0.00106696
0.00155013
0.00209729
0.00267085
0.00323329
0.00373685
0.00413045
0.00436897
0.0044228
0.00428564
0.00397781
0.00354334
0.00304287
0.00254628
0.00210526
0.00169633
0.000364445
-0.000301324
-0.000607904
-0.000789553
-0.000904117
-0.000967383
-0.000995374
-0.000997529
-0.000975229
-0.000923542
-0.000832624
-0.000689095
-0.000477903
-0.000184744
0.000201406
0.00068498
0.00124789
0.00187488
0.00252293
0.00313647
0.00365163
0.00400572
0.00414975
0.00406048
0.00374804
0.00325599
0.00265514
0.00203501
0.00146363
0.000902633
-0.000130112
-0.000859843
-0.00119599
-0.00140045
-0.00154028
-0.00163512
-0.00170384
-0.00175751
-0.00179792
-0.00181945
-0.0018103
-0.00175355
-0.00162867
-0.00141381
-0.00108855
-0.000638651
-6.73273e-05
0.000614212
0.00136614
0.00212846
0.00282299
0.00336375
0.00367278
0.00369821
0.00342923
0.00290223
0.00219796
0.00143236
0.000697875
-6.15778e-05
-0.000856389
-0.00163965
-0.00200337
-0.00223328
-0.00240499
-0.00254201
-0.00266622
-0.00279062
-0.00291799
-0.00304276
-0.00315179
-0.00322487
-0.0032355
-0.00315247
-0.00294257
-0.0025763
-0.00203844
-0.00132359
-0.000462807
0.000484703
0.00142736
0.00225066
0.00283575
0.00308508
0.00294868
0.00244173
0.00165016
0.00072322
-0.0002112
-0.00123021
-0.00183462
-0.00265995
-0.00304942
-0.00330833
-0.00352005
-0.00371226
-0.00391023
-0.00412964
-0.00437534
-0.00464308
-0.0049197
-0.00518263
-0.00539942
-0.00552809
-0.00551911
-0.00532121
-0.00489261
-0.00419699
-0.00324811
-0.00209326
-0.000831511
0.000391959
0.00140509
0.00204246
0.0021869
0.00180668
0.000978707
-0.000110245
-0.00128222
-0.00263782
-0.0030791
-0.00393396
-0.00434752
-0.00463966
-0.0049008
-0.00516314
-0.00545605
-0.00579905
-0.00620069
-0.00665999
-0.00716583
-0.00769505
-0.00821012
-0.00865752
-0.00896816
-0.00906049
-0.00884921
-0.00827966
-0.00730642
-0.0059541
-0.00431785
-0.00256882
-0.000940581
0.000309406
0.000958902
0.000887044
0.00013106
-0.00108965
-0.00253048
-0.00431558
-0.00459671
-0.00546772
-0.00590357
-0.00623332
-0.00655351
-0.00690144
-0.00731156
-0.00780875
-0.00840733
-0.00911215
-0.00991695
-0.0108006
-0.0117224
-0.0126173
-0.0133944
-0.0139382
-0.0141173
-0.0138083
-0.012925
-0.0114373
-0.00941311
-0.00703397
-0.00459243
-0.00245655
-0.00099653
-0.000482751
-0.000973329
-0.00224138
-0.00396362
-0.00628517
-0.00638552
-0.00725905
-0.00771494
-0.00808569
-0.008473
-0.00892002
-0.00946745
-0.0101473
-0.010982
-0.0119853
-0.0131588
-0.0144867
-0.0159279
-0.0174072
-0.0188103
-0.0199834
-0.0207389
-0.0208759
-0.0202621
-0.018769
-0.016414
-0.0133617
-0.00994376
-0.00663975
-0.00400315
-0.00252584
-0.00244819
-0.00359565
-0.00557412
-0.00854832
-0.00843403
-0.00929727
-0.00976995
-0.0101825
-0.0106408
-0.0111949
-0.0118929
-0.012776
-0.013877
-0.0152212
-0.0168215
-0.0186709
-0.0207304
-0.0229173
-0.0250946
-0.0270684
-0.0285976
-0.0294179
-0.0292531
-0.0279377
-0.0253928
-0.0217249
-0.0172629
-0.0125693
-0.00838837
-0.00549786
-0.00443372
-0.00518063
-0.00732678
-0.0110701
-0.0107213
-0.0115638
-0.0120484
-0.0124988
-0.0130246
-0.0136836
-0.0145333
-0.0156253
-0.0170052
-0.018712
-0.0207724
-0.0231905
-0.0259326
-0.0289105
-0.0319675
-0.0348719
-0.0373262
-0.0389885
-0.0394985
-0.038588
-0.0360713
-0.0319625
-0.0265338
-0.0203701
-0.0143684
-0.00961818
-0.0070643
-0.00700617
-0.00913947
-0.0137539
-0.0132181
-0.0140341
-0.0145235
-0.0150007
-0.0155791
-0.0163259
-0.0173098
-0.0185949
-0.0202408
-0.0223014
-0.0248185
-0.0278087
-0.0312447
-0.0350352
-0.0390067
-0.042895
-0.0463528
-0.0489702
-0.0503056
-0.0500071
-0.0477681
-0.0434866
-0.0373252
-0.0298086
-0.0218984
-0.0149545
-0.0103997
-0.0090302
-0.0108552
-0.0164076
-0.0158904
-0.0166815
-0.0171654
-0.0176479
-0.0182482
-0.0190456
-0.0201228
-0.0215582
-0.0234261
-0.0257956
-0.0287231
-0.0322372
-0.0363169
-0.0408687
-0.0457055
-0.0505361
-0.0549732
-0.058559
-0.0608032
-0.0612314
-0.0594809
-0.0553211
-0.0487683
-0.0402069
-0.030542
-0.0212879
-0.0143253
-0.0110997
-0.0122031
-0.0186996
-0.0187036
-0.0194828
-0.019946
-0.0203984
-0.0209693
-0.0217556
-0.0228578
-0.0243709
-0.0263844
-0.0289818
-0.0322322
-0.0361736
-0.04079
-0.045985
-0.0515603
-0.0572041
-0.0624995
-0.066955
-0.0700471
-0.0712347
-0.0700941
-0.0662922
-0.0596962
-0.0505008
-0.0394392
-0.0280147
-0.0184419
-0.0128685
-0.0127491
-0.0201027
-0.0216301
-0.0224262
-0.022846
-0.023213
-0.0236773
-0.024362
-0.025392
-0.0268818
-0.0289363
-0.0316513
-0.0351057
-0.0393436
-0.0443502
-0.0500253
-0.0561606
-0.0624287
-0.0683933
-0.0735398
-0.0773197
-0.0791848
-0.0786475
-0.0753083
-0.0689091
-0.0594498
-0.0474199
-0.0341503
-0.0219888
-0.0137074
-0.0118346
-0.0198205
-0.0246601
-0.025523
-0.0258628
-0.0260609
-0.0263087
-0.0267697
-0.0276024
-0.0289446
-0.0309162
-0.0336227
-0.0371483
-0.0415384
-0.0467756
-0.0527528
-0.059254
-0.0659379
-0.0723551
-0.0779779
-0.082249
-0.0846099
-0.0845424
-0.0816068
-0.0754534
-0.0659169
-0.0532335
-0.0384561
-0.023852
-0.0126333
-0.00850734
-0.0166904
-0.0278205
-0.0288242
-0.0290204
-0.0289235
-0.0288035
-0.0288855
-0.0293727
-0.0304293
-0.0321886
-0.0347613
-0.0382314
-0.0426401
-0.0479615
-0.0540775
-0.0607724
-0.0676824
-0.0743477
-0.0802338
-0.0847915
-0.0874251
-0.0876068
-0.0848668
-0.0787935
-0.0690953
-0.0557958
-0.0396427
-0.0226687
-0.00830151
-0.0014459
-0.00905866
-0.0312109
-0.0324464
-0.032381
-0.0317968
-0.0311057
-0.030621
-0.0306
-0.0312328
-0.0326611
-0.034994
-0.038308
-0.0426337
-0.0479333
-0.0540761
-0.0608208
-0.067804
-0.0745593
-0.0805399
-0.0851626
-0.0878373
-0.0880143
-0.0851616
-0.0788232
-0.0685946
-0.0543504
-0.0365659
-0.0169882
0.000929444
0.0111205
0.00537363
-0.0350804
-0.0366153
-0.0360597
-0.0346926
-0.0331627
-0.0318959
-0.0312027
-0.0312899
-0.0322964
-0.0343186
-0.0374167
-0.0416014
-0.0468157
-0.0529106
-0.0596271
-0.0665901
-0.0733208
-0.079257
-0.0837896
-0.0862984
-0.0861801
-0.0828406
-0.0757355
-0.0643825
-0.048513
-0.0283787
-0.00544443
0.0169335
0.0315322
0.0297112
-0.04
-0.0417366
-0.0402396
-0.0376367
-0.0349263
-0.0326449
-0.0311321
-0.0305863
-0.0311226
-0.0328099
-0.0356788
-0.0397124
-0.0448269
-0.0508496
-0.0575016
-0.0643913
-0.0710215
-0.0768088
-0.0811108
-0.0832533
-0.0825558
-0.0783263
-0.0699006
-0.0566663
-0.0382136
-0.0146616
0.0129777
0.0417452
0.0627812
0.0678597
-0.0472691
-0.0485121
-0.0451715
-0.0406563
-0.036346
-0.0328174
-0.0303734
-0.0291568
-0.0292272
-0.0306044
-0.0332762
-0.0371881
-0.0422229
-0.0481793
-0.0547544
-0.0615362
-0.0680061
-0.0735532
-0.0774925
-0.0790831
-0.0775438
-0.0720354
-0.0617368
-0.0458374
-0.023713
0.00472729
0.0385716
0.0769061
0.107933
0.124323
-0.0600906
-0.0581592
-0.051148
-0.0437337
-0.037323
-0.0323286
-0.0288935
-0.027032
-0.0267029
-0.0278486
-0.0303973
-0.0342472
-0.039242
-0.0451489
-0.051639
-0.0582784
-0.064526
-0.069741
-0.0731931
-0.0740728
-0.0714889
-0.064411
-0.0518155
-0.032613
-0.00584
0.0290609
0.0718558
0.12161
0.16814
0.205883
-0.0866249
-0.0722448
-0.0584765
-0.0467274
-0.0375824
-0.0309429
-0.0265547
-0.0241786
-0.0236062
-0.0246676
-0.0272147
-0.0310913
-0.0361018
-0.0419834
-0.0483859
-0.054857
-0.0608371
-0.0656579
-0.068541
-0.0686065
-0.0648698
-0.0562103
-0.0412645
-0.0185855
0.013308
0.055829
0.109785
0.175588
0.243886
0.326177
-0.138682
-0.0875725
-0.0651454
-0.0474937
-0.0352056
-0.0272051
-0.0223535
-0.0199269
-0.0194886
-0.0207549
-0.0235129
-0.0275669
-0.0326971
-0.0386273
-0.0449998
-0.0513591
-0.057143
-0.0616766
-0.0641622
-0.0636642
-0.0590394
-0.0492301
-0.0326231
-0.00736479
0.0287135
0.0784979
0.145133
0.233834
0.341429
0.511067
-0.311618
-0.0974552
-0.048147
-0.0290222
-0.018072
-0.0122108
-0.00972552
-0.00936663
-0.0105496
-0.0130491
-0.01674
-0.0214951
-0.0271482
-0.0334673
-0.040132
-0.0467187
-0.0526907
-0.0573939
-0.0600537
-0.0597844
-0.0555883
-0.0459532
-0.0294622
-0.00418989
0.0324649
0.0848434
0.159618
0.274585
0.449471
0.793185
)
;

boundaryField
{
    movingWall
    {
        type            zeroGradient;
    }
    fixedWalls
    {
        type            zeroGradient;
    }
    frontAndBack
    {
        type            empty;
    }
}


// ************************************************************************* //
