/*--------------------------------*- C++ -*----------------------------------*\
  =========                 |
  \\      /  F ield         | OpenFOAM: The Open Source CFD Toolbox
   \\    /   O peration     | Website:  https://openfoam.org
    \\  /    A nd           | Version:  7
     \\/     M anipulation  |
\*---------------------------------------------------------------------------*/
FoamFile
{
    version     2.0;
    format      ascii;
    class       volScalarField;
    location    "1.6";
    object      p;
}
// * * * * * * * * * * * * * * * * * * * * * * * * * * * * * * * * * * * * * //

dimensions      [0 2 -2 0 0 0 0];

internalField   nonuniform List<scalar> 
900
(
-1.83116e-08
-0.00013569
-0.000232573
-0.000279653
-0.000253198
-0.00014644
3.85026e-05
0.000297086
0.000624504
0.00101596
0.00146642
0.00197032
0.00252131
0.00311202
0.00373404
0.00437778
0.00503257
0.00568666
0.0063274
0.00694141
0.00751486
0.00803372
0.00848415
0.00885287
0.00912788
0.0092997
0.00936468
0.0093322
0.00923264
0.0090825
0.000134508
-2.42199e-06
-7.03268e-05
-8.74977e-05
-4.4483e-05
6.62455e-05
0.000245672
0.000492146
0.000802933
0.00117449
0.00160251
0.00208186
0.00260647
0.00316927
0.00376211
0.00437573
0.00499975
0.00562286
0.00623286
0.00681691
0.00736179
0.00785436
0.00828198
0.0086332
0.00889865
0.00907222
0.00915364
0.00915313
0.00908543
0.00893498
0.000233999
6.23894e-05
-7.6286e-06
-1.93508e-05
2.72709e-05
0.000138262
0.000314645
0.00055533
0.000858308
0.00122067
0.00163858
0.0021073
0.00262105
0.00317302
0.00375526
0.00435867
0.00497313
0.00558733
0.00618918
0.0067659
0.00730435
0.00779145
0.00821473
0.00856308
0.00882752
0.00900228
0.00908705
0.00909082
0.00901902
0.00883094
0.000285068
7.30335e-05
-8.2174e-06
-2.26867e-05
2.28462e-05
0.00013259
0.000306801
0.000544286
0.000843326
0.00120142
0.00161514
0.00208008
0.00259081
0.00314074
0.00372211
0.00432596
0.00494217
0.00555942
0.00616548
0.00674732
0.0072915
0.00778456
0.00821364
0.00856722
0.00883588
0.00901318
0.00909784
0.0090974
0.0090114
0.00877946
0.000260053
1.53784e-05
-7.76574e-05
-9.73106e-05
-5.45562e-05
5.35771e-05
0.000226623
0.000463169
0.000761638
0.00111982
0.00153462
0.00200198
0.00251673
0.00307254
0.00366181
0.00427562
0.00490381
0.00553487
0.00615621
0.00675431
0.00731507
0.00782424
0.0082681
0.0086342
0.0089122
0.00909464
0.00917923
0.00917276
0.00907189
0.0088035
0.00014701
-0.000123704
-0.000227855
-0.000253403
-0.000213778
-0.000106707
6.68083e-05
0.000305156
0.000606845
0.000969899
0.00139153
0.00186797
0.00239434
0.00296453
0.00357105
0.00420499
0.00485608
0.00551242
0.00616089
0.00678719
0.00737619
0.00791245
0.00838088
0.00876761
0.00906095
0.00925217
0.00933814
0.00932562
0.00921036
0.00891095
-5.80297e-05
-0.000351457
-0.00046612
-0.000497458
-0.00046049
-0.000353306
-0.000177283
6.58261e-05
0.000374626
0.000747372
0.00118157
0.00167377
0.00221937
0.00281248
0.00344575
0.00411023
0.00479541
0.00548896
0.006177
0.00684416
0.00747394
0.00804922
0.00855301
0.00896951
0.00928517
0.00948979
0.00957946
0.00956151
0.00943191
0.0091028
-0.000357547
-0.000673387
-0.000798439
-0.000835207
-0.000800061
-0.000691297
-0.000510573
-0.000259728
5.99763e-05
0.000447061
0.000899363
0.00141378
0.00198605
0.00261052
0.00328
0.00398554
0.00471633
0.00545954
0.00620034
0.00692205
0.00760639
0.00823403
0.00878548
0.00924234
0.00958863
0.00981229
0.00990861
0.00988597
0.00974115
0.00937985
-0.000755043
-0.0010953
-0.00123124
-0.00127319
-0.001239
-0.00112716
-0.000939575
-0.000678153
-0.000343972
6.18125e-05
0.000537436
0.00108022
0.0016863
0.00235039
0.00306549
0.00382273
0.00461104
0.00541704
0.00622486
0.00701622
0.00777064
0.00846603
0.00907962
0.00958954
0.00997659
0.0102262
0.0103327
0.010306
0.0101439
0.00974483
-0.00125581
-0.00162405
-0.00177194
-0.00181907
-0.00178512
-0.00166882
-0.0014724
-0.00119783
-0.000845945
-0.000417512
8.61944e-05
0.000663027
0.00130965
0.00202126
0.00279123
0.00361086
0.00446897
0.00535166
0.00624197
0.00711982
0.00796212
0.00874331
0.00943643
0.010015
0.0104555
0.0107398
0.0108608
0.0108303
0.0106478
0.0102027
-0.00186712
-0.00226804
-0.00242943
-0.00248198
-0.00244773
-0.00232581
-0.00211886
-0.00182892
-0.00145656
-0.00100208
-0.000466136
0.000149792
0.00084307
0.00160956
0.00244323
0.00333579
0.00427618
0.00525016
0.00623973
0.00722289
0.00817357
0.009062
0.00985587
0.0105226
0.0110325
0.0113628
0.011504
0.0114699
0.0112626
0.0107604
-0.00259832
-0.00303757
-0.00321438
-0.00327284
-0.00323795
-0.00310944
-0.00289056
-0.00258347
-0.00218844
-0.00170517
-0.00113361
-0.000474382
0.000270784
0.00109868
0.00200417
0.00297972
0.00401474
0.00509503
0.0062018
0.0073112
0.00839389
0.00941511
0.0103359
0.0111155
0.0117159
0.012107
0.0122759
0.0122386
0.0120002
0.0114266
-0.00346087
-0.00394512
-0.00413965
-0.00420466
-0.00416889
-0.00403303
-0.00380112
-0.00347555
-0.00305626
-0.00254226
-0.00193263
-0.00122697
-0.000425846
0.00046876
0.00145301
0.00252057
0.00366187
0.00486341
0.00610608
0.00736458
0.00860625
0.00979071
0.0108707
0.011795
0.0125137
0.0129862
0.0131934
0.0131533
0.0128757
0.0122112
-0.00446861
-0.00500577
-0.00522067
-0.0052929
-0.00525601
-0.00511208
-0.00486627
-0.00452132
-0.00407681
-0.00353101
-0.00288196
-0.00212804
-0.00126842
-0.000303491
0.000764632
0.00193145
0.00318911
0.00452581
0.005923
0.00735476
0.0087856
0.0101692
0.0114484
0.0125584
0.0134331
0.0140158
0.014277
0.0142359
0.0139077
0.0131247
-0.00563808
-0.00623774
-0.00647596
-0.00655595
-0.00651745
-0.00636455
-0.00610402
-0.00573909
-0.00526902
-0.00469122
-0.0040026
-0.00320013
-0.00228136
-0.00124476
-9.02192e-05
0.00118025
0.00256135
0.00404479
0.00561349
0.00724256
0.008895
0.010519
0.0120465
0.0133955
0.0144776
0.0152123
0.0155521
0.0155141
0.0151199
0.0141779
-0.00698921
-0.00766321
-0.00792795
-0.00801576
-0.00797447
-0.00781118
-0.00753481
-0.00714939
-0.00665383
-0.00604465
-0.00531751
-0.00446791
-0.00349156
-0.00238477
-0.00114471
0.000229702
0.00173632
0.0033738
0.00512676
0.00697439
0.00888086
0.0107907
0.0126252
0.0142819
0.0156426
0.016591
0.0170493
0.0170247
0.0165438
0.01538
-0.00854626
-0.00930965
-0.00960413
-0.00969869
-0.00965209
-0.00947579
-0.0091817
-0.00877491
-0.00825403
-0.00761464
-0.00685113
-0.00595746
-0.00492754
-0.00375533
-0.00243502
-0.00096124
0.000670562
0.00245734
0.00439846
0.00647849
0.00866663
0.0109082
0.0131164
0.0151674
0.0169046
0.0181601
0.0188041
0.0188178
0.0182243
0.0167387
-0.0103395
-0.0112118
-0.0115387
-0.0116368
-0.0115798
-0.0113857
-0.0110704
-0.0106404
-0.0100939
-0.00942557
-0.00862847
-0.00769521
-0.00661803
-0.0053888
-0.00399883
-0.00243873
-0.000698777
0.00122833
0.0033494
0.00566137
0.00814568
0.0107567
0.0134074
0.0159563
0.0182031
0.019907
0.0208529
0.0209629
0.0202307
0.0182627
-0.0124077
-0.0134147
-0.0137752
-0.0138694
-0.0137928
-0.0135724
-0.0132296
-0.0127725
-0.0121988
-0.0115019
-0.0106739
-0.00970613
-0.0085897
-0.00731498
-0.00587101
-0.0042448
-0.00242098
-0.000382619
0.00188883
0.00440739
0.00717533
0.0101689
0.0133169
0.0164751
0.0194034
0.0217683
0.0232188
0.0235542
0.0226762
0.0199731
-0.0148031
-0.0159793
-0.0163703
-0.0164457
-0.0163325
-0.0160715
-0.0156904
-0.015199
-0.0145938
-0.0138669
-0.0130092
-0.0120112
-0.0108639
-0.00955703
-0.00807891
-0.00641446
-0.00454398
-0.00244203
-7.77635e-05
0.00258475
0.00557744
0.00891477
0.0125684
0.0164256
0.0202348
0.0235655
0.025868
0.0267064
0.0257489
0.0219403
-0.0175995
-0.01899
-0.0193991
-0.0194268
-0.0192482
-0.0189227
-0.0184859
-0.0179476
-0.0173025
-0.0165403
-0.0156504
-0.0146237
-0.0134514
-0.0121249
-0.0106339
-0.00896409
-0.00709504
-0.00499702
-0.00262809
6.71933e-05
0.0031579
0.0067112
0.0107776
0.0153371
0.0202026
0.0248931
0.028612
0.0305135
0.0297455
0.0243702
-0.0209085
-0.0225692
-0.0229632
-0.0228892
-0.022596
-0.0221683
-0.0216482
-0.0210429
-0.0203425
-0.019533
-0.0186025
-0.0175418
-0.0163445
-0.0150055
-0.0135188
-0.0118751
-0.0100587
-0.00804284
-0.0057832
-0.00321245
-0.00023239
0.00328453
0.00750256
0.0125786
0.0185307
0.0249841
0.0309428
0.0349414
0.0350803
0.0277903
-0.0249123
-0.0268995
-0.0272
-0.0269245
-0.0264352
-0.0258463
-0.0252006
-0.0244967
-0.0237154
-0.0228368
-0.0218465
-0.0207362
-0.0195028
-0.0181468
-0.01667
-0.0150725
-0.0133499
-0.0114891
-0.00945671
-0.00718655
-0.00458031
-0.00146912
0.00244564
0.00757276
0.0143305
0.0227601
0.0319464
0.0397027
0.0422603
0.0334182
-0.029933
-0.0322611
-0.032292
-0.0316327
-0.0308131
-0.0299717
-0.0291365
-0.0282852
-0.0273823
-0.0263983
-0.0253148
-0.0241243
-0.0228281
-0.021434
-0.0199539
-0.0184013
-0.0167887
-0.0151238
-0.0134045
-0.0115961
-0.00958978
-0.00726321
-0.004184
0.000335144
0.00727745
0.0175033
0.0307539
0.0444277
0.0520078
0.0437988
-0.0365838
-0.0390864
-0.0384621
-0.0370897
-0.0357211
-0.0344868
-0.0333656
-0.0322934
-0.0312079
-0.0300646
-0.0288392
-0.0275241
-0.0261246
-0.0246562
-0.0231413
-0.0216076
-0.0200868
-0.0186125
-0.0172165
-0.0159167
-0.0146809
-0.0132722
-0.0113406
-0.00792123
-0.00141992
0.0101542
0.0278722
0.0496131
0.0659413
0.0634927
-0.0461209
-0.0480235
-0.0459034
-0.0432411
-0.0409749
-0.0391344
-0.0375851
-0.03619
-0.0348439
-0.0334798
-0.0320624
-0.0305812
-0.0290432
-0.0274689
-0.0258885
-0.0243409
-0.0228725
-0.0215367
-0.0203911
-0.0194835
-0.018809
-0.0181864
-0.0171738
-0.0146255
-0.0084623
0.0043899
0.0267446
0.0583032
0.0878271
0.0990013
-0.0614818
-0.0599844
-0.0545663
-0.0496447
-0.0459507
-0.0432039
-0.0410481
-0.0392296
-0.0375721
-0.0359673
-0.0343576
-0.0327213
-0.0310614
-0.0293979
-0.0277637
-0.0262017
-0.0247636
-0.0235081
-0.0224947
-0.0217639
-0.0212928
-0.0208929
-0.0198598
-0.0169279
-0.00961278
0.00586962
0.0337916
0.0770095
0.123977
0.159093
-0.0900918
-0.0756991
-0.0639382
-0.0552209
-0.0493482
-0.0453845
-0.0425159
-0.040296
-0.0384154
-0.0366884
-0.0350148
-0.0333502
-0.0316862
-0.0300377
-0.0284355
-0.0269212
-0.0255424
-0.0243469
-0.0233682
-0.0225959
-0.0219136
-0.0209791
-0.0188895
-0.013959
-0.00322968
0.0178441
0.05478
0.11242
0.181577
0.262059
-0.142791
-0.0908198
-0.0713024
-0.0569574
-0.0483283
-0.0433203
-0.0402187
-0.038087
-0.0364242
-0.0349593
-0.033551
-0.0321359
-0.030699
-0.029255
-0.0278361
-0.0264836
-0.0252405
-0.0241391
-0.0231777
-0.0222704
-0.0211549
-0.019251
-0.0154649
-0.00762506
0.00786638
0.0367047
0.0860604
0.164729
0.27078
0.4426
-0.314122
-0.0998906
-0.0529811
-0.0376389
-0.0307243
-0.0282244
-0.0278732
-0.028182
-0.028489
-0.0285783
-0.0283972
-0.0279548
-0.0272919
-0.0264668
-0.0255446
-0.0245894
-0.0236566
-0.0227794
-0.0219428
-0.0210356
-0.0197657
-0.0175118
-0.0130376
-0.00390784
0.0137245
0.0465963
0.104886
0.210273
0.382906
0.728326
)
;

boundaryField
{
    movingWall
    {
        type            zeroGradient;
    }
    fixedWalls
    {
        type            zeroGradient;
    }
    frontAndBack
    {
        type            empty;
    }
}


// ************************************************************************* //
