/*--------------------------------*- C++ -*----------------------------------*\
  =========                 |
  \\      /  F ield         | OpenFOAM: The Open Source CFD Toolbox
   \\    /   O peration     | Website:  https://openfoam.org
    \\  /    A nd           | Version:  7
     \\/     M anipulation  |
\*---------------------------------------------------------------------------*/
FoamFile
{
    version     2.0;
    format      ascii;
    class       surfaceScalarField;
    location    "1.6";
    object      phi;
}
// * * * * * * * * * * * * * * * * * * * * * * * * * * * * * * * * * * * * * //

dimensions      [0 3 -1 0 0 0 0];

internalField   nonuniform List<scalar> 
1740
(
-1.31903e-08
1.32069e-08
-1.58925e-06
1.57606e-06
-4.53125e-06
2.942e-06
-8.24696e-06
3.71571e-06
-1.22756e-05
4.0286e-06
-1.63241e-05
4.0485e-06
-2.0225e-05
3.90093e-06
-2.38844e-05
3.65944e-06
-2.72435e-05
3.35903e-06
-3.02568e-05
3.01337e-06
-3.28837e-05
2.62685e-06
-3.50846e-05
2.20089e-06
-3.68212e-05
1.73664e-06
-3.80572e-05
1.23601e-06
-3.87592e-05
7.01987e-07
-3.8898e-05
1.38836e-07
-3.84502e-05
-4.47832e-07
-3.73994e-05
-1.05077e-06
-3.57383e-05
-1.66111e-06
-3.347e-05
-2.26831e-06
-3.06103e-05
-2.85972e-06
-2.71907e-05
-3.4196e-06
-2.32645e-05
-3.92617e-06
-1.89191e-05
-4.34543e-06
-1.42991e-05
-4.62003e-06
-9.644e-06
-4.65508e-06
-5.3336e-06
-4.3104e-06
-1.91667e-06
-3.41693e-06
-6.06023e-08
-1.85607e-06
-6.06002e-08
-1.57757e-06
1.59078e-06
-6.47334e-06
6.47183e-06
-1.3823e-05
1.02917e-05
-2.26588e-05
1.25515e-05
-3.21525e-05
1.35223e-05
-4.17125e-05
1.36086e-05
-5.0955e-05
1.31434e-05
-5.96362e-05
1.23406e-05
-6.7592e-05
1.13148e-05
-7.46984e-05
1.01198e-05
-8.08509e-05
8.77934e-06
-8.59554e-05
7.30544e-06
-8.99259e-05
5.70708e-06
-9.2684e-05
3.99412e-06
-9.41611e-05
2.17905e-06
-9.42997e-05
2.77424e-07
-9.30572e-05
-1.69032e-06
-9.04075e-05
-3.70045e-06
-8.63457e-05
-5.72294e-06
-8.08913e-05
-7.72262e-06
-7.40942e-05
-9.6569e-06
-6.60419e-05
-1.14718e-05
-5.6875e-05
-1.30931e-05
-4.6812e-05
-1.44085e-05
-3.61912e-05
-1.52408e-05
-2.5528e-05
-1.53183e-05
-1.55681e-05
-1.42703e-05
-7.29333e-06
-1.16917e-05
-1.79416e-06
-7.35522e-06
-1.85476e-06
-3.02718e-06
4.61796e-06
-1.05688e-05
1.40135e-05
-2.12048e-05
2.09277e-05
-3.36555e-05
2.50021e-05
-4.68878e-05
2.67546e-05
-6.01574e-05
2.68782e-05
-7.2965e-05
2.5951e-05
-8.49793e-05
2.43549e-05
-9.59696e-05
2.23051e-05
-0.00010576
1.99101e-05
-0.000114204
1.72233e-05
-0.000121173
1.42745e-05
-0.000126552
1.10864e-05
-0.00013024
7.68192e-06
-0.000132149
4.0878e-06
-0.000132209
3.37188e-07
-0.000130367
-3.5322e-06
-0.000126597
-7.47062e-06
-0.000120898
-1.14211e-05
-0.000113306
-1.5315e-05
-0.000103894
-1.90691e-05
-9.27878e-05
-2.25778e-05
-8.01844e-05
-2.56965e-05
-6.63809e-05
-2.8212e-05
-5.18237e-05
-2.97979e-05
-3.71712e-05
-2.99709e-05
-2.33533e-05
-2.80882e-05
-1.15876e-05
-2.34574e-05
-3.30096e-06
-1.56419e-05
-5.15573e-06
-3.98733e-06
8.60529e-06
-1.34502e-05
2.34763e-05
-2.64551e-05
3.39326e-05
-4.14441e-05
3.99911e-05
-5.72342e-05
4.25447e-05
-7.29937e-05
4.26377e-05
-8.81646e-05
4.11218e-05
-0.000102371
3.85618e-05
-0.000115348
3.52818e-05
-0.000126889
3.14512e-05
-0.000136824
2.7158e-05
-0.000145003
2.2454e-05
-0.000151296
1.73789e-05
-0.000155586
1.19718e-05
-0.000157775
6.2766e-06
-0.000157784
3.46263e-07
-0.000155555
-5.76099e-06
-0.000151059
-1.19664e-05
-0.000144298
-1.8182e-05
-0.000135313
-2.43007e-05
-0.00012419
-3.01922e-05
-0.000111076
-3.56911e-05
-9.62001e-05
-4.05725e-05
-7.99027e-05
-4.45094e-05
-6.26899e-05
-4.70108e-05
-4.53007e-05
-4.736e-05
-2.87802e-05
-4.46088e-05
-1.45232e-05
-3.77144e-05
-4.25615e-06
-2.59089e-05
-9.41188e-06
-4.58774e-06
1.3193e-05
-1.53939e-05
3.42825e-05
-3.01023e-05
4.86409e-05
-4.69167e-05
5.68055e-05
-6.45273e-05
6.01553e-05
-8.2038e-05
6.01485e-05
-9.88563e-05
5.794e-05
-0.000114584
5.42899e-05
-0.000128938
4.96359e-05
-0.000141698
4.42111e-05
-0.00015268
3.81396e-05
-0.000161723
3.14967e-05
-0.000168684
2.43406e-05
-0.00017344
1.67271e-05
-0.000175881
8.71784e-06
-0.000175921
3.86672e-07
-0.000173494
-8.18816e-06
-0.000168563
-1.68972e-05
-0.000161125
-2.562e-05
-0.000151218
-3.42082e-05
-0.00013893
-4.24804e-05
-0.000124416
-5.0205e-05
-0.00010792
-5.70685e-05
-8.981e-05
-6.26192e-05
-7.06343e-05
-6.61865e-05
-5.11959e-05
-6.67983e-05
-3.26407e-05
-6.3164e-05
-1.65276e-05
-5.38275e-05
-4.84795e-06
-3.75886e-05
-1.42598e-05
-4.99188e-06
1.81849e-05
-1.67982e-05
4.60888e-05
-3.28262e-05
6.4669e-05
-5.108e-05
7.50593e-05
-7.01339e-05
7.92093e-05
-8.90331e-05
7.90477e-05
-0.000107156
7.60634e-05
-0.000124092
7.12253e-05
-0.000139547
6.50906e-05
-0.000153293
5.79572e-05
-0.000165139
4.99861e-05
-0.000174918
4.12759e-05
-0.00018248
3.19025e-05
-0.000187691
2.19379e-05
-0.000190433
1.14599e-05
-0.000190608
5.61804e-07
-0.000188137
-1.06594e-05
-0.000182969
-2.20649e-05
-0.000175088
-3.35014e-05
-0.000164518
-4.47784e-05
-0.000151339
-5.5659e-05
-0.000135705
-6.58396e-05
-0.000117865
-7.4908e-05
-9.82105e-05
-8.22737e-05
-7.73312e-05
-8.70659e-05
-5.61014e-05
-8.80282e-05
-3.57792e-05
-8.34861e-05
-1.80933e-05
-7.15134e-05
-5.27438e-06
-5.04075e-05
-1.95342e-05
-5.32652e-06
2.35114e-05
-1.79992e-05
5.87615e-05
-3.52039e-05
8.18738e-05
-5.47667e-05
9.46221e-05
-7.51499e-05
9.95924e-05
-9.53372e-05
9.92351e-05
-0.000114678
9.54046e-05
-0.000132748
8.92951e-05
-0.000149247
8.15898e-05
-0.000163944
7.2654e-05
-0.000176644
6.26855e-05
-0.000187173
5.18053e-05
-0.000195376
4.01053e-05
-0.000201109
2.76713e-05
-0.000204244
1.45946e-05
-0.000204666
9.83734e-07
-0.000202278
-1.30474e-05
-0.000197008
-2.73349e-05
-0.000188815
-4.16941e-05
-0.000177703
-5.58911e-05
-0.00016373
-6.96311e-05
-0.00014704
-8.25298e-05
-0.000127885
-9.40635e-05
-0.000106676
-0.000103482
-8.40557e-05
-0.000109686
-6.09866e-05
-0.000111097
-3.88632e-05
-0.00010561
-1.96036e-05
-9.0773e-05
-5.67606e-06
-6.4335e-05
-2.52103e-05
-5.67188e-06
2.91833e-05
-1.92267e-05
7.23163e-05
-3.76379e-05
0.000100285
-5.85561e-05
0.00011554
-8.03273e-05
0.000121363
-0.000101869
0.000120777
-0.000122497
0.000116033
-0.000141773
0.000108571
-0.000159392
9.92084e-05
-0.000175119
8.83811e-05
-0.000188758
7.6324e-05
-0.000200132
6.31794e-05
-0.000209079
4.90527e-05
-0.000215447
3.40396e-05
-0.000219093
1.82404e-05
-0.000219883
1.77312e-06
-0.000217694
-1.52355e-05
-0.000212426
-3.26031e-05
-0.000204004
-5.01166e-05
-0.000192395
-6.75002e-05
-0.000177629
-8.43971e-05
-0.000159825
-0.000100334
-0.000139233
-0.000114656
-0.000116287
-0.000126427
-9.16937e-05
-0.00013428
-6.65279e-05
-0.000136263
-4.23538e-05
-0.000129784
-2.13135e-05
-0.000111813
-6.1375e-06
-7.9511e-05
-3.13478e-05
-6.07226e-06
3.52556e-05
-2.06191e-05
8.68631e-05
-4.03785e-05
0.000120044
-6.28112e-05
0.000137973
-8.61353e-05
0.000144688
-0.000109194
0.000143836
-0.000131268
0.000138107
-0.000151901
0.000129204
-0.000170784
0.000118091
-0.000187681
0.000105279
-0.000202397
9.10395e-05
-0.000214753
7.55357e-05
-0.000224583
5.8883e-05
-0.000231726
4.11824e-05
-0.000236022
2.25365e-05
-0.000237314
3.06539e-06
-0.000235451
-1.70991e-05
-0.000230289
-3.77647e-05
-0.000221709
-5.86964e-05
-0.00020963
-7.95798e-05
-0.000194033
-9.99941e-05
-0.000175001
-0.000119365
-0.00015277
-0.000136887
-0.0001278
-0.000151398
-0.00010087
-0.00016121
-7.31996e-05
-0.000163933
-4.6566e-05
-0.000156417
-2.3387e-05
-0.000134992
-6.70632e-06
-9.61916e-05
-3.80541e-05
-6.55147e-06
4.1807e-05
-2.22576e-05
0.000102569
-4.35778e-05
0.000141365
-6.77541e-05
0.000162149
-9.28598e-05
0.000169793
-0.000117655
0.000168631
-0.000141378
0.00016183
-0.000163559
0.000151384
-0.000183883
0.000138415
-0.000202118
0.000123514
-0.000218072
0.000106993
-0.000231569
8.90325e-05
-0.00024244
6.97546e-05
-0.000250517
4.92593e-05
-0.000255624
2.76437e-05
-0.000257579
5.01959e-06
-0.00025619
-1.84875e-05
-0.000251267
-4.26879e-05
-0.000242628
-6.73352e-05
-0.000230124
-9.20841e-05
-0.000213668
-0.000116451
-0.000193284
-0.000139749
-0.000169177
-0.000160994
-0.000141825
-0.00017875
-0.000112097
-0.000190938
-8.13895e-05
-0.000194641
-5.17502e-05
-0.000186056
-2.59469e-05
-0.000160796
-7.41368e-06
-0.000114725
-4.54678e-05
-7.12455e-06
4.89316e-05
-2.41964e-05
0.000119641
-4.73384e-05
0.000164507
-7.35349e-05
0.000188346
-0.000100691
0.000196949
-0.000127472
0.000195412
-0.000153074
0.000187431
-0.000177008
0.000175319
-0.000198963
0.00016037
-0.000218712
0.000143264
-0.000236073
0.000124354
-0.000250878
0.000103837
-0.000262961
8.18377e-05
-0.000272149
5.84474e-05
-0.000278253
3.37475e-05
-0.000281061
7.82798e-06
-0.000280342
-1.92073e-05
-0.00027584
-4.71896e-05
-0.000267297
-7.58781e-05
-0.00025447
-0.000104911
-0.000237173
-0.000133747
-0.000215342
-0.000161581
-0.000189119
-0.000187216
-0.000158986
-0.000208883
-0.000125908
-0.000224015
-9.15025e-05
-0.000229047
-5.81651e-05
-0.000219394
-2.9116e-05
-0.000189845
-8.28866e-06
-0.000135552
-5.37564e-05
-7.80491e-06
5.67365e-05
-2.64827e-05
0.000138319
-5.17485e-05
0.000189772
-8.02796e-05
0.000216877
-0.000109785
0.000226454
-0.000138822
0.00022445
-0.00016654
0.000215149
-0.000192439
0.000201218
-0.000216212
0.000184143
-0.000237649
0.000164701
-0.000256583
0.000143288
-0.000272863
0.000120117
-0.000286334
9.53089e-05
-0.000296826
6.89392e-05
-0.000304139
4.10605e-05
-0.000308036
1.17245e-05
-0.000308235
-1.90076e-05
-0.000304411
-5.10135e-05
-0.000296206
-8.40836e-05
-0.000283253
-0.000117864
-0.000265225
-0.000151774
-0.000241919
-0.000184887
-0.000213372
-0.000215763
-0.000180033
-0.000242222
-0.000142965
-0.000261083
-0.000104052
-0.00026796
-6.61415e-05
-0.000257304
-3.3051e-05
-0.000222935
-9.36785e-06
-0.000159235
-6.31243e-05
-8.60866e-06
6.53452e-05
-2.91699e-05
0.00015888
-5.69045e-05
0.000217507
-8.81221e-05
0.000248095
-0.000120301
0.000258633
-0.000151879
0.000256028
-0.000181954
0.000245224
-0.000210022
0.000229286
-0.000235791
0.000209912
-0.000259074
0.000187984
-0.000279734
0.000163948
-0.000297648
0.00013803
-0.000312683
0.000110344
-0.000324682
8.09384e-05
-0.000333444
4.98231e-05
-0.000338711
1.69911e-05
-0.000340153
-1.75653e-05
-0.000337361
-5.38054e-05
-0.000329857
-9.15881e-05
-0.000317112
-0.000130609
-0.000298607
-0.00017028
-0.000273927
-0.000209567
-0.000242929
-0.000246762
-0.000205966
-0.000279184
-0.000164177
-0.000302872
-0.000119761
-0.000312377
-7.61543e-05
-0.000300911
-3.79789e-05
-0.000261111
-1.0704e-05
-0.00018651
-7.38283e-05
-9.55763e-06
7.49028e-05
-3.23273e-05
0.00018165
-6.29279e-05
0.000248108
-9.72265e-05
0.000282393
-0.00013243
0.000293837
-0.000166842
0.00029044
-0.000199513
0.000277895
-0.000229939
0.000259712
-0.000257857
0.00023783
-0.000283119
0.000213247
-0.000305632
0.000186461
-0.000325317
0.000157715
-0.000342081
0.000127108
-0.000355795
9.46524e-05
-0.000366271
6.02997e-05
-0.000373241
2.39604e-05
-0.000376333
-1.44732e-05
-0.000375048
-5.50896e-05
-0.00036877
-9.78666e-05
-0.000356767
-0.000142611
-0.000338256
-0.000188791
-0.000312517
-0.000235306
-0.000279105
-0.000280173
-0.000238169
-0.00032012
-0.000190854
-0.000350188
-0.000139707
-0.000363523
-8.89294e-05
-0.000351689
-4.42531e-05
-0.000305787
-1.23793e-05
-0.000218384
-8.62076e-05
-1.06828e-05
8.55856e-05
-3.60503e-05
0.000207017
-6.99817e-05
0.000282039
-0.000107807
0.000320219
-0.000146416
0.000332446
-0.000183961
0.000327984
-0.00021945
0.000313384
-0.000252396
0.000292658
-0.00028258
0.000268013
-0.000309912
0.00024058
-0.000334365
0.000210914
-0.000355922
0.000179272
-0.000374553
0.000145738
-0.000390179
0.000110279
-0.000402648
7.27684e-05
-0.000411699
3.30115e-05
-0.000416939
-9.23287e-06
-0.000417783
-5.42462e-05
-0.000413462
-0.000102187
-0.000403006
-0.000153068
-0.000385284
-0.000206512
-0.000359144
-0.000261447
-0.000323665
-0.000315652
-0.000278595
-0.000365191
-0.00022493
-0.000403852
-0.000165552
-0.000422901
-0.000105629
-0.000411612
-5.24552e-05
-0.000358961
-1.45316e-05
-0.000256308
-0.000100739
-1.2029e-05
9.76145e-05
-4.04735e-05
0.000235462
-7.82898e-05
0.000319855
-0.000120152
0.000362081
-0.000162576
0.000374869
-0.000203552
0.00036896
-0.000242057
0.000351889
-0.00027764
0.000328241
-0.00031015
0.000300523
-0.000339582
0.000270012
-0.000365997
0.000237329
-0.00038947
0.000202745
-0.000410056
0.000166324
-0.000427759
0.000127981
-0.000442492
8.75009e-05
-0.000454034
4.45541e-05
-0.000462009
-1.25775e-06
-0.000465758
-5.0498e-05
-0.000464378
-0.000103567
-0.000456628
-0.000160818
-0.000440954
-0.000222186
-0.000415608
-0.000286792
-0.000378948
-0.000352312
-0.000329998
-0.000414141
-0.000269299
-0.000464551
-0.00019991
-0.00049229
-0.000128169
-0.000483353
-6.35859e-05
-0.000423544
-1.74092e-05
-0.000302484
-0.000118148
-1.36624e-05
0.000111277
-4.579e-05
0.000267589
-8.81653e-05
0.000362231
-0.000134653
0.000408568
-0.00018133
0.000421547
-0.000226021
0.000413651
-0.000267693
0.000393561
-0.000305963
0.000366511
-0.00034078
0.000335341
-0.000372254
0.000301486
-0.000400563
0.000265638
-0.000425905
0.000228086
-0.000448454
0.000188874
-0.000468331
0.000147859
-0.000485558
0.000104728
-0.000500008
5.90037e-05
-0.000511339
1.00728e-05
-0.000518926
-4.29107e-05
-0.000521744
-0.000100748
-0.000518296
-0.000164266
-0.000506547
-0.000233936
-0.000483985
-0.000309355
-0.000447918
-0.000388379
-0.000396159
-0.0004659
-0.000328213
-0.000532497
-0.00024688
-0.000573624
-0.000159735
-0.000570498
-7.94026e-05
-0.000503876
-2.14806e-05
-0.000360406
-0.000139629
-1.56835e-05
0.00012696
-5.22821e-05
0.000304188
-0.000100051
0.000409999
-0.000151843
0.000460361
-0.000203234
0.000472937
-0.000251888
0.000462306
-0.000296803
0.000438477
-0.000337709
0.000407417
-0.000374697
0.000372329
-0.000408029
0.000334817
-0.000438035
0.000295644
-0.000465068
0.000255119
-0.000489459
0.000213265
-0.000511487
0.000169886
-0.000531332
0.000124573
-0.000549023
7.66946e-05
-0.000564342
2.5392e-05
-0.000576777
-3.04753e-05
-0.000585286
-9.22388e-05
-0.000588193
-0.00016136
-0.000582991
-0.000239137
-0.000566272
-0.000326074
-0.00053392
-0.000420731
-0.000481843
-0.000517976
-0.00040754
-0.000606799
-0.000312585
-0.000668579
-0.000205452
-0.000677631
-0.000102946
-0.000606383
-2.76325e-05
-0.000435719
-0.000167261
-1.8249e-05
0.00014521
-6.03698e-05
0.000346309
-0.000114577
0.000464206
-0.000172454
0.000518239
-0.000229013
0.000529496
-0.0002818
0.000515092
-0.000329909
0.000486586
-0.000373247
0.000450755
-0.0004121
0.000411183
-0.000446926
0.000369643
-0.000478245
0.000326964
-0.000506599
0.000283472
-0.000532511
0.000239178
-0.00055646
0.000193835
-0.00057884
0.000146953
-0.000599909
9.77637e-05
-0.000619697
4.518e-05
-0.000637906
-1.22669e-05
-0.000653666
-7.64782e-05
-0.000665304
-0.000149722
-0.000669981
-0.00023446
-0.000663381
-0.000332674
-0.000639632
-0.000444481
-0.0005919
-0.000565709
-0.000514238
-0.000684461
-0.000405202
-0.000777615
-0.000272916
-0.000809917
-0.000139183
-0.000740116
-3.74876e-05
-0.000537414
-0.000204749
-2.16117e-05
0.000166821
-7.06878e-05
0.000395385
-0.000132643
0.000526161
-0.00019747
0.000583066
-0.000259586
0.000591612
-0.000316511
0.000572017
-0.000367546
0.000537621
-0.000412865
0.000496074
-0.000453018
0.000451336
-0.000488703
0.000405328
-0.000520671
0.000358931
-0.00054968
0.000312482
-0.000576479
0.000265976
-0.000601782
0.000219138
-0.000626246
0.000171418
-0.000650433
0.000121951
-0.000674732
6.94782e-05
-0.000699227
1.22281e-05
-0.000723464
-5.2241e-05
-0.000746074
-0.000127112
-0.000764226
-0.000216308
-0.000772925
-0.000323975
-0.000764446
-0.000452959
-0.000728447
-0.000601708
-0.000653768
-0.00075914
-0.000533186
-0.000898197
-0.000371626
-0.000971477
-0.000195396
-0.000916346
-5.38336e-05
-0.000678977
-0.000258583
-2.61936e-05
0.000193015
-8.4208e-05
0.000453399
-0.000155522
0.000597476
-0.000228163
0.000655707
-0.00029601
0.000659459
-0.000356741
0.000632748
-0.000410037
0.000590917
-0.000456463
0.0005425
-0.000496911
0.000491784
-0.000532374
0.000440791
-0.000563867
0.000390423
-0.000592393
0.000341008
-0.00061894
0.000292524
-0.000644478
0.000244676
-0.000669954
0.000196894
-0.00069628
0.000148277
-0.00072429
9.74881e-05
-0.000754619
4.25562e-05
-0.000787469
-1.93907e-05
-0.000822195
-9.23858e-05
-0.000856515
-0.000181988
-0.00088535
-0.000295139
-0.000899538
-0.000438772
-0.000885003
-0.000616242
-0.000823879
-0.000820264
-0.000699816
-0.00102226
-0.000509639
-0.00116165
-0.000280424
-0.00114556
-8.10845e-05
-0.000878316
-0.000339667
-3.27239e-05
0.000225739
-0.000102426
0.000523101
-0.000184963
0.000680012
-0.000266037
0.00073678
-0.000339231
0.000732654
-0.000402727
0.000696243
-0.000456846
0.000645036
-0.000502707
0.00058836
-0.000541645
0.000530722
-0.000575011
0.000474157
-0.000604115
0.000419527
-0.000630222
0.000367115
-0.00065456
0.000316862
-0.000678342
0.000268458
-0.000702785
0.000221337
-0.000729139
0.000174631
-0.00075869
0.000127038
-0.000792714
7.65811e-05
-0.000832187
2.00816e-05
-0.000877565
-4.70074e-05
-0.000927843
-0.000131711
-0.000978789
-0.000244193
-0.00102101
-0.000396548
-0.00103775
-0.000599504
-0.00100439
-0.000853626
-0.000892912
-0.00113374
-0.000685633
-0.00136893
-0.000401285
-0.00142991
-0.000125503
-0.0011541
-0.00046517
-4.25029e-05
0.000268242
-0.000127631
0.00060823
-0.00022319
0.000775571
-0.000312432
0.000826023
-0.000389274
0.000809495
-0.000452993
0.000759963
-0.000504938
0.000696981
-0.000547011
0.000630433
-0.000581123
0.000564834
-0.000609063
0.000502097
-0.00063248
0.000442944
-0.000652907
0.000387542
-0.000671792
0.000335747
-0.000690534
0.0002872
-0.000710539
0.000241342
-0.00073328
0.000197373
-0.000760363
0.000154122
-0.000793555
0.000109773
-0.000834833
6.1359e-05
-0.000885164
3.32428e-06
-0.000946036
-7.08386e-05
-0.00101492
-0.000175312
-0.0010843
-0.000327162
-0.00113769
-0.000546118
-0.00114665
-0.000844663
-0.00107215
-0.00120824
-0.000876549
-0.00156453
-0.000555438
-0.00175102
-0.000194142
-0.00151539
-0.000659312
-5.79143e-05
0.000326156
-0.000163235
0.00071355
-0.000272534
0.00088487
-0.000367282
0.00092077
-0.000443095
0.000885309
-0.000501357
0.000818224
-0.000545024
0.000740649
-0.000577115
0.000662524
-0.000600323
0.000588042
-0.000616989
0.000518763
-0.000629156
0.000455111
-0.00063862
0.000397006
-0.000646989
0.000344115
-0.000655745
0.000295956
-0.000666323
0.00025192
-0.000680199
0.000211249
-0.000698995
0.000172918
-0.000724593
0.00013537
-0.000759196
9.59627e-05
-0.00080572
4.98483e-05
-0.00086538
-1.11784e-05
-0.000939955
-0.000100737
-0.00102594
-0.000241179
-0.00111167
-0.000460381
-0.00117167
-0.000784672
-0.00116216
-0.00121775
-0.00102554
-0.00170116
-0.000718116
-0.00205844
-0.000289719
-0.00194379
-0.000949031
-8.34136e-05
0.00040957
-0.000213958
0.000844095
-0.000333847
0.00100476
-0.000425605
0.00101253
-0.000489338
0.000949042
-0.000530211
0.000859097
-0.000553693
0.000764131
-0.000564426
0.000673257
-0.000566165
0.000589781
-0.00056193
0.000514528
-0.000554162
0.000447343
-0.000544844
0.000387688
-0.000535611
0.000334882
-0.000527845
0.00028819
-0.000522773
0.000246848
-0.000521576
0.000210052
-0.000525513
0.000176855
-0.00053608
0.000145937
-0.000555208
0.000115091
-0.000585614
8.0254e-05
-0.00063041
3.36179e-05
-0.000693049
-3.80988e-05
-0.000776614
-0.000157614
-0.000878886
-0.000358109
-0.000986179
-0.000677379
-0.00106268
-0.00114125
-0.00104043
-0.00172341
-0.000829198
-0.00226967
-0.000398509
-0.00237448
-0.00134754
-0.000127402
0.000536971
-0.000284868
0.00100156
-0.000401026
0.00112092
-0.000468114
0.00107962
-0.000496024
0.000976952
-0.000496394
0.000859467
-0.000478479
0.000746215
-0.000449098
0.000643876
-0.000413194
0.000553877
-0.000374339
0.000475674
-0.000335112
0.000408115
-0.000297366
0.000349942
-0.000262427
0.000299944
-0.000231249
0.000257011
-0.000204537
0.000220136
-0.000182862
0.000188377
-0.000166776
0.00016077
-0.000156966
0.000136127
-0.000154494
0.000112619
-0.000161197
8.69572e-05
-0.000180517
5.29383e-05
-0.000217372
-1.2436e-06
-0.000279973
-9.50133e-05
-0.000377316
-0.000260766
-0.000514223
-0.000540472
-0.000677511
-0.00097796
-0.000812293
-0.00158863
-0.000792384
-0.00228958
-0.000477336
-0.00268953
-0.00182488
-0.000205626
0.000742597
-0.00037316
0.0011691
-0.000441736
0.00118949
-0.000435184
0.00107306
-0.000381896
0.000923664
-0.000303151
0.000780722
-0.000212431
0.000655495
-0.000118234
0.00054968
-2.57186e-05
0.000461361
6.20537e-05
0.000387901
0.000143339
0.00032683
0.000217249
0.000276032
0.000283444
0.000233749
0.000341931
0.000198524
0.000392925
0.000169142
0.000436742
0.00014456
0.000473713
0.000123799
0.000504064
0.000105775
0.000527713
8.897e-05
0.000543819
7.08513e-05
0.000549916
4.68408e-05
0.000539812
8.86089e-06
0.000503926
-5.91276e-05
0.000424245
-0.000181084
0.000277621
-0.000393848
4.69123e-05
-0.000747252
-0.000246804
-0.00129491
-0.000494944
-0.00204144
-0.00045652
-0.00272795
-0.0022814
-0.000331675
0.00107427
-0.000411737
0.00124916
-0.000324252
0.00110201
-0.000152746
0.000901558
4.79938e-05
0.000722925
0.000251018
0.000577698
0.000443134
0.000463378
0.000618896
0.000373918
0.000776566
0.000303691
0.00091624
0.000248228
0.00103891
0.000204157
0.00114599
0.000168954
0.00123903
0.000140709
0.00131959
0.000117961
0.00138916
9.95737e-05
0.00144909
8.46295e-05
0.00150057
7.23233e-05
0.00154452
6.18201e-05
0.00158148
5.20153e-05
0.00161114
4.11863e-05
0.00163151
2.64693e-05
0.0016368
3.57933e-06
0.00161656
-3.88881e-05
0.00155001
-0.00011454
0.00140373
-0.000247565
0.00113383
-0.000477352
0.00070262
-0.0008637
0.000169312
-0.00150813
-0.000192908
-0.00236573
-0.00247431
-0.000290083
0.00136435
-2.23205e-05
0.000981396
0.000421349
0.000658338
0.000845939
0.000476968
0.00122032
0.000348538
0.00154134
0.000256681
0.00181266
0.00019206
0.00204038
0.000146201
0.00223108
0.000112991
0.0023908
8.85066e-05
0.00252475
7.0211e-05
0.00263731
5.63891e-05
0.00273217
4.58481e-05
0.00281239
3.77447e-05
0.00288049
3.14684e-05
0.00293857
2.6558e-05
0.00298826
2.26306e-05
0.00303077
1.93081e-05
0.00306666
1.61225e-05
0.00309547
1.23825e-05
0.00311492
7.01609e-06
0.00312051
-2.00987e-06
0.00310096
-1.93375e-05
0.00303594
-4.95243e-05
0.00289055
-0.000102168
0.00261
-0.000196803
0.0021174
-0.000371106
0.00135162
-0.000742352
0.000447476
-0.00146158
-0.00202683
0.00136435
0.00234575
0.00300409
0.00348106
0.00382959
0.00408628
0.00427834
0.00442454
0.00453753
0.00462603
0.00469624
0.00475263
0.00479848
0.00483623
0.00486769
0.00489425
0.00491688
0.00493619
0.00495231
0.0049647
0.00497171
0.0049697
0.00495037
0.00490084
0.00479867
0.00460187
0.00423076
0.00348841
0.00202683
)
;

boundaryField
{
    movingWall
    {
        type            calculated;
        value           uniform 0;
    }
    fixedWalls
    {
        type            calculated;
        value           uniform 0;
    }
    frontAndBack
    {
        type            empty;
        value           nonuniform 0();
    }
}


// ************************************************************************* //
