/*--------------------------------*- C++ -*----------------------------------*\
  =========                 |
  \\      /  F ield         | OpenFOAM: The Open Source CFD Toolbox
   \\    /   O peration     | Website:  https://openfoam.org
    \\  /    A nd           | Version:  7
     \\/     M anipulation  |
\*---------------------------------------------------------------------------*/
FoamFile
{
    version     2.0;
    format      ascii;
    class       volScalarField;
    location    "1.5";
    object      p;
}
// * * * * * * * * * * * * * * * * * * * * * * * * * * * * * * * * * * * * * //

dimensions      [0 2 -2 0 0 0 0];

internalField   nonuniform List<scalar> 
900
(
-2.13558e-08
-0.000137564
-0.000231436
-0.000271774
-0.000236019
-0.000118136
7.92925e-05
0.000351485
0.000693488
0.00110034
0.00156681
0.00208709
0.00265455
0.00326158
0.00389952
0.00455863
0.00522809
0.00589612
0.00655008
0.00717671
0.0077623
0.00829306
0.00875536
0.00913609
0.00942324
0.009607
0.00968288
0.00965897
0.00956372
0.00941304
0.000136268
-2.47508e-06
-6.7861e-05
-7.9433e-05
-2.84203e-05
9.23248e-05
0.000283481
0.000543144
0.000868353
0.00125533
0.00169952
0.0021955
0.00273696
0.00331656
0.00392591
0.00455557
0.00519503
0.00583293
0.00645704
0.00705459
0.00761247
0.00811765
0.00855758
0.00892084
0.00919794
0.00938238
0.00947326
0.00947995
0.00941612
0.009265
0.000232701
5.97534e-05
-7.75994e-06
-1.42531e-05
3.99145e-05
0.000160561
0.000348488
0.000602375
0.000919961
0.00129807
0.00173259
0.00221846
0.00274965
0.00331904
0.00391846
0.0045386
0.00516918
0.00579882
0.00641543
0.00700625
0.00755823
0.0080584
0.00849435
0.00885494
0.00913107
0.00931659
0.00941062
0.00942142
0.00935359
0.00916504
0.000276884
6.46374e-05
-1.37438e-05
-2.29484e-05
3.00861e-05
0.000149495
0.000335393
0.000586387
0.000900502
0.00127495
0.00170598
0.00218888
0.00271787
0.00328608
0.00388548
0.00450688
0.00513998
0.00577338
0.00639483
0.00699134
0.00754956
0.00805612
0.00849825
0.00886442
0.00914509
0.00933347
0.00942774
0.00943477
0.00935338
0.0091221
0.000242382
-1.20561e-06
-9.08531e-05
-0.000104981
-5.44998e-05
6.3591e-05
0.000248752
0.000499396
0.000813689
0.00118911
0.00162222
0.00210859
0.00264271
0.00321789
0.00382625
0.00445858
0.00510457
0.00575258
0.00639001
0.00700339
0.0075787
0.00810185
0.00855921
0.0089384
0.00922894
0.00942308
0.00951797
0.00951976
0.00942441
0.00915808
0.000118052
-0.000150445
-0.000250658
-0.00027027
-0.000222477
-0.000104905
8.14217e-05
0.000334736
0.000653284
0.00103476
0.00147598
0.00197278
0.00251988
0.00311078
0.00373765
0.0043913
0.00506122
0.00573543
0.00640075
0.00704296
0.00764707
0.00819783
0.0086803
0.00908073
0.00938735
0.00959115
0.00968841
0.00968517
0.00957649
0.00928047
-9.96193e-05
-0.000390007
-0.000500216
-0.000525109
-0.000479368
-0.000360928
-0.000171155
8.80554e-05
0.000415034
0.000807672
0.00126305
0.00177726
0.00234525
0.00296069
0.00361582
0.00430139
0.00500662
0.00571907
0.0064248
0.00710856
0.00775403
0.00834435
0.00886279
0.00929373
0.0096236
0.00984192
0.00994414
0.00993673
0.00981488
0.00949031
-0.000412996
-0.000725265
-0.000845389
-0.000875139
-0.000830483
-0.000709525
-0.000513885
-0.000245541
9.39566e-05
0.000502726
0.000978132
0.00151656
0.00211321
0.00276195
0.0034551
0.00418336
0.00493563
0.00569889
0.00645832
0.00719734
0.00789795
0.00854119
0.00910794
0.00958008
0.00994169
0.0101804
0.0102908
0.0102803
0.0101445
0.00978881
-0.0008257
-0.00116205
-0.00129262
-0.00132691
-0.00128236
-0.00115721
-0.000953313
-0.000672713
-0.000316799
0.000112826
0.000613865
0.00118305
0.00181593
0.00250661
0.00324758
0.00402948
0.00484093
0.00566833
0.00649578
0.00730518
0.00807642
0.0087879
0.0094174
0.00994349
0.0103471
0.0106134
0.0107359
0.0107231
0.0105717
0.0101794
-0.00134325
-0.00170737
-0.00184945
-0.00188822
-0.00184291
-0.001712
-0.00149762
-0.00120187
-0.000825933
-0.000371076
0.000160826
0.000766957
0.00144329
0.00218432
0.00298279
0.00382944
0.00471267
0.00561831
0.00652935
0.00742596
0.00828551
0.00908312
0.00979263
0.0103882
0.0108466
0.0111494
0.0112888
0.0112745
0.0111046
0.0106677
-0.0019732
-0.00236985
-0.00252494
-0.00256835
-0.00252162
-0.00238355
-0.00215668
-0.00184319
-0.00144403
-0.000960021
-0.000392529
0.000256204
0.000982733
0.0017821
0.00264751
0.00356998
0.00453788
0.00553663
0.00654817
0.00755076
0.00851894
0.00942383
0.0102342
0.0109186
0.0114478
0.0117987
0.0119609
0.011946
0.0117538
0.0112618
-0.0027252
-0.00316005
-0.00333004
-0.00337847
-0.00332978
-0.00318335
-0.00294226
-0.00260881
-0.00218366
-0.00166714
-0.00105997
-0.00036367
0.000419093
0.00128413
0.00222538
0.00323442
0.00429993
0.00540723
0.00653739
0.00766685
0.00876699
0.00980426
0.0107411
0.0115385
0.0121593
0.0125734
0.0127665
0.0127519
0.0125322
0.0119714
-0.00361104
-0.00409079
-0.00427793
-0.00433188
-0.00428081
-0.00412495
-0.00386813
-0.00351285
-0.00305949
-0.00250776
-0.0018576
-0.00110965
-0.000265583
0.000671466
0.0016965
0.0028021
0.00397773
0.00520914
0.00647697
0.00775616
0.00901489
0.0102143
0.0113092
0.0122505
0.0129901
0.0134877
0.0137229
0.0137103
0.0134558
0.0128081
-0.00464495
-0.00517754
-0.0053844
-0.00544443
-0.0053905
-0.00522415
-0.00495025
-0.00457163
-0.00408834
-0.00349941
-0.00280388
-0.00200129
-0.00109213
-7.81384e-05
0.00103716
0.00224789
0.00354495
0.00491534
0.00634011
0.00779337
0.00924055
0.0106371
0.0119287
0.0130537
0.0139486
0.0145581
0.0148514
0.0148436
0.0145448
0.0137847
-0.00584392
-0.00643897
-0.00666846
-0.00673495
-0.00667742
-0.00649931
-0.00620698
-0.00580372
-0.00528926
-0.00466187
-0.00391955
-0.00306065
-0.00208419
-0.000990234
0.000219653
0.00154178
0.00296928
0.00449157
0.00609136
0.00774339
0.00941137
0.0110455
0.0125812
0.0139409
0.0150405
0.0158022
0.0161782
0.0161806
0.0158244
0.0149149
-0.0072284
-0.00789783
-0.00815309
-0.00822595
-0.00816339
-0.00797169
-0.00765923
-0.00723002
-0.00668345
-0.00601697
-0.00522749
-0.00431201
-0.00326793
-0.0020934
-0.000787563
0.000648739
0.00221181
0.00389512
0.00568473
0.00755825
0.00947998
0.0113965
0.0132329
0.0148929
0.0162648
0.0172376
0.0177349
0.0177588
0.0173277
0.0162123
-0.00882327
-0.00958223
-0.00986643
-0.00994448
-0.00987414
-0.00966584
-0.00933074
-0.00887383
-0.00829419
-0.0075884
-0.00675221
-0.00578126
-0.00467134
-0.00341849
-0.00201919
-0.0004708
0.00122766
0.0030742
0.00506176
0.00717369
0.00937877
0.0116238
0.013826
0.0158689
0.0176054
0.0188767
0.0195585
0.0196285
0.0191005
0.0176893
-0.0106595
-0.0115277
-0.0118435
-0.0119235
-0.0118401
-0.0116101
-0.0112482
-0.0107608
-0.0101466
-0.00940116
-0.00851918
-0.00749501
-0.00632295
-0.00499714
-0.00351144
-0.00185925
-3.39534e-05
0.00196857
0.0041508
0.00650597
0.00901341
0.0116274
0.014264
0.0167892
0.019015
0.0207159
0.0216893
0.0218591
0.0212117
0.0193597
-0.0127769
-0.0137802
-0.0141289
-0.0142034
-0.0140977
-0.0138371
-0.0134416
-0.0129189
-0.0122671
-0.0114809
-0.0105537
-0.00947901
-0.00825
-0.0068594
-0.00529884
-0.00355822
-0.00162539
0.000512477
0.00286864
0.0054506
0.00825685
0.0112607
0.0143908
0.0175078
0.0203849
0.0227106
0.0241594
0.0245452
0.0237712
0.0212469
-0.0152284
-0.0164017
-0.0167805
-0.0168348
-0.01669
-0.0163843
-0.015944
-0.0153778
-0.014683
-0.0138526
-0.0128793
-0.011756
-0.0104754
-0.00902994
-0.00741012
-0.00560347
-0.00359327
-0.0013584
0.00112718
0.0038865
0.00694805
0.0103197
0.0139658
0.0177706
0.0214907
0.0247221
0.0269593
0.0278074
0.0269609
0.0234166
-0.018089
-0.0194779
-0.0198749
-0.0198808
-0.0196685
-0.0192943
-0.0187913
-0.0181683
-0.0174205
-0.0165389
-0.0155152
-0.0143421
-0.0130134
-0.0115225
-0.00986088
-0.0080161
-0.00596921
-0.00369177
-0.00114748
0.00169227
0.00490451
0.00854516
0.0126458
0.0171664
0.0219102
0.0264171
0.029955
0.0317645
0.0310736
0.0260564
-0.0214714
-0.0231327
-0.0235158
-0.0234205
-0.0230929
-0.0226131
-0.0220198
-0.0213192
-0.0205018
-0.0195555
-0.0184707
-0.0172409
-0.0158619
-0.0143306
-0.0126421
-0.010788
-0.00875193
-0.00650279
-0.00397685
-0.00121651
0.00196643
0.0056666
0.0100125
0.0151145
0.0209463
0.0271258
0.0327294
0.0364389
0.0365334
0.0296534
-0.025559
-0.0275504
-0.0278431
-0.0275497
-0.0270278
-0.0263851
-0.0256599
-0.0248495
-0.0239358
-0.0229014
-0.0217349
-0.0204312
-0.0189898
-0.0174129
-0.015703
-0.0138602
-0.0118795
-0.00974959
-0.00745792
-0.00483741
-0.00190488
0.00153174
0.00572335
0.0110072
0.0177076
0.0258036
0.03443
0.0416006
0.0438657
0.035347
-0.0306756
-0.0330134
-0.0330435
-0.0323747
-0.0315293
-0.0306356
-0.029716
-0.028747
-0.0276951
-0.0265347
-0.0252516
-0.0238425
-0.0223117
-0.0206689
-0.0189259
-0.0170947
-0.0151849
-0.0132006
-0.0111321
-0.00891901
-0.00648429
-0.00368097
-0.000160077
0.00466983
0.0116507
0.0215197
0.0340296
0.0467975
0.0537448
0.0455488
-0.0374367
-0.0399566
-0.0393459
-0.0379821
-0.0366025
-0.035323
-0.0341147
-0.0329134
-0.0316607
-0.0303183
-0.0288679
-0.0273076
-0.025647
-0.0239034
-0.0220989
-0.0202583
-0.0184077
-0.0165729
-0.0147749
-0.0130114
-0.0112318
-0.00928671
-0.00682455
-0.00301675
0.00355458
0.0147182
0.0315449
0.0521497
0.0675506
0.0646578
-0.0471024
-0.0490321
-0.0469521
-0.0443312
-0.0420809
-0.0402088
-0.0385717
-0.0370348
-0.0355005
-0.0339107
-0.0322397
-0.0304845
-0.0286576
-0.0267821
-0.0248879
-0.0230101
-0.0211883
-0.0194666
-0.0178911
-0.0165006
-0.0152919
-0.0141266
-0.0126176
-0.00977701
-0.00369807
0.00853431
0.029791
0.0600999
0.088633
0.0990662
-0.0626127
-0.0611523
-0.0558168
-0.0509866
-0.0473469
-0.0445865
-0.042341
-0.0403644
-0.0384928
-0.0366315
-0.0347358
-0.0327942
-0.0308163
-0.0288254
-0.026854
-0.0249414
-0.0231329
-0.0214789
-0.020031
-0.0188287
-0.0178647
-0.0169963
-0.0156571
-0.0127015
-0.00582179
0.00866448
0.035049
0.0769229
0.123117
0.157506
-0.0913775
-0.0770221
-0.0653995
-0.0568315
-0.0510534
-0.0470943
-0.0441297
-0.0417322
-0.0396106
-0.0375966
-0.0356062
-0.0336069
-0.0315979
-0.029598
-0.0276379
-0.0257556
-0.0239942
-0.0223963
-0.0209946
-0.0197883
-0.018694
-0.0174415
-0.0152487
-0.0105946
-0.000692156
0.0189578
0.0541132
0.110274
0.178687
0.258584
-0.144186
-0.092198
-0.072924
-0.0587632
-0.0502608
-0.0452711
-0.042075
-0.0397558
-0.037836
-0.0360656
-0.0343208
-0.0325514
-0.0307512
-0.0289387
-0.0271466
-0.025414
-0.0237807
-0.0222779
-0.0209089
-0.0196066
-0.0181533
-0.0160503
-0.0123173
-0.0049366
0.00954326
0.0367949
0.0842406
0.161292
0.266471
0.438187
-0.315425
-0.10125
-0.0545578
-0.0394564
-0.0327133
-0.0302691
-0.0298534
-0.029996
-0.0300589
-0.0298481
-0.0293296
-0.028527
-0.0274915
-0.0262871
-0.0249809
-0.0236364
-0.0223081
-0.0210303
-0.0197963
-0.0185158
-0.0169395
-0.0145186
-0.0101305
-0.00147594
0.0151837
0.0465984
0.103177
0.207067
0.378863
0.724205
)
;

boundaryField
{
    movingWall
    {
        type            zeroGradient;
    }
    fixedWalls
    {
        type            zeroGradient;
    }
    frontAndBack
    {
        type            empty;
    }
}


// ************************************************************************* //
