/*--------------------------------*- C++ -*----------------------------------*\
  =========                 |
  \\      /  F ield         | OpenFOAM: The Open Source CFD Toolbox
   \\    /   O peration     | Website:  https://openfoam.org
    \\  /    A nd           | Version:  7
     \\/     M anipulation  |
\*---------------------------------------------------------------------------*/
FoamFile
{
    version     2.0;
    format      ascii;
    class       surfaceScalarField;
    location    "1.5";
    object      phi;
}
// * * * * * * * * * * * * * * * * * * * * * * * * * * * * * * * * * * * * * //

dimensions      [0 3 -1 0 0 0 0];

internalField   nonuniform List<scalar> 
1740
(
-4.5453e-08
4.54722e-08
-1.69914e-06
1.65369e-06
-4.71029e-06
3.01115e-06
-8.46587e-06
3.75558e-06
-1.25039e-05
4.03804e-06
-1.65393e-05
4.03541e-06
-2.04134e-05
3.87409e-06
-2.40385e-05
3.62504e-06
-2.7359e-05
3.32051e-06
-3.03315e-05
2.97251e-06
-3.29163e-05
2.58482e-06
-3.50752e-05
2.15893e-06
-3.67715e-05
1.69627e-06
-3.79706e-05
1.19907e-06
-3.86412e-05
6.70598e-07
-3.87564e-05
1.15241e-07
-3.8295e-05
-4.6146e-07
-3.72426e-05
-1.05235e-06
-3.55937e-05
-1.64895e-06
-3.33523e-05
-2.24132e-06
-3.05345e-05
-2.81786e-06
-2.717e-05
-3.36444e-06
-2.33081e-05
-3.8619e-06
-1.90281e-05
-4.28002e-06
-1.44621e-05
-4.566e-06
-9.83386e-06
-4.62824e-06
-5.50912e-06
-4.32474e-06
-2.0347e-06
-3.47442e-06
-9.99536e-08
-1.93475e-06
-9.99514e-08
-1.65564e-06
1.70111e-06
-6.66445e-06
6.6625e-06
-1.40979e-05
1.04446e-05
-2.29549e-05
1.26126e-05
-3.24058e-05
1.34889e-05
-4.18743e-05
1.35039e-05
-5.09948e-05
1.29946e-05
-5.95384e-05
1.21686e-05
-6.73507e-05
1.11329e-05
-7.43141e-05
9.93588e-06
-8.03285e-05
8.5992e-06
-8.5304e-05
7.13441e-06
-8.91587e-05
5.55094e-06
-9.18189e-05
3.85933e-06
-9.32209e-05
2.07257e-06
-9.33122e-05
2.06563e-07
-9.20545e-05
-1.71915e-06
-8.94259e-05
-3.68096e-06
-8.54243e-05
-5.6505e-06
-8.00707e-05
-7.59495e-06
-7.34133e-05
-9.47529e-06
-6.55346e-05
-1.12431e-05
-5.6564e-05
-1.28325e-05
-4.67014e-05
-1.41427e-05
-3.6258e-05
-1.50093e-05
-2.57171e-05
-1.51691e-05
-1.57973e-05
-1.42446e-05
-7.47483e-06
-1.17969e-05
-1.87439e-06
-7.53518e-06
-1.97435e-06
-3.09706e-06
4.79817e-06
-1.07227e-05
1.42882e-05
-2.1385e-05
2.11069e-05
-3.37732e-05
2.50008e-05
-4.68583e-05
2.6574e-05
-5.99185e-05
2.65641e-05
-7.24801e-05
2.55562e-05
-8.42328e-05
2.39214e-05
-9.49606e-05
2.18606e-05
-0.000104497
1.94726e-05
-0.000112704
1.6806e-05
-0.000119459
1.38894e-05
-0.000124654
1.07457e-05
-0.000128193
7.39862e-06
-0.000129996
3.87557e-06
-0.00013
2.09973e-07
-0.000128156
-3.56247e-06
-0.000124445
-7.39261e-06
-0.000118868
-1.12269e-05
-0.000111461
-1.50016e-05
-0.000102296
-1.86408e-05
-9.14895e-05
-2.20496e-05
-7.92223e-05
-2.50996e-05
-6.57659e-05
-2.7599e-05
-5.15303e-05
-2.9245e-05
-3.71305e-05
-2.9569e-05
-2.34586e-05
-2.79164e-05
-1.17189e-05
-2.35366e-05
-3.36942e-06
-1.58847e-05
-5.34377e-06
-4.02753e-06
8.8257e-06
-1.35107e-05
2.37713e-05
-2.64507e-05
3.40469e-05
-4.12664e-05
3.98165e-05
-5.67867e-05
4.20943e-05
-7.22092e-05
4.19866e-05
-8.70071e-05
4.03541e-05
-0.00010083
3.77446e-05
-0.00011343
3.44607e-05
-0.000124615
3.06568e-05
-0.000134222
2.64131e-05
-0.000142111
2.17789e-05
-0.00014816
1.6794e-05
-0.000152259
1.14981e-05
-0.000154319
5.93546e-06
-0.000154269
1.59846e-07
-0.000152056
-5.77509e-06
-0.000147658
-1.17908e-05
-0.000141079
-1.78054e-05
-0.000132361
-2.37197e-05
-0.000121587
-2.94152e-05
-0.000108893
-3.47435e-05
-9.44878e-05
-3.95048e-05
-7.86817e-05
-4.34052e-05
-6.19372e-05
-4.59895e-05
-4.49416e-05
-4.65645e-05
-2.8692e-05
-4.4166e-05
-1.45603e-05
-3.76683e-05
-4.29633e-06
-2.61486e-05
-9.6401e-06
-4.59676e-06
1.34225e-05
-1.53564e-05
3.45309e-05
-2.99088e-05
4.85994e-05
-4.6444e-05
5.63517e-05
-6.3672e-05
5.93223e-05
-8.07322e-05
5.90468e-05
-9.70672e-05
5.66891e-05
-0.000112307
5.29847e-05
-0.000126189
4.83419e-05
-0.000138505
4.29729e-05
-0.000149083
3.69911e-05
-0.000157772
3.04678e-05
-0.000164438
2.34607e-05
-0.000168967
1.60262e-05
-0.000171258
8.22641e-06
-0.000171234
1.36153e-07
-0.000168835
-8.17398e-06
-0.000164032
-1.65939e-05
-0.000156825
-2.50122e-05
-0.000147253
-3.3292e-05
-0.0001354
-4.12683e-05
-0.000121409
-4.87342e-05
-0.000105503
-5.54113e-05
-8.80138e-05
-6.08941e-05
-6.94412e-05
-6.45621e-05
-5.05284e-05
-6.54772e-05
-3.23638e-05
-6.23307e-05
-1.64729e-05
-5.35592e-05
-4.8616e-06
-3.77599e-05
-1.45017e-05
-4.97812e-06
1.84006e-05
-1.66852e-05
4.6238e-05
-3.24846e-05
6.43988e-05
-5.03746e-05
7.42417e-05
-6.89563e-05
7.79041e-05
-8.73153e-05
7.74057e-05
-0.000104869
7.42426e-05
-0.000121234
6.93502e-05
-0.00013614
6.32475e-05
-0.000149373
5.62056e-05
-0.000160753
4.83714e-05
-0.000170123
3.98384e-05
-0.000177344
3.06817e-05
-0.000182292
2.09739e-05
-0.000184859
1.07931e-05
-0.000184957
2.33915e-07
-0.000182514
-1.06163e-05
-0.00017749
-2.1618e-05
-0.000169872
-3.26303e-05
-0.000159687
-4.3477e-05
-0.000147011
-5.39439e-05
-0.000131985
-6.37599e-05
-0.000114837
-7.25596e-05
-9.59175e-05
-7.98136e-05
-7.57614e-05
-8.47182e-05
-5.51751e-05
-8.60636e-05
-3.5349e-05
-8.21567e-05
-1.79683e-05
-7.09399e-05
-5.27018e-06
-5.04581e-05
-1.97719e-05
-5.29992e-06
2.37005e-05
-1.7839e-05
5.87771e-05
-3.47643e-05
8.13241e-05
-5.39021e-05
9.33795e-05
-7.37467e-05
9.77487e-05
-9.33263e-05
9.69854e-05
-0.000112031
9.29475e-05
-0.000129467
8.67859e-05
-0.000145356
7.91361e-05
-0.00015948
7.03304e-05
-0.000171659
6.05495e-05
-0.000181728
4.9908e-05
-0.000189544
3.84971e-05
-0.000194973
2.64035e-05
-0.000197899
1.37189e-05
-0.000198218
5.53137e-07
-0.000195845
-1.29891e-05
-0.000190718
-2.67452e-05
-0.000182804
-4.05445e-05
-0.000172109
-5.41718e-05
-0.000158693
-6.73604e-05
-0.000142684
-7.97686e-05
-0.000124311
-9.09326e-05
-0.000103943
-0.000100181
-8.21591e-05
-0.000106502
-5.98437e-05
-0.000108379
-3.83123e-05
-0.000103688
-1.94289e-05
-8.98232e-05
-5.66214e-06
-6.42249e-05
-2.5434e-05
-5.63989e-06
2.93404e-05
-1.90412e-05
7.21784e-05
-3.71396e-05
9.94224e-05
-5.75893e-05
0.000113829
-7.87722e-05
0.000118932
-9.96534e-05
0.000117866
-0.000119592
0.000112886
-0.00013818
0.000105374
-0.000155134
9.609e-05
-0.000170234
8.54313e-05
-0.000183297
7.36124e-05
-0.000194158
6.07686e-05
-0.000202666
4.70046e-05
-0.00020868
3.24179e-05
-0.000212071
1.71102e-05
-0.000212718
1.2003e-06
-0.000210516
-1.51918e-05
-0.000205373
-3.18876e-05
-0.000197228
-4.86893e-05
-0.000186057
-6.53435e-05
-0.000171889
-8.15286e-05
-0.000154833
-9.6824e-05
-0.000135113
-0.000110653
-0.000113117
-0.000122177
-8.94778e-05
-0.000130142
-6.51804e-05
-0.000132676
-4.16956e-05
-0.000127173
-2.10998e-05
-0.000110419
-6.11856e-06
-7.92061e-05
-3.15526e-05
-6.03923e-06
3.53796e-05
-2.04217e-05
8.65609e-05
-3.98455e-05
0.000118846
-6.17765e-05
0.00013576
-8.44717e-05
0.000141627
-0.000106825
0.00014022
-0.00012816
0.000134221
-0.000148054
0.000125268
-0.000166218
0.000114254
-0.000182433
0.000101646
-0.000196515
8.76935e-05
-0.000208296
7.25503e-05
-0.000217624
5.63326e-05
-0.00022435
3.91442e-05
-0.000228331
2.1091e-05
-0.000229426
2.29461e-06
-0.0002275
-1.71175e-05
-0.00022243
-3.6958e-05
-0.000214111
-5.70078e-05
-0.000202476
-7.69787e-05
-0.000187512
-9.64926e-05
-0.000169295
-0.000115041
-0.000148033
-0.000131914
-0.000124133
-0.000146077
-9.82934e-05
-0.000155982
-7.16244e-05
-0.000159345
-4.57921e-05
-0.000153005
-2.31341e-05
-0.000133077
-6.68377e-06
-9.56564e-05
-3.82363e-05
-6.51955e-06
4.18992e-05
-2.20551e-05
0.000102096
-4.30221e-05
0.000139813
-6.66679e-05
0.000159406
-9.11072e-05
0.000166066
-0.000115153
0.000164265
-0.000138089
0.000157158
-0.000159477
0.000146656
-0.000179026
0.000133803
-0.000196517
0.000119137
-0.00021177
0.000102946
-0.000224621
8.54011e-05
-0.000234914
6.66264e-05
-0.000242497
4.67267e-05
-0.00024721
2.58046e-05
-0.000248892
3.97573e-06
-0.000247373
-1.86358e-05
-0.000242487
-4.18445e-05
-0.000234075
-6.54198e-05
-0.000222008
-8.90456e-05
-0.000206212
-0.000112288
-0.000186711
-0.000134542
-0.000163683
-0.000154943
-0.000137546
-0.000172214
-0.000109072
-0.000184456
-7.95298e-05
-0.000188888
-5.08318e-05
-0.000181703
-2.56451e-05
-0.000158264
-7.38664e-06
-0.000113915
-4.5623e-05
-7.09478e-06
4.8994e-05
-2.39921e-05
0.000118994
-4.67651e-05
0.000162586
-7.24033e-05
0.000185044
-9.88551e-05
0.000192518
-0.000124842
0.000190252
-0.000149605
0.00018192
-0.00017269
0.000169742
-0.000193806
0.000154919
-0.000212742
0.000138073
-0.000229325
0.000119529
-0.0002434
9.94758e-05
-0.000254815
7.80412e-05
-0.000263413
5.53247e-05
-0.000269024
3.1416e-05
-0.000271461
6.41271e-06
-0.000270518
-1.95785e-05
-0.000265973
-4.63898e-05
-0.000257598
-7.37945e-05
-0.000245183
-0.000101461
-0.000228563
-0.000128907
-0.000207682
-0.000155424
-0.00018266
-0.000179964
-0.000153913
-0.00020096
-0.000122295
-0.000216073
-8.92657e-05
-0.000221917
-5.70524e-05
-0.000213916
-2.8747e-05
-0.000186569
-8.2547e-06
-0.000134407
-5.38777e-05
-7.77807e-06
5.6772e-05
-2.62784e-05
0.000137494
-5.11601e-05
0.000187468
-7.91044e-05
0.000212988
-0.000107866
0.000221279
-0.000136061
0.000218447
-0.000162886
0.000208745
-0.000187874
0.00019473
-0.00021074
0.000177785
-0.000231285
0.000158618
-0.000249353
0.000137598
-0.000264806
0.000114928
-0.000277502
9.07372e-05
-0.000287287
6.51104e-05
-0.000293985
3.81137e-05
-0.000297384
9.8116e-06
-0.000297237
-1.97259e-05
-0.000293256
-5.03709e-05
-0.000285126
-8.19238e-05
-0.000272527
-0.00011406
-0.000255172
-0.000146263
-0.000232875
-0.000177721
-0.000205662
-0.000207178
-0.000173914
-0.000232708
-0.000138563
-0.000251425
-0.000101299
-0.000259181
-6.47576e-05
-0.000250458
-3.25856e-05
-0.000218741
-9.32293e-06
-0.00015767
-6.32006e-05
-8.58563e-06
6.53576e-05
-2.89676e-05
0.000157876
-5.63034e-05
0.000214804
-8.69053e-05
0.00024359
-0.0001183
0.000252674
-0.000148985
0.000249132
-0.000178109
0.00023787
-0.000205201
0.000221821
-0.000229986
0.00020257
-0.000252291
0.000180923
-0.000271988
0.000157294
-0.000288962
0.000131903
-0.000303098
0.000104872
-0.000314253
7.62656e-05
-0.00032225
4.61108e-05
-0.000326859
1.44209e-05
-0.000327791
-1.87944e-05
-0.000324683
-5.34788e-05
-0.000317114
-8.94924e-05
-0.000304621
-0.000126554
-0.000286742
-0.000164142
-0.000263108
-0.000201355
-0.000233578
-0.000236708
-0.000198442
-0.000267843
-0.000158689
-0.000291178
-0.000116282
-0.000301588
-7.43787e-05
-0.000292361
-3.73698e-05
-0.00025575
-1.06412e-05
-0.000184398
-7.38419e-05
-9.53966e-06
7.48973e-05
-3.213e-05
0.000180466
-6.23181e-05
0.000244992
-9.59722e-05
0.000277245
-0.00013035
0.000287052
-0.000163818
0.0002826
-0.000195478
0.000269529
-0.000224858
0.000251201
-0.000251711
0.000229424
-0.000275902
0.000205114
-0.000297344
0.000178736
-0.000315966
0.000150525
-0.000331687
0.000120594
-0.000344396
8.89741e-05
-0.000353926
5.5641e-05
-0.000360039
2.05342e-05
-0.000362408
-1.64261e-05
-0.00036059
-5.52962e-05
-0.000354041
-9.6042e-05
-0.000342114
-0.00013848
-0.000324118
-0.000182139
-0.000299408
-0.000226064
-0.000267578
-0.000268539
-0.000228727
-0.000306694
-0.000183838
-0.000336067
-0.000135173
-0.000350253
-8.65655e-05
-0.000340968
-4.34188e-05
-0.000298897
-1.22853e-05
-0.000215532
-8.61272e-05
-1.06716e-05
8.55689e-05
-3.58623e-05
0.000205657
-6.93696e-05
0.000278499
-0.000106523
0.000314398
-0.000144266
0.000324795
-0.000180817
0.000319151
-0.000215234
0.000303947
-0.000247063
0.00028303
-0.000276098
0.000258459
-0.00030226
0.000231276
-0.000325525
0.000202
-0.000345883
0.000170884
-0.000363313
0.000138023
-0.000377749
0.00010341
-0.000389058
6.69504e-05
-0.000397011
2.84872e-05
-0.000401255
-1.21816e-05
-0.000401274
-5.52777e-05
-0.000396384
-0.000100932
-0.000385724
-0.00014914
-0.000368296
-0.000199567
-0.000343072
-0.000251288
-0.000309221
-0.00030239
-0.000266486
-0.00034943
-0.000215709
-0.000386844
-0.000159432
-0.00040653
-0.000102342
-0.000398058
-5.12478e-05
-0.000349991
-1.43783e-05
-0.000252401
-0.000100506
-1.20268e-05
9.75957e-05
-4.03007e-05
0.000233931
-7.76849e-05
0.000315883
-0.000118852
0.000355565
-0.000160372
0.000366315
-0.000200305
0.000359084
-0.00023768
0.000341322
-0.000272075
0.000317425
-0.000303352
0.000289736
-0.000331512
0.000259436
-0.000356618
0.000227106
-0.000378746
0.000193013
-0.000397959
0.000157236
-0.000414267
0.000119717
-0.000427596
8.02796e-05
-0.000437753
3.86447e-05
-0.000444394
-5.54055e-06
-0.000446936
-5.27354e-05
-0.000444569
-0.000103299
-0.000436189
-0.00015752
-0.000420417
-0.000215339
-0.000395702
-0.000276004
-0.000360574
-0.000337517
-0.00031414
-0.000395864
-0.000256833
-0.000444151
-0.000191344
-0.000472019
-0.000123382
-0.00046602
-6.17317e-05
-0.000411641
-1.71368e-05
-0.000296996
-0.000117642
-1.3672e-05
0.000111268
-4.56401e-05
0.000265899
-8.75809e-05
0.000357824
-0.000133354
0.000401338
-0.000179097
0.000412058
-0.000222703
0.00040269
-0.000263192
0.00038181
-0.000300206
0.000354439
-0.000333707
0.000323237
-0.000363807
0.000289536
-0.000390684
0.000253983
-0.000414534
0.000216862
-0.000435531
0.000178233
-0.000453794
0.000137981
-0.000469349
9.58343e-05
-0.000482076
5.1372e-05
-0.000491695
4.07782e-06
-0.000497585
-4.68451e-05
-0.000498854
-0.000102031
-0.000494154
-0.00016222
-0.000481674
-0.000227819
-0.000459183
-0.000298495
-0.000424289
-0.000372411
-0.000375036
-0.000445118
-0.000310953
-0.000508234
-0.000234501
-0.000548471
-0.000152474
-0.000548047
-7.64077e-05
-0.000487708
-2.09665e-05
-0.000352437
-0.000138609
-1.57082e-05
0.000126976
-5.2165e-05
0.000302356
-9.9505e-05
0.000405164
-0.000150575
0.000452408
-0.000201009
0.000462492
-0.000248546
0.000450227
-0.000292232
0.000425497
-0.000331823
0.00039403
-0.000367419
0.000358833
-0.000399281
0.000321398
-0.00042774
0.000282441
-0.00045314
0.000242263
-0.000475807
0.0002009
-0.000496006
0.00015818
-0.000513908
0.000113736
-0.000529537
6.70011e-05
-0.000542671
1.72117e-05
-0.000552849
-3.66675e-05
-0.000559101
-9.57789e-05
-0.000559911
-0.000161409
-0.000553036
-0.000234694
-0.000535441
-0.000316089
-0.00050348
-0.000404373
-0.00045353
-0.000495067
-0.000383373
-0.000578391
-0.000294403
-0.000637441
-0.000194201
-0.000648249
-9.79824e-05
-0.000583926
-2.66491e-05
-0.000423771
-0.000165258
-1.82929e-05
0.000145269
-6.02987e-05
0.000344362
-0.000114095
0.00045896
-0.000171256
0.000509569
-0.000226853
0.00051809
-0.000278506
0.000501879
-0.000325356
0.000472347
-0.000367334
0.000436008
-0.000404734
0.000396233
-0.000438012
0.000354677
-0.000467688
0.000312117
-0.000494293
0.000268868
-0.000518337
0.000224943
-0.000540275
0.000180118
-0.000560471
0.000133933
-0.000579151
8.56805e-05
-0.000596309
3.43701e-05
-0.000611649
-2.13272e-05
-0.000624341
-8.30877e-05
-0.00063284
-0.000152909
-0.000634581
-0.000232954
-0.000625706
-0.000324965
-0.000601008
-0.00042907
-0.000554452
-0.000541623
-0.000480792
-0.000652051
-0.000378765
-0.000739468
-0.000255631
-0.000771384
-0.000131035
-0.000708522
-3.56631e-05
-0.000519143
-0.000200921
-2.16801e-05
0.000166949
-7.06813e-05
0.000393363
-0.000132263
0.000520543
-0.000196404
0.000573709
-0.00025758
0.000579266
-0.000313383
0.000557682
-0.000363158
0.000522123
-0.000407101
0.000479951
-0.00044577
0.000434902
-0.000479867
0.000388773
-0.00051014
0.00034239
-0.00053734
0.000296068
-0.000562196
0.000249799
-0.000585387
0.000203309
-0.000607521
0.000156068
-0.000629095
0.000107254
-0.000650421
5.56959e-05
-0.000671523
-2.24818e-07
-0.000691913
-6.26977e-05
-0.000710299
-0.000134523
-0.000724075
-0.000219177
-0.000728752
-0.000320288
-0.000717455
-0.000440367
-0.000681011
-0.000578068
-0.000609504
-0.000723558
-0.000496471
-0.000852501
-0.000346275
-0.000921579
-0.000182638
-0.000872159
-5.06589e-05
-0.000651122
-0.00025158
-2.62943e-05
0.000193243
-8.42952e-05
0.000451364
-0.000155308
0.000591555
-0.000227335
0.000645736
-0.000294314
0.000646245
-0.000353987
0.000617355
-0.000406078
0.000574213
-0.000451169
0.000525042
-0.000490167
0.000473901
-0.000524076
0.000422682
-0.000553914
0.000372227
-0.00058068
0.000322834
-0.000605342
0.000274461
-0.000628828
0.000226795
-0.000652021
0.00017926
-0.00067574
0.000130973
-0.0007007
8.06564e-05
-0.000727405
2.648e-05
-0.000755936
-3.41662e-05
-0.000785656
-0.000104804
-0.000814388
-0.000190445
-0.000837539
-0.000297137
-0.000846896
-0.00043101
-0.000829843
-0.000595121
-0.000770259
-0.000783141
-0.000653218
-0.000969542
-0.000475608
-0.00109919
-0.000262048
-0.00108572
-7.60105e-05
-0.000837159
-0.00032759
-3.28705e-05
0.000226114
-0.000102657
0.00052115
-0.00018502
0.000673918
-0.00026563
0.000726346
-0.00033812
0.000718735
-0.000400724
0.00067996
-0.000453799
0.000627288
-0.000498485
0.000569728
-0.000536136
0.000511552
-0.000568126
0.000454672
-0.000595781
0.000399882
-0.00062037
0.000347423
-0.000643107
0.000297198
-0.000665163
0.000248852
-0.000687688
0.000201785
-0.000711826
0.000155111
-0.000738722
0.000107552
-0.000769484
5.72423e-05
-0.000804806
1.15557e-06
-0.000845275
-6.43345e-05
-0.000889648
-0.000146072
-0.000934135
-0.00025265
-0.000970221
-0.000394924
-0.000982606
-0.000582736
-0.000948579
-0.000817169
-0.000841952
-0.00107617
-0.000645915
-0.00129523
-0.000377867
-0.00135377
-0.000118161
-0.00109687
-0.000445751
-4.27188e-05
0.000268833
-0.000128089
0.00060652
-0.000223701
0.00076953
-0.000312764
0.000815409
-0.000389227
0.000795198
-0.000452404
0.000743137
-0.000503666
0.00067855
-0.000544936
0.000610997
-0.000578157
0.000544774
-0.000605152
0.000481667
-0.0006276
0.000422331
-0.000647052
0.000366875
-0.000664951
0.000315096
-0.000682669
0.00026657
-0.000701556
0.000220672
-0.000722992
0.000176546
-0.000748443
0.000133004
-0.000779488
8.82869e-05
-0.000817892
3.95603e-05
-0.000864796
-1.74307e-05
-0.000920964
-8.99045e-05
-0.000984392
-0.000189222
-0.00104807
-0.000331241
-0.0010965
-0.000534311
-0.00110264
-0.00081103
-0.00102904
-0.00114976
-0.000839559
-0.00148471
-0.000530582
-0.00166274
-0.000184796
-0.00144265
-0.000630548
-5.82333e-05
0.000327066
-0.000164041
0.000712328
-0.000273773
0.000879262
-0.00036884
0.000910476
-0.000444863
0.000871222
-0.000503228
0.000801501
-0.000546891
0.000722213
-0.00057889
0.000642997
-0.000601958
0.000567842
-0.000618483
0.000498192
-0.000630547
0.000434395
-0.000639974
0.000376302
-0.000648381
0.000323504
-0.000657245
0.000275433
-0.00066797
0.000231397
-0.000681983
0.00019056
-0.000700834
0.000151854
-0.000726303
0.000113757
-0.000760574
7.38307e-05
-0.000805687
2.76821e-05
-0.000863933
-3.16583e-05
-0.000936147
-0.000117007
-0.00101902
-0.000248367
-0.00110102
-0.000452312
-0.00115689
-0.000755162
-0.00114344
-0.00116321
-0.00100442
-0.00162373
-0.000699308
-0.00196786
-0.000280137
-0.00186182
-0.000910685
-8.38588e-05
0.000410925
-0.000215225
0.000843694
-0.00033611
0.00100015
-0.000428961
0.00100333
-0.000493831
0.000936091
-0.000535828
0.000843498
-0.000560387
0.000746772
-0.00057216
0.00065477
-0.000574941
0.000570623
-0.000571798
0.000495049
-0.000565214
0.00042781
-0.000557201
0.000368289
-0.000549412
0.000315715
-0.000543236
0.000269257
-0.000539903
0.000228064
-0.000540595
0.000191252
-0.000546571
0.00015783
-0.000559321
0.000126507
-0.000580749
9.5258e-05
-0.000613534
6.04677e-05
-0.000660129
1.49363e-05
-0.000724606
-5.25299e-05
-0.000808862
-0.000164112
-0.000909939
-0.000351236
-0.00101306
-0.000652039
-0.00108155
-0.00109473
-0.00104796
-0.00165731
-0.000826233
-0.00218959
-0.000392706
-0.00229535
-0.00130339
-0.00012791
0.000538835
-0.000286513
0.0010023
-0.000404328
0.00111796
-0.000473471
0.00107247
-0.000503695
0.000966315
-0.000506499
0.000846302
-0.000491058
0.000731331
-0.000464182
0.000627895
-0.00043084
0.000537281
-0.000394634
0.000458843
-0.000358168
0.000391344
-0.000323312
0.000333433
-0.000291402
0.000283805
-0.000263402
0.000241257
-0.000240038
0.0002047
-0.000221913
0.000173127
-0.000209629
0.000145546
-0.000203929
0.000120808
-0.000205916
9.72448e-05
-0.000217387
7.19384e-05
-0.000241754
3.93036e-05
-0.000283209
-1.10751e-05
-0.000349212
-9.81088e-05
-0.000447456
-0.000252992
-0.000580876
-0.000518618
-0.000734716
-0.000940887
-0.000852472
-0.00153956
-0.00081179
-0.00223027
-0.000480052
-0.00262709
-0.00178344
-0.000205923
0.000744758
-0.00037455
0.00117092
-0.000445155
0.00118857
-0.000441409
0.00106873
-0.00039144
0.000916345
-0.000316347
0.00077121
-0.000229459
0.000644443
-0.000139232
0.000537668
-5.08062e-05
0.000448855
3.27673e-05
0.00037527
0.000109762
0.000314349
0.000179307
0.000263889
0.000241073
0.000222038
0.000295068
0.000187262
0.00034149
0.000158278
0.000380617
0.000134
0.00041272
0.000113443
0.00043796
9.55678e-05
0.000456204
7.90004e-05
0.000466646
6.14969e-05
0.000466972
3.89774e-05
0.000451774
4.12329e-06
0.000412188
-5.85229e-05
0.000331563
-0.000172367
0.000188329
-0.000375384
-3.17926e-05
-0.000720765
-0.0003093
-0.00126205
-0.000532937
-0.00200663
-0.000469327
-0.0026907
-0.00225277
-0.000331278
0.00107604
-0.000411475
0.00125112
-0.000325633
0.00110272
-0.000156832
0.000899924
4.03245e-05
0.000719189
0.000239187
0.000572347
0.000426696
0.000456933
0.00059755
0.000366814
0.000750118
0.000296287
0.000884585
0.000240803
0.00100202
0.000196915
0.00110389
0.00016202
0.00119178
0.000134141
0.00126729
0.00011176
0.00133187
9.36993e-05
0.00138685
7.90193e-05
0.00143337
6.69205e-05
0.00147232
5.66116e-05
0.00150423
4.7091e-05
0.00152891
3.68254e-05
0.00154464
2.32469e-05
0.00154628
2.47986e-06
0.00152435
-3.65895e-05
0.00145929
-0.000107311
0.00131869
-0.000234787
0.00105856
-0.000460634
0.000642688
-0.000846175
0.000129214
-0.00149316
-0.000211043
-0.00235044
-0.00246381
-0.00028901
0.00136505
-2.05043e-05
0.000982615
0.000423211
0.000659009
0.00084636
0.000476775
0.00121807
0.000347477
0.00153549
0.000254931
0.00180257
0.000189853
0.00202564
0.000143744
0.00221148
0.000110451
0.00236627
8.6007e-05
0.00249535
6.78333e-05
0.0026032
5.41763e-05
0.00269353
4.38121e-05
0.00276941
3.58738e-05
0.00283337
2.9737e-05
0.00288746
2.4936e-05
0.00293328
2.10964e-05
0.00297203
1.78642e-05
0.0030043
1.48181e-05
0.00302978
1.13425e-05
0.00304657
6.46562e-06
0.00305071
-1.66682e-06
0.0030317
-1.7581e-05
0.00297031
-4.59147e-05
0.0028322
-9.66819e-05
0.00256193
-0.000190362
0.00208108
-0.000365327
0.00132701
-0.000739088
0.000437119
-0.00146055
-0.00202669
0.00136505
0.00234766
0.00300667
0.00348345
0.00383092
0.00408585
0.00427571
0.00441945
0.0045299
0.00461591
0.00468374
0.00473792
0.00478173
0.0048176
0.00484734
0.00487228
0.00489337
0.00491124
0.00492605
0.0049374
0.00494386
0.0049422
0.00492461
0.0048787
0.00478202
0.00459166
0.00422633
0.00348724
0.00202669
)
;

boundaryField
{
    movingWall
    {
        type            calculated;
        value           uniform 0;
    }
    fixedWalls
    {
        type            calculated;
        value           uniform 0;
    }
    frontAndBack
    {
        type            empty;
        value           nonuniform 0();
    }
}


// ************************************************************************* //
