/*--------------------------------*- C++ -*----------------------------------*\
  =========                 |
  \\      /  F ield         | OpenFOAM: The Open Source CFD Toolbox
   \\    /   O peration     | Website:  https://openfoam.org
    \\  /    A nd           | Version:  7
     \\/     M anipulation  |
\*---------------------------------------------------------------------------*/
FoamFile
{
    version     2.0;
    format      ascii;
    class       volVectorField;
    location    "1.5";
    object      U;
}
// * * * * * * * * * * * * * * * * * * * * * * * * * * * * * * * * * * * * * //

dimensions      [0 1 -1 0 0 0 0];

internalField   nonuniform List<vector> 
900
(
(4.64843e-05 -4.5896e-05 0)
(-7.18868e-05 5.28816e-05 0)
(-0.000499674 0.000142017 0)
(-0.00108221 0.000188086 0)
(-0.00174297 0.00020379 0)
(-0.00242326 0.000202708 0)
(-0.0030869 0.000193594 0)
(-0.00371455 0.000180807 0)
(-0.00429523 0.000165954 0)
(-0.0048212 0.000149381 0)
(-0.0052857 0.00013102 0)
(-0.00568231 0.000110759 0)
(-0.00600477 8.8541e-05 0)
(-0.00624712 6.43913e-05 0)
(-0.00640384 3.84154e-05 0)
(-0.00647005 1.07959e-05 0)
(-0.00644169 -1.82059e-05 0)
(-0.00631576 -4.82434e-05 0)
(-0.00609056 -7.88825e-05 0)
(-0.00576591 -0.000109617 0)
(-0.00534341 -0.00013987 0)
(-0.00482674 -0.000168967 0)
(-0.00422224 -0.000196015 0)
(-0.00354003 -0.000219515 0)
(-0.00279674 -0.00023652 0)
(-0.00202095 -0.000241283 0)
(-0.00126121 -0.000223944 0)
(-0.000589869 -0.000170541 0)
(-9.62778e-05 -6.87644e-05 0)
(4.7131e-05 4.49458e-05 0)
(-5.18441e-05 7.11563e-05 0)
(-0.000555008 0.000552634 0)
(-0.00165273 0.000940866 0)
(-0.00305258 0.0011597 0)
(-0.0046041 0.00124584 0)
(-0.00619812 0.00124702 0)
(-0.00775835 0.001199 0)
(-0.00923752 0.00112274 0)
(-0.0106056 0.00102829 0)
(-0.011841 0.000919736 0)
(-0.0129261 0.000798617 0)
(-0.0138451 0.000665634 0)
(-0.0145838 0.000521402 0)
(-0.0151293 0.000366717 0)
(-0.0154698 0.000202662 0)
(-0.0155959 3.06455e-05 0)
(-0.0154996 -0.000147624 0)
(-0.0151761 -0.000329883 0)
(-0.014623 -0.000513518 0)
(-0.013842 -0.000695465 0)
(-0.0128386 -0.000872108 0)
(-0.0116233 -0.00103901 0)
(-0.0102131 -0.00119011 0)
(-0.00863439 -0.00131601 0)
(-0.00692767 -0.00140067 0)
(-0.00515723 -0.00141729 0)
(-0.00342151 -0.00132573 0)
(-0.00185346 -0.00107717 0)
(-0.000625831 -0.000637879 0)
(-6.09003e-05 -9.36754e-05 0)
(-0.0001448 0.000502236 0)
(-0.000969661 0.00165696 0)
(-0.00257502 0.00251529 0)
(-0.00455277 0.00300938 0)
(-0.00670916 0.0032108 0)
(-0.0089107 0.00321374 0)
(-0.011061 0.00309333 0)
(-0.0130972 0.00289682 0)
(-0.0149778 0.00264927 0)
(-0.0166724 0.00236255 0)
(-0.018156 0.00204225 0)
(-0.0194073 0.0016915 0)
(-0.0204069 0.0013128 0)
(-0.021138 0.000908869 0)
(-0.0215859 0.000482904 0)
(-0.0217384 3.87973e-05 0)
(-0.0215862 -0.000418852 0)
(-0.0211235 -0.000884301 0)
(-0.0203485 -0.00135091 0)
(-0.0192644 -0.00181089 0)
(-0.0178797 -0.00225497 0)
(-0.0162097 -0.00267161 0)
(-0.0142785 -0.00304512 0)
(-0.0121221 -0.00335178 0)
(-0.00979507 -0.00355355 0)
(-0.00738063 -0.0035907 0)
(-0.00500184 -0.00337915 0)
(-0.0028205 -0.00282298 0)
(-0.00105719 -0.00185801 0)
(-0.00015644 -0.00056914 0)
(-0.000199862 0.00111086 0)
(-0.00124616 0.00311501 0)
(-0.0032155 0.00452373 0)
(-0.00559614 0.00532357 0)
(-0.00816236 0.00564452 0)
(-0.0107665 0.00563756 0)
(-0.013302 0.00542197 0)
(-0.0156987 0.0050738 0)
(-0.0179091 0.0046348 0)
(-0.019898 0.00412593 0)
(-0.0216364 0.00355782 0)
(-0.0230996 0.00293687 0)
(-0.0242655 0.00226822 0)
(-0.0251148 0.00155709 0)
(-0.0256311 0.000809387 0)
(-0.0258008 3.20756e-05 0)
(-0.0256135 -0.000766696 0)
(-0.0250627 -0.00157712 0)
(-0.0241469 -0.00238774 0)
(-0.0228696 -0.00318511 0)
(-0.0212409 -0.00395319 0)
(-0.0192786 -0.00467196 0)
(-0.0170105 -0.00531434 0)
(-0.0144782 -0.00584021 0)
(-0.0117437 -0.00618692 0)
(-0.00890029 -0.00625848 0)
(-0.00608491 -0.00592145 0)
(-0.0034777 -0.00502224 0)
(-0.00133516 -0.00344312 0)
(-0.000209642 -0.00122376 0)
(-0.00022936 0.00183719 0)
(-0.00142134 0.00481778 0)
(-0.00364739 0.0068336 0)
(-0.00631419 0.00795581 0)
(-0.0091694 0.00839321 0)
(-0.0120541 0.00836363 0)
(-0.0148553 0.00803462 0)
(-0.0174989 0.0075126 0)
(-0.0199348 0.00685664 0)
(-0.0221253 0.00609721 0)
(-0.0240394 0.0052504 0)
(-0.0256505 0.00432625 0)
(-0.0269348 0.00333285 0)
(-0.0278718 0.00227823 0)
(-0.0284433 0.00117125 0)
(-0.0286347 2.21156e-05 0)
(-0.0284343 -0.00115719 0)
(-0.0278345 -0.00235257 0)
(-0.0268327 -0.0035474 0)
(-0.0254319 -0.00472208 0)
(-0.0236419 -0.00585309 0)
(-0.0214812 -0.00691105 0)
(-0.0189792 -0.0078564 0)
(-0.0161805 -0.00863126 0)
(-0.0131515 -0.00914662 0)
(-0.00999311 -0.00926747 0)
(-0.0068538 -0.00880597 0)
(-0.00393069 -0.00754046 0)
(-0.00151216 -0.00528029 0)
(-0.000236861 -0.00199386 0)
(-0.000246478 0.00263887 0)
(-0.00154224 0.00669749 0)
(-0.00396394 0.0093713 0)
(-0.00685468 0.0108327 0)
(-0.00993868 0.0113849 0)
(-0.013046 0.0113223 0)
(-0.0160577 0.0108651 0)
(-0.018897 0.0101522 0)
(-0.0215124 0.00926049 0)
(-0.0238649 0.00823022 0)
(-0.0259225 0.00708306 0)
(-0.0276575 0.00583275 0)
(-0.0290452 0.00449038 0)
(-0.0300635 0.00306677 0)
(-0.0306934 0.00157366 0)
(-0.0309182 2.4423e-05 0)
(-0.0307248 -0.00156515 0)
(-0.0301034 -0.00317675 0)
(-0.0290493 -0.00478848 0)
(-0.0275635 -0.00637429 0)
(-0.0256541 -0.00790269 0)
(-0.0233386 -0.00933406 0)
(-0.0206464 -0.0106152 0)
(-0.0176238 -0.0116686 0)
(-0.0143418 -0.0123767 0)
(-0.0109089 -0.0125616 0)
(-0.00748681 -0.0119749 0)
(-0.00429206 -0.010317 0)
(-0.00164425 -0.00731039 0)
(-0.000253391 -0.0028407 0)
(-0.000260075 0.00349605 0)
(-0.00164526 0.00871914 0)
(-0.00424115 0.0120993 0)
(-0.00733634 0.0139187 0)
(-0.0106327 0.0145871 0)
(-0.0139485 0.0144834 0)
(-0.0171587 0.0138861 0)
(-0.0201836 0.0129682 0)
(-0.0229702 0.0118257 0)
(-0.0254791 0.0105088 0)
(-0.0276778 0.00904467 0)
(-0.0295376 0.00745075 0)
(-0.0310333 0.00574095 0)
(-0.0321417 0.00392862 0)
(-0.0328421 0.00202806 0)
(-0.0331159 5.54906e-05 0)
(-0.0329474 -0.00197 0)
(-0.032324 -0.00402604 0)
(-0.0312374 -0.00608564 0)
(-0.0296852 -0.00811616 0)
(-0.0276721 -0.0100776 0)
(-0.0252131 -0.0119193 0)
(-0.0223367 -0.0135725 0)
(-0.0190903 -0.0149381 0)
(-0.0155495 -0.0158658 0)
(-0.0118331 -0.0161302 0)
(-0.00811908 -0.0154151 0)
(-0.00464754 -0.0133342 0)
(-0.00177156 -0.00951287 0)
(-0.000268637 -0.00375085 0)
(-0.000274988 0.00440636 0)
(-0.00175324 0.0108776 0)
(-0.00452964 0.0150136 0)
(-0.00783871 0.0172127 0)
(-0.0113593 0.0180008 0)
(-0.0148969 0.0178499 0)
(-0.0183193 0.0171014 0)
(-0.0215433 0.0159654 0)
(-0.0245149 0.0145581 0)
(-0.027194 0.0129399 0)
(-0.0295477 0.0111439 0)
(-0.0315474 0.00919081 0)
(-0.0331669 0.00709709 0)
(-0.0343822 0.00487821 0)
(-0.0351706 0.00255049 0)
(-0.0355112 0.00013232 0)
(-0.0353851 -0.00235464 0)
(-0.0347756 -0.00488445 0)
(-0.0336698 -0.00742539 0)
(-0.0320597 -0.00993833 0)
(-0.0299452 -0.0123743 0)
(-0.0273369 -0.0146702 0)
(-0.0242608 -0.0167398 0)
(-0.0207651 -0.0184587 0)
(-0.0169312 -0.0196393 0)
(-0.0128902 -0.0200014 0)
(-0.00884135 -0.0191534 0)
(-0.0050534 -0.0166127 0)
(-0.00191837 -0.0119005 0)
(-0.000287331 -0.00472947 0)
(-0.00029343 0.00537718 0)
(-0.00187879 0.0131872 0)
(-0.00485939 0.018133 0)
(-0.0084099 0.0207363 0)
(-0.0121837 0.0216491 0)
(-0.0159721 0.021445 0)
(-0.0196345 0.0205335 0)
(-0.0230842 0.0191655 0)
(-0.0262656 0.0174784 0)
(-0.0291384 0.0155438 0)
(-0.0316699 0.0134005 0)
(-0.0338312 0.0110725 0)
(-0.035596 0.00857841 0)
(-0.0369393 0.00593512 0)
(-0.0378368 0.00316019 0)
(-0.0382648 0.000273226 0)
(-0.0382002 -0.00270251 0)
(-0.0376212 -0.0057385 0)
(-0.0365085 -0.00879901 0)
(-0.034847 -0.0118387 0)
(-0.032629 -0.0147994 0)
(-0.0298586 -0.0176038 0)
(-0.0265572 -0.0201458 0)
(-0.022773 -0.0222705 0)
(-0.0185935 -0.0237466 0)
(-0.0141655 -0.0242306 0)
(-0.00971476 -0.0232448 0)
(-0.00554603 -0.0202009 0)
(-0.00209874 -0.0145081 0)
(-0.000311506 -0.00579183 0)
(-0.000316358 0.00642067 0)
(-0.00202881 0.015673 0)
(-0.00524805 0.0214894 0)
(-0.00907879 0.0245242 0)
(-0.0131452 0.0255671 0)
(-0.0172223 0.0253023 0)
(-0.0211603 0.0242144 0)
(-0.0248683 0.0225981 0)
(-0.0282896 0.0206143 0)
(-0.0313839 0.0183464 0)
(-0.0341192 0.0158391 0)
(-0.0364672 0.0131197 0)
(-0.0384017 0.0102081 0)
(-0.0398972 0.00712214 0)
(-0.0409278 0.00387936 0)
(-0.0414667 0.000499342 0)
(-0.0414864 -0.00299447 0)
(-0.0409586 -0.00657247 0)
(-0.0398556 -0.0101962 0)
(-0.0381527 -0.0138149 0)
(-0.0358317 -0.0173608 0)
(-0.0328867 -0.0207415 0)
(-0.0293315 -0.0238266 0)
(-0.0252122 -0.0264254 0)
(-0.0206225 -0.0282535 0)
(-0.0157281 -0.0288925 0)
(-0.0107882 -0.0277658 0)
(-0.00615324 -0.0241672 0)
(-0.00232235 -0.0173857 0)
(-0.000342101 -0.00695875 0)
(-0.000344319 0.00755162 0)
(-0.00220785 0.0183672 0)
(-0.00570766 0.0251234 0)
(-0.00986519 0.0286196 0)
(-0.0142703 0.0297969 0)
(-0.0186795 0.0294616 0)
(-0.0229326 0.0281804 0)
(-0.0269346 0.0262964 0)
(-0.0306278 0.0239961 0)
(-0.0339728 0.0213758 0)
(-0.036939 0.0184863 0)
(-0.0394996 0.0153578 0)
(-0.0416294 0.0120115 0)
(-0.0433032 0.00846464 0)
(-0.0444939 0.00473357 0)
(-0.0451718 0.000836097 0)
(-0.0453041 -0.00320616 0)
(-0.0448551 -0.0073647 0)
(-0.0437865 -0.0116003 0)
(-0.0420609 -0.0158584 0)
(-0.0396456 -0.0200622 0)
(-0.0365196 -0.0241025 0)
(-0.0326847 -0.0278208 0)
(-0.0281806 -0.0309827 0)
(-0.0231065 -0.0332385 0)
(-0.0176501 -0.0340795 0)
(-0.0121125 -0.0328128 0)
(-0.00690348 -0.0285987 0)
(-0.00259862 -0.0205963 0)
(-0.000379849 -0.0082553 0)
(-0.000377869 0.00878691 0)
(-0.00242013 0.0213072 0)
(-0.00624907 0.0290821 0)
(-0.0107866 0.0330719 0)
(-0.0155822 0.034386 0)
(-0.0203709 0.0339661 0)
(-0.024981 0.0324702 0)
(-0.0293134 0.0302948 0)
(-0.0333105 0.0276546 0)
(-0.0369348 0.02466 0)
(-0.0401582 0.0213685 0)
(-0.0429568 0.0178131 0)
(-0.0453079 0.0140151 0)
(-0.0471874 0.00999034 0)
(-0.0485681 0.00575223 0)
(-0.0494179 0.0013145 0)
(-0.0496987 -0.00330577 0)
(-0.0493659 -0.00808426 0)
(-0.0483685 -0.0129842 0)
(-0.0466526 -0.0179499 0)
(-0.0441655 -0.0228971 0)
(-0.0408646 -0.0276992 0)
(-0.0367321 -0.0321652 0)
(-0.0317949 -0.0360067 0)
(-0.0261541 -0.0387932 0)
(-0.0200219 -0.039904 0)
(-0.0137526 -0.038506 0)
(-0.00783316 -0.033605 0)
(-0.00293954 -0.0242188 0)
(-0.000425659 -0.00971147 0)
(-0.000417787 0.0101458 0)
(-0.00267075 0.024536 0)
(-0.00688477 0.0334193 0)
(-0.0118627 0.0379364 0)
(-0.0171058 0.0393859 0)
(-0.0223246 0.0388617 0)
(-0.027335 0.0371236 0)
(-0.0320342 0.0346275 0)
(-0.0363658 0.0316196 0)
(-0.0402956 0.0282258 0)
(-0.0438002 0.0245109 0)
(-0.0468603 0.0205105 0)
(-0.0494574 0.0162456 0)
(-0.0515706 0.0117289 0)
(-0.053174 0.00696882 0)
(-0.0542341 0.00197224 0)
(-0.0547078 -0.00325187 0)
(-0.054541 -0.00868767 0)
(-0.0536679 -0.0143055 0)
(-0.0520136 -0.0200532 0)
(-0.0494986 -0.0258425 0)
(-0.0460497 -0.0315302 0)
(-0.0416179 -0.0368884 0)
(-0.0362066 -0.0415633 0)
(-0.0299112 -0.0450222 0)
(-0.0229691 -0.0465024 0)
(-0.0158003 -0.0449963 0)
(-0.00899444 -0.0393262 0)
(-0.00336232 -0.0283536 0)
(-0.00048078 -0.011364 0)
(-0.000465219 0.0116505 0)
(-0.00296658 0.0281036 0)
(-0.00763096 0.0381965 0)
(-0.013118 0.0432749 0)
(-0.0188719 0.0448529 0)
(-0.0245747 0.0441965 0)
(-0.0300291 0.0421802 0)
(-0.0351297 0.039327 0)
(-0.039823 0.035918 0)
(-0.0440807 0.0320967 0)
(-0.0478861 0.0279357 0)
(-0.0512272 0.0234732 0)
(-0.0540924 0.0187289 0)
(-0.0564664 0.0137111 0)
(-0.0583269 0.00842072 0)
(-0.0596409 0.0028544 0)
(-0.0603619 -0.00299147 0)
(-0.0604261 -0.00911532 0)
(-0.0597512 -0.0155013 0)
(-0.0582369 -0.0221079 0)
(-0.0557691 -0.0288497 0)
(-0.0522313 -0.0355704 0)
(-0.0475276 -0.0420027 0)
(-0.0416197 -0.0477143 0)
(-0.0345822 -0.0520428 0)
(-0.0266734 -0.0540412 0)
(-0.0183927 -0.0524774 0)
(-0.0104668 -0.045946 0)
(-0.00389323 -0.0331324 0)
(-0.00054698 -0.0132593 0)
(-0.000521864 0.0133277 0)
(-0.00331728 0.0320692 0)
(-0.00850968 0.0434851 0)
(-0.0145854 0.0491572 0)
(-0.0209203 0.0508478 0)
(-0.0271639 0.0500199 0)
(-0.0331056 0.0476788 0)
(-0.0386389 0.0444227 0)
(-0.043716 0.0405725 0)
(-0.0483173 0.036291 0)
(-0.0524363 0.0316598 0)
(-0.0560716 0.0267196 0)
(-0.0592216 0.021488 0)
(-0.0618803 0.0159673 0)
(-0.064032 0.0101483 0)
(-0.0656478 0.0040136 0)
(-0.0666803 -0.00245839 0)
(-0.0670579 -0.00928785 0)
(-0.0666809 -0.0164816 0)
(-0.0654203 -0.02402 0)
(-0.0631185 -0.0318316 0)
(-0.0596008 -0.0397562 0)
(-0.0547015 -0.0474888 0)
(-0.0483126 -0.0545059 0)
(-0.0404601 -0.059981 0)
(-0.031407 -0.0627243 0)
(-0.021743 -0.061203 0)
(-0.0123779 -0.0537149 0)
(-0.0045752 -0.0387373 0)
(-0.0006271 -0.0154595 0)
(-0.000590261 0.0152104 0)
(-0.00373666 0.0365046 0)
(-0.0095517 0.0493695 0)
(-0.0163094 0.055663 0)
(-0.0233037 0.0574369 0)
(-0.0301477 0.0563825 0)
(-0.0366176 0.053655 0)
(-0.042609 0.0499384 0)
(-0.0480838 0.0455981 0)
(-0.0530349 0.0408188 0)
(-0.0574702 0.0356919 0)
(-0.0614029 0.0302607 0)
(-0.0648459 0.0245401 0)
(-0.0678064 0.0185248 0)
(-0.0702804 0.0121928 0)
(-0.0722474 0.00550874 0)
(-0.0736643 -0.0015731 0)
(-0.0744555 -0.00910313 0)
(-0.074506 -0.017123 0)
(-0.0736572 -0.0256502 0)
(-0.0717004 -0.0346457 0)
(-0.0683854 -0.0439631 0)
(-0.0634472 -0.0532704 0)
(-0.0566655 -0.0619454 0)
(-0.0479689 -0.068959 0)
(-0.037586 -0.0727975 0)
(-0.0261937 -0.0715119 0)
(-0.0149418 -0.0629867 0)
(-0.00548298 -0.0454316 0)
(-0.000726726 -0.0180521 0)
(-0.000674307 0.0173403 0)
(-0.00424494 0.0414994 0)
(-0.0108006 0.0559517 0)
(-0.0183515 0.0628839 0)
(-0.0260929 0.0646916 0)
(-0.0335981 0.063334 0)
(-0.0406324 0.0601395 0)
(-0.0470982 0.0558895 0)
(-0.0529722 0.0509997 0)
(-0.0582656 0.0456788 0)
(-0.0630054 0.0400291 0)
(-0.0672244 0.0340965 0)
(-0.070955 0.0278928 0)
(-0.074223 0.0214038 0)
(-0.077042 0.0145926 0)
(-0.0794063 0.00740141 0)
(-0.0812847 -0.000245675 0)
(-0.0826048 -0.00843519 0)
(-0.0832438 -0.0172618 0)
(-0.083017 -0.0268004 0)
(-0.081662 -0.0370711 0)
(-0.0788368 -0.0479725 0)
(-0.0741419 -0.0591729 0)
(-0.0671848 -0.0699592 0)
(-0.0577156 -0.0790636 0)
(-0.0458463 -0.0845445 0)
(-0.0323017 -0.08386 0)
(-0.018527 -0.0742785 0)
(-0.00675379 -0.0536183 0)
(-0.000858717 -0.0211724 0)
(-0.000780192 0.0197729 0)
(-0.00487234 0.0471686 0)
(-0.0123191 0.063357 0)
(-0.020797 0.0709266 0)
(-0.0293831 0.0726889 0)
(-0.0376092 0.0709213 0)
(-0.0452347 0.0671538 0)
(-0.0521764 0.0622785 0)
(-0.0584336 0.0567665 0)
(-0.0640422 0.0508528 0)
(-0.0690544 0.0446512 0)
(-0.0735283 0.0382103 0)
(-0.0775212 0.0315385 0)
(-0.0810839 0.0246118 0)
(-0.0842546 0.0173773 0)
(-0.0870513 0.00975255 0)
(-0.0894609 0.00162697 0)
(-0.0914305 -0.00713461 0)
(-0.0928453 -0.0166918 0)
(-0.0935044 -0.0272026 0)
(-0.0930982 -0.038784 0)
(-0.0911864 -0.0514295 0)
(-0.0871993 -0.0648631 0)
(-0.080496 -0.0783204 0)
(-0.0705238 -0.0902809 0)
(-0.0571254 -0.098256 0)
(-0.0409528 -0.098851 0)
(-0.0237652 -0.088361 0)
(-0.00864386 -0.0639406 0)
(-0.0010541 -0.0250465 0)
(-0.000918196 0.0225844 0)
(-0.00566524 0.0536635 0)
(-0.0141989 0.0717418 0)
(-0.0237654 0.0799148 0)
(-0.0333021 0.0815086 0)
(-0.0423015 0.0791835 0)
(-0.0505281 0.0747045 0)
(-0.0579246 0.0690883 0)
(-0.0645229 0.0628658 0)
(-0.0703918 0.0562995 0)
(-0.0756156 0.0495143 0)
(-0.0802837 0.0425615 0)
(-0.0844843 0.0354457 0)
(-0.0882991 0.0281337 0)
(-0.0917981 0.0205563 0)
(-0.0950326 0.0126068 0)
(-0.0980243 0.00413764 0)
(-0.100753 -0.00504425 0)
(-0.103133 -0.0151736 0)
(-0.104976 -0.0265182 0)
(-0.105949 -0.0393399 0)
(-0.105525 -0.0537992 0)
(-0.102944 -0.0697714 0)
(-0.0972332 -0.0865394 0)
(-0.0873689 -0.102375 0)
(-0.0726711 -0.114142 0)
(-0.0534541 -0.117237 0)
(-0.0316842 -0.106372 0)
(-0.011621 -0.0774462 0)
(-0.00138549 -0.0300775 0)
(-0.00110627 0.0258834 0)
(-0.00669679 0.0611885 0)
(-0.0165749 0.0813034 0)
(-0.0274233 0.0899901 0)
(-0.0380177 0.091228 0)
(-0.047824 0.0881431 0)
(-0.0566305 0.0827732 0)
(-0.0644235 0.0762723 0)
(-0.0712806 0.0692332 0)
(-0.0773134 0.0619443 0)
(-0.0826458 0.0545404 0)
(-0.0874042 0.0470745 0)
(-0.0917131 0.0395474 0)
(-0.0956907 0.0319174 0)
(-0.0994456 0.0241012 0)
(-0.103072 0.0159703 0)
(-0.10664 0.00734242 0)
(-0.110184 -0.00202977 0)
(-0.113674 -0.0124668 0)
(-0.116978 -0.0243666 0)
(-0.119789 -0.0381872 0)
(-0.121539 -0.0543496 0)
(-0.121292 -0.0730269 0)
(-0.117687 -0.0937362 0)
(-0.109037 -0.114707 0)
(-0.0937871 -0.132141 0)
(-0.0714367 -0.13982 0)
(-0.0437795 -0.129901 0)
(-0.016488 -0.0958111 0)
(-0.00201276 -0.0369998 0)
(-0.00137739 0.0298332 0)
(-0.00808551 0.0700253 0)
(-0.0196476 0.0922894 0)
(-0.0319987 0.101307 0)
(-0.04374 0.101908 0)
(-0.0543414 0.097788 0)
(-0.0636478 0.0912976 0)
(-0.0717141 0.0837355 0)
(-0.0786806 0.0757534 0)
(-0.084713 0.067661 0)
(-0.0899825 0.0595992 0)
(-0.0946583 0.0516201 0)
(-0.0989048 0.0437203 0)
(-0.102881 0.0358509 0)
(-0.106737 0.0279185 0)
(-0.110616 0.0197793 0)
(-0.114649 0.0112259 0)
(-0.118942 0.0019662 0)
(-0.123556 -0.00840275 0)
(-0.128462 -0.0204103 0)
(-0.133458 -0.0347568 0)
(-0.13802 -0.0522248 0)
(-0.141121 -0.0734789 0)
(-0.141029 -0.0985687 0)
(-0.135262 -0.126026 0)
(-0.120997 -0.151598 0)
(-0.0962412 -0.167121 0)
(-0.061789 -0.160868 0)
(-0.0244893 -0.121541 0)
(-0.00326522 -0.0471245 0)
(-0.00179489 0.0346892 0)
(-0.010028 0.0805667 0)
(-0.0237115 0.105002 0)
(-0.0377883 0.114013 0)
(-0.0506987 0.113559 0)
(-0.0619808 0.108035 0)
(-0.0715894 0.100134 0)
(-0.0796828 0.0912973 0)
(-0.0864856 0.0822245 0)
(-0.0922314 0.0732365 0)
(-0.0971466 0.0644727 0)
(-0.101448 0.0559801 0)
(-0.105343 0.0477485 0)
(-0.109028 0.0397229 0)
(-0.112698 0.0318044 0)
(-0.116542 0.0238435 0)
(-0.120752 0.0156232 0)
(-0.12552 0.00682982 0)
(-0.131005 -0.00299361 0)
(-0.137335 -0.0145239 0)
(-0.144496 -0.0286787 0)
(-0.152135 -0.0466919 0)
(-0.159303 -0.069932 0)
(-0.164062 -0.0993711 0)
(-0.16319 -0.134406 0)
(-0.152375 -0.170877 0)
(-0.127416 -0.198715 0)
(-0.086797 -0.200918 0)
(-0.0372639 -0.15791 0)
(-0.00577496 -0.0626779 0)
(-0.00248497 0.0408702 0)
(-0.0128557 0.0933587 0)
(-0.029186 0.119779 0)
(-0.045131 0.128187 0)
(-0.0590485 0.126067 0)
(-0.0706674 0.118645 0)
(-0.0801358 0.108973 0)
(-0.0877645 0.0986105 0)
(-0.0938909 0.0882801 0)
(-0.0988336 0.0782969 0)
(-0.102885 0.0687869 0)
(-0.106313 0.0597828 0)
(-0.109368 0.0512625 0)
(-0.11228 0.0431629 0)
(-0.115276 0.0353823 0)
(-0.118581 0.0277745 0)
(-0.122429 0.0201306 0)
(-0.127076 0.012143 0)
(-0.132807 0.00333818 0)
(-0.13988 -0.0070421 0)
(-0.1485 -0.0201257 0)
(-0.158649 -0.0375948 0)
(-0.169692 -0.0616785 0)
(-0.179854 -0.0946593 0)
(-0.185591 -0.137503 0)
(-0.181351 -0.187103 0)
(-0.160374 -0.232247 0)
(-0.117357 -0.249999 0)
(-0.0563039 -0.208199 0)
(-0.0106164 -0.0871528 0)
(-0.00370508 0.0490911 0)
(-0.0171323 0.109134 0)
(-0.0366225 0.136906 0)
(-0.0542746 0.143689 0)
(-0.0685835 0.139014 0)
(-0.0796907 0.129048 0)
(-0.0880685 0.117168 0)
(-0.0942503 0.104994 0)
(-0.0987283 0.0932344 0)
(-0.101931 0.0821682 0)
(-0.104229 0.0718879 0)
(-0.105947 0.0623965 0)
(-0.107369 0.0536479 0)
(-0.108749 0.0455628 0)
(-0.110325 0.0380339 0)
(-0.112328 0.0309212 0)
(-0.115001 0.024036 0)
(-0.118623 0.0171022 0)
(-0.123519 0.00967746 0)
(-0.130055 0.00102126 0)
(-0.138627 -0.0101522 0)
(-0.149579 -0.0258667 0)
(-0.162849 -0.0491805 0)
(-0.177355 -0.0838917 0)
(-0.190109 -0.133161 0)
(-0.195329 -0.196188 0)
(-0.184261 -0.262396 0)
(-0.146928 -0.304135 0)
(-0.0812473 -0.273568 0)
(-0.0191375 -0.125263 0)
(-0.00598483 0.0606248 0)
(-0.0238079 0.128784 0)
(-0.0465978 0.15634 0)
(-0.0649359 0.159786 0)
(-0.0779749 0.151285 0)
(-0.0866605 0.137958 0)
(-0.0919945 0.123376 0)
(-0.0948398 0.109122 0)
(-0.095903 0.0958163 0)
(-0.0957521 0.0836588 0)
(-0.0948445 0.0726718 0)
(-0.09355 0.0628006 0)
(-0.0921695 0.0539535 0)
(-0.0909518 0.0460186 0)
(-0.0901105 0.0388705 0)
(-0.0898417 0.0323685 0)
(-0.090343 0.0263435 0)
(-0.0918379 0.0205623 0)
(-0.0946101 0.0146532 0)
(-0.0990293 0.00795338 0)
(-0.105545 -0.000781704 0)
(-0.114767 -0.0137667 0)
(-0.127294 -0.0345487 0)
(-0.143229 -0.0681945 0)
(-0.161261 -0.120238 0)
(-0.177174 -0.193354 0)
(-0.182106 -0.280431 0)
(-0.162071 -0.353178 0)
(-0.106615 -0.349144 0)
(-0.0317031 -0.181567 0)
(-0.0104015 0.0778724 0)
(-0.0344201 0.153107 0)
(-0.0591739 0.177017 0)
(-0.0749863 0.174346 0)
(-0.0828462 0.160304 0)
(-0.0851613 0.142704 0)
(-0.0837666 0.125017 0)
(-0.079984 0.108604 0)
(-0.0747782 0.0938801 0)
(-0.0688469 0.0808769 0)
(-0.0626941 0.0694874 0)
(-0.0566821 0.0595564 0)
(-0.0510699 0.050916 0)
(-0.0460425 0.0433991 0)
(-0.0417349 0.0368454 0)
(-0.0382528 0.0310987 0)
(-0.0356916 0.0259958 0)
(-0.0341572 0.0213357 0)
(-0.033796 0.0168135 0)
(-0.034847 0.0118879 0)
(-0.0377234 0.00551417 0)
(-0.0430844 -0.00433631 0)
(-0.0519298 -0.0212091 0)
(-0.065624 -0.0505945 0)
(-0.0852731 -0.099701 0)
(-0.11024 -0.175052 0)
(-0.13475 -0.276005 0)
(-0.143597 -0.380709 0)
(-0.119003 -0.419973 0)
(-0.0448873 -0.257411 0)
(-0.0189776 0.105215 0)
(-0.0509261 0.181493 0)
(-0.0715004 0.195224 0)
(-0.0764284 0.18232 0)
(-0.0709522 0.160818 0)
(-0.0597932 0.138411 0)
(-0.045825 0.117827 0)
(-0.0307692 0.0998508 0)
(-0.0156993 0.0844739 0)
(-0.00125909 0.0714344 0)
(0.0121799 0.0604203 0)
(0.0244187 0.051133 0)
(0.0353688 0.0433051 0)
(0.0450118 0.0367028 0)
(0.0533704 0.0311236 0)
(0.0604885 0.0263891 0)
(0.0664154 0.0223318 0)
(0.0711907 0.0187687 0)
(0.0748226 0.0154467 0)
(0.0772443 0.0119377 0)
(0.0782138 0.0074416 0)
(0.0770976 0.000435554 0)
(0.0727921 -0.0119753 0)
(0.0632518 -0.0346168 0)
(0.0453473 -0.0747404 0)
(0.0154659 -0.141475 0)
(-0.0272209 -0.2418 0)
(-0.0712508 -0.368117 0)
(-0.0992319 -0.461082 0)
(-0.0491182 -0.346242 0)
(-0.0336683 0.148045 0)
(-0.0707075 0.205832 0)
(-0.0662862 0.199015 0)
(-0.0424967 0.17177 0)
(-0.0103954 0.142606 0)
(0.0234465 0.116953 0)
(0.0560016 0.0956783 0)
(0.0860336 0.0783846 0)
(0.11304 0.0644055 0)
(0.136949 0.0531083 0)
(0.157897 0.0439633 0)
(0.176114 0.0365433 0)
(0.191864 0.030507 0)
(0.205419 0.0255822 0)
(0.217035 0.0215502 0)
(0.226947 0.0182319 0)
(0.235362 0.015471 0)
(0.242449 0.0131113 0)
(0.248328 0.0109546 0)
(0.253036 0.00868513 0)
(0.256434 0.00573485 0)
(0.257942 0.00106833 0)
(0.256491 -0.00710733 0)
(0.249782 -0.0221097 0)
(0.233684 -0.0493224 0)
(0.202048 -0.0973341 0)
(0.147189 -0.177789 0)
(0.0715563 -0.302327 0)
(-0.027906 -0.443528 0)
(-0.0281037 -0.421252 0)
(-0.036837 0.237746 0)
(-0.0438395 0.207678 0)
(0.0343914 0.15708 0)
(0.107071 0.119607 0)
(0.173556 0.0908541 0)
(0.23125 0.0692009 0)
(0.27993 0.0532423 0)
(0.320594 0.04144 0)
(0.354451 0.0325963 0)
(0.382629 0.0258895 0)
(0.4061 0.0207567 0)
(0.425684 0.0167984 0)
(0.442063 0.0137245 0)
(0.455802 0.0113215 0)
(0.467362 0.00943042 0)
(0.477122 0.00792894 0)
(0.485384 0.00671679 0)
(0.492379 0.00569845 0)
(0.498255 0.00475955 0)
(0.50304 0.00372734 0)
(0.506566 0.00230841 0)
(0.508311 -2.71784e-05 0)
(0.507216 -0.00410811 0)
(0.500982 -0.0115949 0)
(0.485201 -0.0251352 0)
(0.453693 -0.0497012 0)
(0.393812 -0.0942357 0)
(0.300603 -0.183605 0)
(0.124747 -0.335546 0)
(0.0546218 -0.413626 0)
(0.23145 0.158568 0)
(0.292986 0.118162 0)
(0.44483 0.0770183 0)
(0.545465 0.051484 0)
(0.6133 0.0347194 0)
(0.662334 0.0234522 0)
(0.698756 0.0159901 0)
(0.726113 0.0110716 0)
(0.746933 0.00779811 0)
(0.763023 0.00559046 0)
(0.775634 0.00408468 0)
(0.785648 0.00304748 0)
(0.793698 0.0023262 0)
(0.800252 0.00181979 0)
(0.805653 0.00146055 0)
(0.810158 0.00120189 0)
(0.813954 0.00100942 0)
(0.817168 0.000853312 0)
(0.819864 0.000700162 0)
(0.822021 0.000503226 0)
(0.823478 0.000192945 0)
(0.823853 -0.000349795 0)
(0.822247 -0.00132114 0)
(0.817147 -0.00316999 0)
(0.805185 -0.00649092 0)
(0.782824 -0.0126717 0)
(0.735647 -0.0238927 0)
(0.661879 -0.0486266 0)
(0.458751 -0.111678 0)
(0.314481 -0.179634 0)
)
;

boundaryField
{
    movingWall
    {
        type            fixedValue;
        value           uniform (1 0 0);
    }
    fixedWalls
    {
        type            noSlip;
    }
    frontAndBack
    {
        type            empty;
    }
}


// ************************************************************************* //
