/*--------------------------------*- C++ -*----------------------------------*\
  =========                 |
  \\      /  F ield         | OpenFOAM: The Open Source CFD Toolbox
   \\    /   O peration     | Website:  https://openfoam.org
    \\  /    A nd           | Version:  7
     \\/     M anipulation  |
\*---------------------------------------------------------------------------*/
FoamFile
{
    version     2.0;
    format      ascii;
    class       surfaceScalarField;
    location    "9";
    object      phi;
}
// * * * * * * * * * * * * * * * * * * * * * * * * * * * * * * * * * * * * * //

dimensions      [0 3 -1 0 0 0 0];

internalField   nonuniform List<scalar> 
1740
(
6.60865e-07
-6.61482e-07
-3.67378e-07
1.02824e-06
-3.25606e-06
2.88868e-06
-7.63868e-06
4.38262e-06
-1.30441e-05
5.40541e-06
-1.9063e-05
6.01891e-06
-2.5384e-05
6.32097e-06
-3.17741e-05
6.39008e-06
-3.80437e-05
6.26967e-06
-4.40145e-05
5.97076e-06
-4.94952e-05
5.48074e-06
-5.42695e-05
4.77427e-06
-5.80945e-05
3.825e-06
-6.0712e-05
2.61747e-06
-6.18704e-05
1.15839e-06
-6.1356e-05
-5.14347e-07
-5.90291e-05
-2.32688e-06
-5.48664e-05
-4.16275e-06
-4.89922e-05
-5.8742e-06
-4.16969e-05
-7.29528e-06
-3.34338e-05
-8.26306e-06
-2.47897e-05
-8.64413e-06
-1.64289e-05
-8.3608e-06
-9.01731e-06
-7.41161e-06
-3.13593e-06
-5.88137e-06
8.09567e-07
-3.9455e-06
2.6774e-06
-1.86784e-06
2.61726e-06
6.01373e-08
1.26289e-06
1.35438e-06
1.26289e-06
-1.0291e-06
3.6762e-07
-5.84244e-06
5.84157e-06
-1.45471e-05
1.15934e-05
-2.64131e-05
1.62486e-05
-4.05736e-05
1.95659e-05
-5.62021e-05
2.16474e-05
-7.25867e-05
2.27056e-05
-8.91273e-05
2.29306e-05
-0.000105294
2.24365e-05
-0.00012058
2.12564e-05
-0.000134461
1.93615e-05
-0.000146377
1.6691e-05
-0.000155739
1.31867e-05
-0.00016195
8.82894e-06
-0.000164459
3.66685e-06
-0.000162837
-2.13584e-06
-0.000156823
-8.34171e-06
-0.000146434
-1.4551e-05
-0.000132013
-2.0295e-05
-0.000114255
-2.50533e-05
-9.41968e-05
-2.83217e-05
-7.31499e-05
-2.96911e-05
-5.25846e-05
-2.89261e-05
-3.39683e-05
-2.6028e-05
-1.85822e-05
-2.12675e-05
-7.34045e-06
-1.51872e-05
-6.28795e-07
-8.5795e-06
1.91488e-06
-2.48355e-06
1.41675e-06
1.8525e-06
2.67964e-06
-3.1281e-06
3.49572e-06
-1.23626e-05
1.50761e-05
-2.69157e-05
2.61464e-05
-4.57131e-05
3.5046e-05
-6.75881e-05
4.14409e-05
-9.14422e-05
4.55015e-05
-0.000116301
4.7564e-05
-0.000141304
4.79336e-05
-0.000165663
4.67961e-05
-0.000188612
4.42054e-05
-0.000209364
4.01133e-05
-0.000227095
3.44219e-05
-0.000240955
2.70464e-05
-0.000250106
1.79804e-05
-0.000253798
7.35881e-06
-0.000251435
-4.49901e-06
-0.000242691
-1.70851e-05
-0.00022761
-2.96319e-05
-0.000206673
-4.12324e-05
-0.000180839
-5.08874e-05
-0.000151532
-5.76287e-05
-0.000120558
-6.06653e-05
-8.99517e-05
-5.95322e-05
-6.17663e-05
-5.42133e-05
-3.78215e-05
-4.52123e-05
-1.94495e-05
-3.35592e-05
-7.26477e-06
-2.07642e-05
-1.00187e-06
-8.74644e-06
6.55088e-07
1.95543e-07
3.33473e-06
-5.1757e-06
8.67142e-06
-1.87558e-05
2.86562e-05
-3.90129e-05
4.64035e-05
-6.43395e-05
6.03726e-05
-9.32569e-05
7.03583e-05
-0.000124447
7.66917e-05
-0.000156751
7.98682e-05
-0.000189134
8.03162e-05
-0.000220628
7.82898e-05
-0.000250278
7.38562e-05
-0.000277105
6.69397e-05
-0.000300082
5.73993e-05
-0.000318158
4.51221e-05
-0.000330299
3.01214e-05
-0.00033557
1.26295e-05
-0.000333228
-6.84087e-06
-0.000322833
-2.74799e-05
-0.000304382
-4.80831e-05
-0.00027839
-6.72238e-05
-0.000245955
-8.33223e-05
-0.000208754
-9.48299e-05
-0.000168965
-0.000100455
-0.000129098
-9.93993e-05
-9.17438e-05
-9.15673e-05
-5.92629e-05
-7.76932e-05
-3.34583e-05
-5.93638e-05
-1.52871e-05
-3.89354e-05
-4.65176e-06
-1.93818e-05
-3.38939e-07
-4.11728e-06
2.99579e-06
-7.03265e-06
1.57041e-05
-2.47061e-05
4.63297e-05
-5.03577e-05
7.2055e-05
-8.18092e-05
9.18242e-05
-0.000117249
0.000105799
-0.000155161
0.000114603
-0.000194249
0.000118957
-0.000233366
0.000119432
-0.000271431
0.000116355
-0.000307371
0.000109796
-0.000340068
9.96372e-05
-0.000368347
8.56786e-05
-0.000390987
6.77614e-05
-0.000406766
4.5901e-05
-0.00041455
2.04133e-05
-0.0004134
-7.99142e-06
-0.000402665
-3.82149e-05
-0.000382182
-6.85661e-05
-0.000352367
-9.70379e-05
-0.000314322
-0.000121367
-0.000269866
-0.000139286
-0.000221483
-0.000148838
-0.000172156
-0.000148726
-0.000125078
-0.000138646
-8.32671e-05
-0.000119504
-4.91528e-05
-9.34781e-05
-2.41919e-05
-6.38962e-05
-8.61074e-06
-3.4963e-05
-1.31987e-06
-1.14082e-05
1.67591e-06
-8.6877e-06
2.43918e-05
-3.01233e-05
6.77652e-05
-6.07864e-05
0.000102718
-9.79467e-05
0.000128984
-0.000139468
0.00014732
-0.000183654
0.000158789
-0.000229112
0.000164415
-0.000274632
0.000164953
-0.000319084
0.000160807
-0.000361331
0.000152043
-0.000400175
0.000138481
-0.000434328
0.000119831
-0.000462414
9.58483e-05
-0.000483017
6.65038e-05
-0.000494752
3.2148e-05
-0.000496412
-6.33179e-06
-0.000486985
-4.76413e-05
-0.000466009
-8.95423e-05
-0.000433634
-0.000129413
-0.000390804
-0.000164197
-0.000339361
-0.00019073
-0.000282041
-0.000206157
-0.000222335
-0.000208432
-0.000164169
-0.000196812
-0.000111436
-0.000172237
-6.74411e-05
-0.000137473
-3.43802e-05
-9.69572e-05
-1.29665e-05
-5.63767e-05
-2.30439e-06
-2.20702e-05
-6.28483e-07
-1.01604e-05
3.45521e-05
-3.50057e-05
9.26106e-05
-7.02637e-05
0.000137976
-0.000112705
0.000171426
-0.000159901
0.000194515
-0.000210006
0.000208895
-0.000261571
0.000215979
-0.000313373
0.000216755
-0.000364283
0.000211717
-0.00041316
0.000200921
-0.000458775
0.000184096
-0.000499758
0.000160815
-0.000534597
0.000130687
-0.00056165
9.35572e-05
-0.000579204
4.97018e-05
-0.000585763
2.27426e-07
-0.000579685
-5.37195e-05
-0.000560109
-0.000109118
-0.000526698
-0.000162824
-0.00048004
-0.000210855
-0.000421838
-0.000248933
-0.000354994
-0.000273001
-0.00028353
-0.000279896
-0.000212265
-0.000268078
-0.000146246
-0.000238256
-9.00135e-05
-0.000193705
-4.68436e-05
-0.000140127
-1.81828e-05
-8.50374e-05
-3.42768e-06
-3.68254e-05
-4.05617e-06
-1.14649e-05
4.60171e-05
-3.93608e-05
0.000120506
-7.87739e-05
0.000177389
-0.000126049
0.000218701
-0.000178513
0.000246979
-0.000234214
0.000264596
-0.000291686
0.000273451
-0.000349742
0.000274811
-0.000407311
0.000269286
-0.000463303
0.000256912
-0.000516502
0.000237295
-0.000565499
0.000209812
-0.000608652
0.000173839
-0.000644085
0.000128991
-0.00066976
7.53762e-05
-0.000683423
1.38903e-05
-0.000683252
-5.38908e-05
-0.000667424
-0.000124946
-0.000634949
-0.000195298
-0.000585828
-0.000259976
-0.000521396
-0.000313365
-0.000444559
-0.000349837
-0.000359828
-0.000364627
-0.000273038
-0.000354868
-0.000190707
-0.000320587
-0.000119062
-0.00026535
-6.29477e-05
-0.000196242
-2.49258e-05
-0.000123059
-4.86863e-06
-5.68825e-05
-8.9248e-06
-1.26004e-05
5.86174e-05
-4.31703e-05
0.000151076
-8.62666e-05
0.000220486
-0.000137889
0.000270323
-0.000195177
0.000304267
-0.000256117
0.000325536
-0.00031927
0.000336604
-0.000383535
0.000339076
-0.000447951
0.000333702
-0.000511528
0.000320489
-0.000573118
0.000298885
-0.000631308
0.000268003
-0.000684349
0.00022688
-0.000730124
0.000174766
-0.000766171
0.000111423
-0.000789747
3.74662e-05
-0.000798176
-4.54615e-05
-0.000788841
-0.000134281
-0.000759821
-0.000224319
-0.000710242
-0.000309555
-0.000640773
-0.000382834
-0.000554041
-0.00043657
-0.00045486
-0.000463808
-0.000350095
-0.000459633
-0.000248008
-0.000422674
-0.000157048
-0.00035631
-8.42852e-05
-0.000269004
-3.39872e-05
-0.000173357
-6.85563e-06
-8.40141e-05
-1.57804e-05
-1.35515e-05
7.21689e-05
-4.63836e-05
0.000183908
-9.26392e-05
0.000266741
-0.000148054
0.000325739
-0.000209639
0.000365851
-0.000275362
0.000391259
-0.000343853
0.000405095
-0.000414138
0.000409361
-0.00048541
0.000404974
-0.000556833
0.000391912
-0.000627376
0.000369427
-0.000695666
0.000336293
-0.000759885
0.000291099
-0.000817695
0.000232576
-0.000866237
0.000159964
-0.000902185
7.3415e-05
-0.000922061
-2.55858e-05
-0.000922252
-0.000134089
-0.000899752
-0.000246819
-0.000852541
-0.000356766
-0.000780252
-0.000455124
-0.000684811
-0.000532011
-0.000570946
-0.000577672
-0.000446338
-0.000584241
-0.000321114
-0.000547898
-0.000206475
-0.000470949
-0.000112568
-0.000362911
-4.62385e-05
-0.000239687
-9.63338e-06
-0.000120619
-2.54138e-05
-1.42926e-05
8.64616e-05
-4.89239e-05
0.00021854
-9.77429e-05
0.00031556
-0.000156301
0.000384297
-0.000221529
0.000431079
-0.000291413
0.000461143
-0.000364682
0.000478365
-0.00044052
0.000485199
-0.000518311
0.000482765
-0.000597413
0.000471014
-0.000676952
0.000448967
-0.000755652
0.000414992
-0.000831675
0.000367122
-0.000902526
0.000303427
-0.000965007
0.000222446
-0.00101526
0.000123666
-0.00104904
8.19112e-06
-0.00106175
-0.000121375
-0.00104922
-0.000259353
-0.00100805
-0.000397935
-0.000936456
-0.000526714
-0.00083512
-0.000633347
-0.000708037
-0.000704755
-0.000563145
-0.000729133
-0.000412227
-0.000698816
-0.000269621
-0.000613555
-0.000149526
-0.000483006
-6.26095e-05
-0.000326603
-1.34677e-05
-0.000169761
-3.88815e-05
-1.47938e-05
0.000101255
-5.07026e-05
0.000254448
-0.000101405
0.000366262
-0.000162338
0.00044523
-0.00023039
0.000499132
-0.000303588
0.000534341
-0.000380773
0.000555549
-0.000461298
0.000565725
-0.000544757
0.000566224
-0.000630723
0.00055698
-0.00071852
0.000536764
-0.00080701
0.000503482
-0.000894411
0.000454524
-0.000978165
0.000387181
-0.00105487
0.000299148
-0.00112031
0.000189107
-0.00116948
5.73616e-05
-0.00119722
-9.36292e-05
-0.0011981
-0.00025848
-0.00116729
-0.000428742
-0.00110129
-0.000592718
-0.000998895
-0.000735738
-0.000862507
-0.000841144
-0.000699326
-0.000892314
-0.000522057
-0.000876085
-0.00034814
-0.000787472
-0.000196769
-0.000634376
-8.40687e-05
-0.000439304
-1.86537e-05
-0.000235176
-5.75352e-05
-1.50283e-05
0.000116284
-5.16407e-05
0.000291061
-0.000103465
0.000418086
-0.00016588
0.000507645
-0.000235754
0.000569006
-0.000311152
0.000609739
-0.00039102
0.000635416
-0.000474873
0.000649578
-0.000562503
0.000653854
-0.000653705
0.000648181
-0.000748013
0.000631072
-0.000844475
0.000599944
-0.000941444
0.000551493
-0.00103643
0.000482165
-0.00112601
0.000388727
-0.00120583
0.000268929
-0.00127068
0.000122215
-0.00131474
-4.95739e-05
-0.00133185
-0.000241366
-0.00131587
-0.000444719
-0.00126141
-0.000647183
-0.00116487
-0.000832276
-0.00102603
-0.000979985
-0.000849963
-0.00106838
-0.000648859
-0.00107719
-0.000442472
-0.000993859
-0.000255541
-0.000821307
-0.000111575
-0.000583271
-2.55214e-05
-0.000321229
-8.30566e-05
-1.49827e-05
0.000131266
-5.1697e-05
0.000327775
-0.000103824
0.000470213
-0.000166721
0.000570542
-0.000237232
0.000639517
-0.000313439
0.000685946
-0.000394362
0.000716339
-0.000479643
0.000734859
-0.000569243
0.000743454
-0.000663151
0.000742089
-0.000761116
0.000729038
-0.000862403
0.000701231
-0.000965586
0.000654675
-0.00106839
0.000584973
-0.00116763
0.000487961
-0.00125914
0.000360443
-0.0013379
0.000200975
-0.00139787
1.03966e-05
-0.00143278
-0.000206455
-0.00143546
-0.000442039
-0.00139881
-0.000683833
-0.00131657
-0.000914514
-0.00118499
-0.00111157
-0.00100539
-0.00124798
-0.000787337
-0.00129525
-0.000551015
-0.00123018
-0.000326313
-0.00104601
-0.000145964
-0.00076362
-3.44296e-05
-0.000432764
-0.000117486
-1.46675e-05
0.000145934
-5.0901e-05
0.000364009
-0.000102506
0.000521818
-0.00016482
0.000632856
-0.000234637
0.000709334
-0.000310013
0.000761323
-0.000389992
0.000796318
-0.000474289
0.000819156
-0.000562982
0.000832147
-0.000656217
0.000835324
-0.000753936
0.000826757
-0.000855649
0.000802943
-0.000960231
0.000759257
-0.0010658
0.00069054
-0.00116962
0.000591788
-0.00126813
0.000458945
-0.00135685
0.000289694
-0.00143052
8.40672e-05
-0.00148269
-0.000154287
-0.00150626
-0.000418465
-0.00149287
-0.000697227
-0.00143372
-0.000973661
-0.00132104
-0.00122424
-0.00115093
-0.00141809
-0.00092778
-0.0015184
-0.000669184
-0.00148878
-0.000408189
-0.001307
-0.000187752
-0.000984057
-4.57392e-05
-0.000574776
-0.000163225
-1.41298e-05
0.000160064
-4.93899e-05
0.000399269
-9.97194e-05
0.000572148
-0.000160396
0.000693532
-0.00022811
0.000777048
-0.000300836
0.000834049
-0.000377583
0.000873065
-0.000458078
0.000899651
-0.000542457
0.000916526
-0.000630974
0.000923841
-0.000723749
0.000919532
-0.000820551
0.000899745
-0.000920642
0.000859348
-0.00102267
0.000792571
-0.00112463
0.000693749
-0.00122384
0.00055815
-0.00131689
0.000382746
-0.00139961
0.000166789
-0.00146634
-8.75603e-05
-0.00151074
-0.000374064
-0.00152397
-0.000683996
-0.0014954
-0.00100223
-0.00141339
-0.00130625
-0.00126799
-0.0015635
-0.00105604
-0.00173034
-0.000788709
-0.00175611
-0.000498232
-0.00159748
-0.000236851
-0.00124544
-5.97708e-05
-0.000751856
-0.000222996
-1.34666e-05
0.00017353
-4.74483e-05
0.00043325
-9.59283e-05
0.000620628
-0.000154024
0.000751629
-0.000218246
0.000841269
-0.000286428
0.000902232
-0.000357492
0.000944129
-0.00043113
0.000973289
-0.00050749
0.000992886
-0.000586902
0.00100325
-0.000669648
0.00100228
-0.000755788
0.000985884
-0.000845041
0.000948602
-0.000936725
0.000884255
-0.00102974
0.00078676
-0.00112253
0.000650947
-0.00121309
0.000473302
-0.00129884
0.000252536
-0.0013752
-1.11965e-05
-0.0014378
-0.000311459
-0.00147797
-0.00064383
-0.00148445
-0.000995758
-0.00144272
-0.00134797
-0.00133694
-0.00166928
-0.00115498
-0.0019123
-0.000897708
-0.00201338
-0.000590964
-0.00190422
-0.000292271
-0.00154413
-7.67603e-05
-0.000967367
-0.000299756
-1.28408e-05
0.000186371
-4.55536e-05
0.000465963
-9.19229e-05
0.000666997
-0.000146727
0.000806432
-0.000206195
0.000900738
-0.000267982
0.000964019
-0.000330903
0.00100705
-0.000394599
0.00103698
-0.000459222
0.00105751
-0.000525173
0.0010692
-0.000592914
0.00107002
-0.000662833
0.0010558
-0.000735178
0.00102095
-0.000810029
0.000959106
-0.000887301
0.000864033
-0.000966737
0.000730383
-0.00104782
0.000554389
-0.00112949
0.000334201
-0.00121041
6.97225e-05
-0.00128579
-0.000236082
-0.00134982
-0.000579793
-0.00139172
-0.00095386
-0.00139565
-0.00134405
-0.00134121
-0.00172372
-0.00120736
-0.00204615
-0.000982014
-0.00223873
-0.000678361
-0.00220788
-0.000351874
-0.00187062
-9.68453e-05
-0.0012224
-0.000396602
-1.25052e-05
0.000198876
-4.4434e-05
0.000497892
-8.88977e-05
0.000711461
-0.00014005
0.000857584
-0.000193737
0.000954425
-0.000247426
0.00101771
-0.000299866
0.00105949
-0.000350699
0.00108782
-0.000400122
0.00110693
-0.000448653
0.00111774
-0.000496978
0.00111834
-0.000545876
0.0011047
-0.000596188
0.00107126
-0.000648824
0.00101174
-0.00070477
0.000919979
-0.000765072
0.000790685
-0.00083073
0.000620046
-0.000902463
0.000405935
-0.000980468
0.000147727
-0.00106269
-0.000153854
-0.00114498
-0.000497507
-0.0012185
-0.000880344
-0.00126808
-0.00129446
-0.00127114
-0.00172065
-0.00119952
-0.00211778
-0.00102757
-0.00241068
-0.000750587
-0.00248486
-0.000412305
-0.0022089
-0.000120118
-0.00151458
-0.00051672
-1.2845e-05
0.000211721
-4.51571e-05
0.000530204
-8.85508e-05
0.000754855
-0.000136143
0.000905177
-0.000183306
0.00100159
-0.000227396
0.0010618
-0.000267227
0.00109932
-0.000302567
0.00112316
-0.000333774
0.00113814
-0.000361576
0.00114554
-0.000386966
0.00114373
-0.000411178
0.00112891
-0.000435698
0.00109578
-0.000462287
0.00103833
-0.000492985
0.000950677
-0.00053006
0.00082776
-0.000575882
0.000665868
-0.000632671
0.000462724
-0.000702118
0.000217173
-0.0007845
-7.14723e-05
-0.000877729
-0.000404278
-0.000975699
-0.000782374
-0.00106569
-0.00120447
-0.00112581
-0.00166054
-0.00112403
-0.00211955
-0.00102305
-0.00251167
-0.000797472
-0.00271043
-0.000469176
-0.0025372
-0.000146746
-0.00183701
-0.000663466
-1.4462e-05
0.000226183
-4.92791e-05
0.000565021
-9.32244e-05
0.0007988
-0.000137831
0.000949783
-0.00017798
0.00104174
-0.000211126
0.00109494
-0.000236403
0.0011246
-0.000253938
0.00114069
-0.000264428
0.00114863
-0.000268946
0.00115006
-0.00026889
0.00114368
-0.000266012
0.00112603
-0.000262463
0.00109223
-0.000260824
0.00103669
-0.00026409
0.000953944
-0.000275589
0.000839258
-0.000298834
0.000689113
-0.000337232
0.000501122
-0.000393665
0.000273607
-0.000470157
5.01995e-06
-0.000566611
-0.000307824
-0.000679948
-0.000669037
-0.000801164
-0.00108325
-0.000911769
-0.00154993
-0.000980098
-0.00205122
-0.00096129
-0.00253048
-0.000809818
-0.0028619
-0.000517363
-0.00282965
-0.000177061
-0.00217731
-0.000840527
-1.8345e-05
0.000244528
-5.91055e-05
0.000605782
-0.000106104
0.000845799
-0.000148665
0.000992344
-0.000181357
0.00107443
-0.000202164
0.00111575
-0.000210964
0.0011334
-0.000208572
0.0011383
-0.000196264
0.00113632
-0.000175617
0.00112941
-0.000148521
0.00111658
-0.000117277
0.00109479
-8.46842e-05
0.00105964
-5.40698e-05
0.00100608
-2.92568e-05
0.000929131
-1.43958e-05
0.000824397
-1.36956e-05
0.000688413
-3.13163e-05
0.000518742
-7.11943e-05
0.000313485
-0.000136413
7.02383e-05
-0.000228812
-0.000215425
-0.000347846
-0.000550004
-0.000488997
-0.000942101
-0.000639128
-0.0013998
-0.000771217
-0.00191913
-0.000838642
-0.00246305
-0.000779658
-0.00292089
-0.000551004
-0.0030583
-0.00021139
-0.00251693
-0.00105192
-2.62118e-05
0.00027074
-7.81188e-05
0.000657689
-0.00013145
0.00089913
-0.000172843
0.00103374
-0.000197164
0.00109875
-0.000203708
0.0011223
-0.000193723
0.00112341
-0.000169138
0.00111372
-0.000132073
0.00109926
-8.4754e-05
0.00108209
-2.96092e-05
0.00106144
3.05248e-05
0.00103466
9.23555e-05
0.000997805
0.000152016
0.000946418
0.000205134
0.000876013
0.000246966
0.000782564
0.000272602
0.000662778
0.000277279
0.000514065
0.000256677
0.000334086
0.000207048
0.000119868
0.000125202
-0.000133578
9.27864e-06
-0.000434081
-0.000139752
-0.000793071
-0.000316174
-0.00122338
-0.000501007
-0.0017343
-0.000652266
-0.00231179
-0.000698903
-0.00287425
-0.00056261
-0.0031946
-0.000249245
-0.00283029
-0.00130116
-4.11599e-05
0.0003119
-0.000111581
0.00072811
-0.000174629
0.000962178
-0.000214551
0.00107366
-0.000227975
0.00111217
-0.000216796
0.00111112
-0.00018448
0.0010911
-0.000134563
0.0010638
-7.02579e-05
0.00103495
5.50898e-06
0.00100632
8.96896e-05
0.000977258
0.000179121
0.000945225
0.000270133
0.000906792
0.00035855
0.000858001
0.000439708
0.000794855
0.000508596
0.000713676
0.000560077
0.000611296
0.000589141
0.000485001
0.000591099
0.000332128
0.00056165
0.000149317
0.000496635
-6.85631e-05
0.000392426
-0.000329873
0.000245595
-0.000646239
5.59293e-05
-0.00103371
-0.000168147
-0.00151022
-0.000396244
-0.0020837
-0.00055668
-0.00271382
-0.000540877
-0.0032104
-0.000287373
-0.0030838
-0.00158854
-6.88094e-05
0.000380709
-0.000167006
0.000826306
-0.000241006
0.00103618
-0.000275247
0.0011079
-0.000271126
0.00110805
-0.000235102
0.00107509
-0.000173916
0.00102991
-9.31898e-05
0.000983072
2.62331e-06
0.000939138
0.000109743
0.000899203
0.000224901
0.0008621
0.000344648
0.000825478
0.000465262
0.000786178
0.000582582
0.000740681
0.000692003
0.000685434
0.00078858
0.0006171
0.000867202
0.000532674
0.000922788
0.000429415
0.000950392
0.000304525
0.000945163
0.000154546
0.000901963
-2.53629e-05
0.000815491
-0.0002434
0.000679333
-0.000510081
0.00048721
-0.000841592
0.000237085
-0.0012601
-5.57123e-05
-0.0017909
-0.000335224
-0.0024343
-0.000467081
-0.00307854
-0.000316742
-0.00323414
-0.00190528
-0.000119032
0.000499741
-0.000252925
0.000960199
-0.000330218
0.00111347
-0.000344121
0.0011218
-0.000306273
0.0010702
-0.000230423
0.000999242
-0.000127696
0.000927184
-6.11869e-06
0.000861494
0.000128651
0.000804368
0.000272498
0.000755356
0.000421985
0.000712613
0.000573915
0.000673548
0.000724928
0.000635164
0.000871302
0.000594307
0.00100888
0.000547852
0.00113314
0.000492847
0.00123924
0.000426567
0.00132221
0.000346446
0.00137691
0.000249831
0.00139788
0.000133574
0.00137878
-6.26122e-06
0.00131305
-0.000177668
0.00119148
-0.00038852
0.00100325
-0.000653357
0.000737054
-0.000993903
0.000391329
-0.00144517
5.80844e-06
-0.00204878
-0.000309901
-0.00276283
-0.000323981
-0.00322006
-0.00222926
-0.000207761
0.000707502
-0.000368231
0.00112067
-0.000413311
0.00115855
-0.000367242
0.00107573
-0.000260395
0.000963356
-0.0001164
0.000855248
4.91776e-05
0.000761606
0.000226739
0.000683933
0.000410507
0.000620601
0.000596878
0.000568984
0.000783303
0.000526189
0.000967557
0.000489294
0.00114729
0.000455427
0.00131978
0.000421821
0.00148178
0.000385856
0.00162952
0.000345105
0.00175876
0.00029733
0.0018648
0.000240404
0.00194249
0.000172143
0.0019859
9.0156e-05
0.00198757
-7.92741e-06
0.00193976
-0.000129861
0.00183104
-0.000279796
0.00164729
-0.000469604
0.00137063
-0.000717246
0.000982863
-0.00105741
0.000486341
-0.00155226
-1.34244e-05
-0.00226307
-0.000266473
-0.00296701
-0.00249573
-0.000345661
0.00105316
-0.000439239
0.00121425
-0.000348336
0.00106765
-0.000158642
0.000886041
7.47185e-05
0.000729996
0.000323033
0.000606933
0.000571865
0.000512774
0.000814607
0.000441192
0.00104871
0.000386502
0.00127348
0.000344207
0.0014889
0.000310771
0.00169488
0.000283315
0.00189091
0.000259398
0.00207584
0.000236892
0.00224777
0.000213922
0.00240405
0.000188821
0.00254128
0.000160103
0.0026553
0.000126389
0.00274117
8.62646e-05
0.00279306
3.82752e-05
0.00280413
-1.90045e-05
0.00276411
-8.98378e-05
0.00266133
-0.000177017
0.00247971
-0.000287981
0.00219736
-0.000434902
0.00178515
-0.000645197
0.00121183
-0.000978939
0.000520345
-0.00157158
-2.08488e-05
-0.00242581
-0.00251658
-0.000306237
0.0013594
-5.76044e-05
0.000965614
0.000367844
0.000642201
0.000787818
0.000466067
0.00117187
0.000345947
0.0015159
0.000262896
0.00182235
0.000206333
0.00209611
0.000167426
0.00234263
0.000139986
0.00256673
0.000120106
0.00277225
0.000105252
0.00296191
9.36473e-05
0.00313735
8.39602e-05
0.0032991
7.51481e-05
0.00344665
6.63654e-05
0.00357856
5.69092e-05
0.00369248
4.61895e-05
0.00378518
3.369e-05
0.00385242
1.90255e-05
0.00388861
2.08491e-06
0.00388965
-2.00487e-05
0.00384484
-4.50297e-05
0.00374375
-7.59302e-05
0.00357118
-0.000115401
0.00330436
-0.000168091
0.00290748
-0.000248312
0.00232075
-0.000392212
0.00148698
-0.000737812
0.000505393
-0.00144423
-0.00201119
0.0013594
0.00232501
0.00296721
0.00343328
0.00377923
0.00404212
0.00424846
0.00441588
0.00455587
0.00467598
0.00478123
0.00487488
0.00495884
0.00503398
0.00510035
0.00515726
0.00520345
0.00523714
0.00525616
0.00525825
0.0052382
0.00519317
0.00511724
0.00500184
0.00483375
0.00458544
0.00419322
0.00345541
0.00201119
)
;

boundaryField
{
    movingWall
    {
        type            calculated;
        value           uniform 0;
    }
    fixedWalls
    {
        type            calculated;
        value           uniform 0;
    }
    frontAndBack
    {
        type            empty;
        value           nonuniform 0();
    }
}


// ************************************************************************* //
