/*--------------------------------*- C++ -*----------------------------------*\
  =========                 |
  \\      /  F ield         | OpenFOAM: The Open Source CFD Toolbox
   \\    /   O peration     | Website:  https://openfoam.org
    \\  /    A nd           | Version:  7
     \\/     M anipulation  |
\*---------------------------------------------------------------------------*/
FoamFile
{
    version     2.0;
    format      ascii;
    class       surfaceScalarField;
    location    "1.08";
    object      phi;
}
// * * * * * * * * * * * * * * * * * * * * * * * * * * * * * * * * * * * * * //

dimensions      [0 3 -1 0 0 0 0];

internalField   nonuniform List<scalar> 
3784
(
-0.00255189
0.00255189
-0.00267862
0.000126731
-0.0014226
-0.00125603
-0.000497863
-0.000924732
-9.29282e-05
-0.000404935
0.000496975
-0.000589903
0.00113151
-0.000634537
0.00135272
-0.000221209
0.000867657
0.000485065
-0.000169651
0.00103731
-0.00108566
0.000916011
-0.00104888
-3.67762e-05
6.81899e-05
-0.00111708
0.00133167
-0.00126348
0.00158379
-0.000252118
0.0004591
0.00112469
-0.0010117
0.0014708
-0.00151324
0.000501534
-0.000622024
-0.000891212
0.000843283
-0.00146531
0.00145942
-0.000616135
0.000495778
0.000963641
-0.00102771
0.00152349
-0.00158918
0.000561472
-0.000614262
-0.000974921
0.000936283
-0.00155054
0.00167204
-0.00073576
0.00089334
0.000778702
-0.00055439
0.00144773
-0.00145768
0.000903295
-0.00118802
-0.000269665
0.000171864
-0.00135988
0.00148852
-0.00131666
0.00122217
0.000266353
-0.000315062
0.00153723
-0.00133137
0.00101631
-0.000651368
-0.00068
0.000836289
-0.00148766
0.00159838
-0.000762096
0.00122642
0.000371961
-0.00011294
0.00133936
-0.0014134
0.00130046
-0.0013278
-8.56015e-05
-0.0013278
-0.00349548
0.00604737
-0.00381762
0.000448868
-0.00164816
-0.00342548
-0.000630317
-0.00194258
-0.000296745
-0.00073851
0.000499366
-0.00138601
0.00127999
-0.00141516
0.00143011
-0.000371327
0.00081312
0.00110205
-8.79163e-05
0.00193834
-0.00100963
0.00183772
-0.0013807
0.000334292
6.40943e-06
-0.00250418
0.00177174
-0.00302881
0.00159711
-7.74879e-05
0.000374534
0.00234726
-0.000847562
0.0026929
-0.00182881
0.00148278
-0.0008994
-0.00182062
0.00124631
-0.00361102
0.00154046
-0.000910286
0.000371693
0.00213241
-0.000856661
0.00275184
-0.00185466
0.00155947
-0.000911011
-0.00191857
0.00135634
-0.00381789
0.00179534
-0.00117476
0.000720107
0.00185393
-0.000424554
0.00259239
-0.00164358
0.00212232
-0.00169532
-0.000217921
0.000292432
-0.00334764
0.00174819
-0.00277242
0.00108735
0.000927201
-0.000212659
0.00283724
-0.001371
0.00217464
-0.00096998
-0.00108101
0.0011735
-0.00363114
0.00200819
-0.00159678
0.00107177
0.00130838
-4.62167e-05
0.00245735
-0.00129719
0.00255144
-0.00180022
0.000417426
-0.00312803
-0.00330841
0.00935578
-0.00408777
0.00122823
-0.00213469
-0.00537856
-0.00077891
-0.00329835
-0.000264342
-0.00125307
0.000562704
-0.00221306
0.00142509
-0.00227754
0.00158604
-0.000532284
0.000860255
0.00182784
-0.000229209
0.00302781
-0.0013157
0.00292421
-0.00164646
0.00066506
1.91018e-05
-0.00416975
0.00206544
-0.00507515
0.00192978
5.81795e-05
0.000448937
0.00382809
-0.001115
0.00425684
-0.00216199
0.00252977
-0.000950241
-0.00303237
0.00152614
-0.00608739
0.00190159
-0.00128573
0.000518397
0.0035156
-0.0010472
0.00431744
-0.00218517
0.00269743
-0.001044
-0.00305974
0.00154845
-0.00641034
0.0020696
-0.00169591
0.000709945
0.00321359
-0.00082069
0.00412303
-0.00210659
0.00340822
-0.00177966
-0.000544852
0.000613128
-0.00574043
0.00208072
-0.00424002
0.00117916
0.00182876
-0.000377129
0.00439353
-0.00173606
0.00353357
-0.00136688
-0.00145019
0.00107669
-0.00607471
0.00233887
-0.00285896
0.00143393
0.00221331
-4.62043e-05
0.00393749
-0.00161979
0.00412503
-0.00210739
0.000905024
-0.00523541
-0.00264668
0.0120025
-0.0036861
0.00226765
-0.00247758
-0.00658708
-0.00120403
-0.00457191
-0.00042221
-0.00203489
0.000360208
-0.00299548
0.00101189
-0.00292922
0.0010597
-0.000580096
0.000477686
0.00240986
-0.000273578
0.00377907
-0.000959859
0.00361049
-0.00112251
0.000827707
7.57243e-05
-0.00536798
0.00150446
-0.00650388
0.00137469
0.000187947
0.000311799
0.00489098
-0.000773246
0.00534188
-0.0014991
0.00325562
-0.000615767
-0.0039157
0.00109998
-0.00780314
0.00131396
-0.00149972
0.000366901
0.00446266
-0.000674055
0.0053584
-0.00148987
0.00351325
-0.000719156
-0.00383045
0.00105991
-0.00818941
0.00134945
-0.00198545
0.000315758
0.00424727
-0.000790271
0.00522905
-0.0016317
0.00424965
-0.00118448
-0.000992069
0.000572911
-0.00749782
0.00138062
-0.00504773
0.000647813
0.00256157
-0.000288988
0.00533033
-0.00117421
0.00441879
-0.00103745
-0.00158694
0.000644413
-0.00775657
0.00168528
-0.00389983
0.0010862
0.00281239
1.11944e-05
0.0050125
-0.00108075
0.00521698
-0.00144251
0.00126678
-0.00667792
-0.00193652
0.013939
-0.00317195
0.00350308
-0.00268001
-0.00707902
-0.00162946
-0.00562246
-0.000681836
-0.00298252
-9.81299e-06
-0.0036675
0.000399978
-0.00333901
0.000383031
-0.000563149
1.89791e-05
0.00277391
-0.000332249
0.0041303
-0.000592756
0.003871
-0.000587239
0.000822192
0.000107345
-0.00606257
0.000883848
-0.00728039
0.000737411
0.000334386
0.000182311
0.00544608
-0.000402228
0.00592642
-0.000789457
0.00364285
-0.000241014
-0.00446415
0.000650132
-0.00869428
0.000682597
-0.00153219
0.000219302
0.00492596
-0.000304367
0.00588207
-0.000761934
0.00397081
-0.000378101
-0.00421428
0.000546493
-0.009114
0.000603359
-0.00204232
1.15596e-05
0.00483908
-0.000631179
0.00587179
-0.000997465
0.00461594
-0.000495581
-0.00149395
0.000501838
-0.00849524
0.000661465
-0.00520735
0.000143094
0.00307994
-0.000194885
0.00566831
-0.000575689
0.00479959
-0.000665517
-0.00149712
0.000159498
-0.00858159
0.000955485
-0.00469582
0.000653844
0.00311403
4.98788e-05
0.00561647
-0.000487266
0.00575412
-0.000749094
0.00152861
-0.00742702
-0.00107555
0.0150145
-0.00243103
0.00485856
-0.00264576
-0.00686429
-0.00194198
-0.00632624
-0.00103105
-0.00389345
-0.000538666
-0.00415989
-0.000376298
-0.00350138
-0.000408674
-0.000530773
-0.000449572
0.00281481
-0.000364345
0.00404507
-0.000199567
0.00370622
-6.89241e-05
0.000691551
0.000114127
-0.00624562
0.000237455
-0.00740371
0.000101154
0.000470689
3.98028e-05
0.00550743
-5.9462e-06
0.00597217
-1.93733e-05
0.00365628
0.000133213
-0.00461673
0.000210452
-0.00877152
4.51131e-05
-0.00136685
4.14709e-05
0.0049296
4.86123e-05
0.00587493
-7.9934e-06
0.00402742
-3.90428e-05
-0.00418323
1.94907e-05
-0.00917254
-0.000103684
-0.00191914
-0.000214618
0.00495001
-0.000312878
0.00597005
-0.000226939
0.00453
0.000186576
-0.00190747
0.000374015
-0.00868268
-3.23515e-05
-0.00480099
-0.000245768
0.00329335
-6.57825e-05
0.00548832
3.15497e-05
0.00470226
-0.000258079
-0.00120749
-0.000281848
-0.00855782
0.000155447
-0.00513311
0.00018362
0.00308586
7.72719e-05
0.00572281
6.17327e-05
0.00576966
-7.23658e-05
0.0016627
-0.00749938
-4.47874e-05
0.0150593
-0.00131881
0.00613259
-0.00223632
-0.00594678
-0.00205036
-0.0065122
-0.00138117
-0.00456263
-0.00111836
-0.0044227
-0.00117852
-0.00344122
-0.00118179
-0.000527507
-0.000872457
0.00250548
-0.000366039
0.00353865
0.000132416
0.00320776
0.000384533
0.000439434
9.30727e-05
-0.00595416
-0.000396747
-0.0069139
-0.000479838
0.00055378
-9.32149e-05
0.00512081
0.000381651
0.00549731
0.000686025
0.00335191
0.000457699
-0.00438841
-0.000212921
-0.0081009
-0.000513449
-0.00106632
-0.000149017
0.00456517
0.000351764
0.00537414
0.00065587
0.00372331
0.000256374
-0.00378374
-0.000456359
-0.0084598
-0.000705762
-0.00166974
-0.000367073
0.00461132
9.09522e-05
0.00551202
0.000549384
0.00407157
0.000751493
-0.00210958
0.000183483
-0.00811467
-0.000600252
-0.00401725
-0.000491495
0.00318459
9.78542e-05
0.00489897
0.000552058
0.00424806
0.000155507
-0.000810938
-0.000601532
-0.00780078
-0.000626129
-0.00510851
-0.000289217
0.00274895
7.29831e-05
0.00536061
0.000506315
0.00533633
0.000567355
0.00160167
-0.00693203
0.0011447
0.0139146
0.000244334
0.00703296
-0.00135867
-0.00434377
-0.00182014
-0.00605073
-0.00157313
-0.00480965
-0.00161673
-0.0043791
-0.00184202
-0.00321593
-0.00174128
-0.000628248
-0.00113361
0.00189781
-0.000374605
0.00277964
0.000330603
0.00250255
0.000721879
4.81582e-05
2.9142e-05
-0.00526142
-0.000974548
-0.00591021
-0.00093254
0.000511772
-0.000178754
0.00436702
0.000716081
0.00460247
0.001288
0.00277999
0.000684722
-0.00378513
-0.000600838
-0.00681534
-0.000894189
-0.000772966
-0.000281699
0.00395268
0.000585023
0.00450742
0.00115142
0.00315691
0.000482549
-0.00311486
-0.000858766
-0.00711849
-0.00110918
-0.00141932
-0.000443926
0.00394606
0.000452714
0.00461539
0.00114441
0.00337988
0.00108911
-0.00205428
-9.86599e-05
-0.0069269
-0.00100808
-0.00310783
-0.000624882
0.00280139
0.000222878
0.00405121
0.000907405
0.00356353
0.000588296
-0.000491827
-0.000734457
-0.00647803
-0.00127037
-0.0045726
-0.000720372
0.00219894
3.50365e-05
0.0046052
0.000830938
0.00454043
0.00107233
0.00136027
-0.00585969
0.00221028
0.0117043
0.00203911
0.00720412
-2.20252e-05
-0.00228264
-0.00115768
-0.00491507
-0.00144761
-0.00451972
-0.00180846
-0.00401825
-0.00215521
-0.00286917
-0.0019913
-0.000792162
-0.00122974
0.00113625
-0.000337413
0.00188732
0.000491913
0.00167323
0.000912431
-0.000372358
-8.34178e-05
-0.00426558
-0.00140507
-0.00458856
-0.00120376
0.000310467
-0.000238606
0.00340187
0.000857326
0.00350654
0.00162378
0.00201354
0.000754966
-0.00291632
-0.000908804
-0.00515157
-0.00113742
-0.000544353
-0.000343927
0.00315919
0.000713435
0.00345006
0.00144739
0.00242295
0.000638092
-0.00230556
-0.0010943
-0.0053861
-0.00137963
-0.00113399
-0.000484309
0.00305074
0.000614082
0.003517
0.00147823
0.00251573
0.00119308
-0.00176913
-0.000409645
-0.00532418
-0.00129978
-0.00221769
-0.000697721
0.00219933
0.000277679
0.00307581
0.00107622
0.00276499
0.000932411
-0.000348016
-0.000687581
-0.00485804
-0.00167715
-0.00358303
-0.000994738
0.00151653
-3.68293e-06
0.00361415
0.0009758
0.00356094
0.00140097
0.000935101
-0.00445872
0.00271752
0.00898681
0.00346044
0.00646121
0.00150121
-0.000323406
-0.000104747
-0.00330911
-0.000946941
-0.00367753
-0.00161424
-0.00335095
-0.0020551
-0.00242832
-0.00189521
-0.000952059
-0.00115595
0.000396988
-0.000266788
0.000998162
0.000564695
0.000841742
0.000879709
-0.000687371
-0.000240783
-0.00314509
-0.00163882
-0.00319053
-0.00139738
6.90267e-05
-0.000314451
0.00231894
0.000825387
0.0023667
0.00160481
0.00123411
0.000667931
-0.00197943
-0.00107845
-0.00340519
-0.00126493
-0.000357872
-0.000351925
0.00224618
0.000683928
0.0024142
0.00148453
0.00162235
0.000694065
-0.0015151
-0.00112491
-0.00356712
-0.00144094
-0.000817969
-0.000453243
0.00206305
0.000658724
0.00240503
0.00154098
0.00163347
0.00111288
-0.00134102
-0.000607796
-0.0036035
-0.00137164
-0.00145384
-0.000638215
0.0014659
0.000298084
0.00213951
0.00115827
0.0019048
0.00110027
-0.000290014
-0.00054349
-0.00321428
-0.00172622
-0.0024003
-0.00112749
0.000917804
-1.26327e-05
0.0024993
0.0010673
0.00248101
0.00148708
0.000515314
-0.00297164
0.00256785
0.00641895
0.00389806
0.005131
0.00263117
0.000943486
0.000989703
-0.00166764
-0.000183409
-0.00250442
-0.00106688
-0.00246748
-0.00158494
-0.00191025
-0.00152064
-0.00101637
-0.00094574
-0.000177906
-0.000192458
0.000244881
0.000510703
0.000138575
0.000645496
-0.000822166
-0.000401715
-0.00209787
-0.00160656
-0.00198568
-0.00140407
-0.000133459
-0.000375301
0.00129017
0.000636186
0.00135521
0.00126914
0.000601163
0.000462641
-0.00117294
-0.00104715
-0.0018954
-0.00120308
-0.000201947
-0.000324179
0.00136729
0.0005812
0.00150883
0.00127428
0.000929275
0.000626569
-0.000867389
-0.000951951
-0.0019886
-0.00125844
-0.000511484
-0.000366861
0.00117147
0.000602331
0.00143584
0.00135641
0.000879387
0.00089815
-0.00088276
-0.000620661
-0.00208469
-0.00120938
-0.00086512
-0.000553837
0.000810352
0.000275165
0.00131051
0.00106726
0.0011127
0.0010112
-0.000233945
-0.000393737
-0.00180935
-0.00145907
-0.00133496
-0.00103279
0.00049152
-1.17323e-05
0.00147824
0.000998365
0.00147092
0.00129333
0.000220351
-0.00167831
0.00207031
0.00434865
0.00347454
0.00372678
0.00293596
0.00148207
0.00174281
-0.000474488
0.000567854
-0.00132947
-0.000349366
-0.00155026
-0.00089667
-0.00136295
-0.000966623
-0.000946417
-0.000622612
-0.000521921
-9.09289e-05
-0.000286804
0.000382775
-0.00033513
0.000353331
-0.000792721
-0.000455575
-0.00128896
-0.00130704
-0.00113422
-0.00118522
-0.000255275
-0.000401724
0.000506678
0.000358105
0.000595381
0.000771921
0.000187349
0.000202943
-0.000603959
-0.000832374
-0.00086009
-0.000949116
-8.5206e-05
-0.000279537
0.000697712
0.000414445
0.000814848
0.000897948
0.00044577
0.000444106
-0.000413548
-0.00065145
-0.000893038
-0.00089658
-0.000266354
-0.000259588
0.00053448
0.000470054
0.000706194
0.000990771
0.00035867
0.000606851
-0.000498841
-0.000472853
-0.00100499
-0.000884294
-0.000453681
-0.000430682
0.000356739
0.000207749
0.000672082
0.000790259
0.000530192
0.000703581
-0.000147269
-0.00028265
-0.000823115
-0.00103086
-0.000586758
-0.000767856
0.000228519
-1.74304e-05
0.000727818
0.000749413
0.000704075
0.000906643
6.31209e-05
-0.000771671
0.00130667
0.00304198
0.00247228
0.00256117
0.00256549
0.00138886
0.00184364
0.000247367
0.000996351
-0.000482181
0.000260764
-0.000814681
-0.000213734
-0.000888453
-0.000358986
-0.000801163
-0.000220844
-0.000660066
5.37049e-05
-0.000561358
0.000276859
-0.000558284
0.000158811
-0.000674666
-0.000362686
-0.000767462
-0.000864993
-0.00063191
-0.000831439
-0.000288829
-0.000371745
4.69873e-05
0.000103656
0.00011998
0.000318528
-2.75278e-05
-9.74027e-06
-0.000275693
-0.000550969
-0.000318861
-0.000620313
-1.58603e-05
-0.000217263
0.000294663
0.000235419
0.000362166
0.000502525
0.000178663
0.000235568
-0.000146591
-0.000350291
-0.000307177
-0.000505876
-0.00011077
-0.000148893
0.000177495
0.000307303
0.000249997
0.000582737
8.32358e-05
0.000323212
-0.000239316
-0.000282315
-0.000399459
-0.000534526
-0.000201471
-0.000291707
0.000113918
0.000118977
0.0002614
0.000452705
0.000196463
0.000364413
-5.89788e-05
-0.000186241
-0.000272462
-0.000597908
-0.00017509
-0.000469742
0.000100355
-2.12171e-05
0.000279293
0.000435325
0.000247532
0.000498801
-3.54367e-07
-0.000272871
0.000850891
0.00219109
0.00154331
0.00186875
0.00178006
0.00115211
0.00150176
0.000525666
0.00103989
-2.03142e-05
0.000584773
-0.000359561
0.000260087
-0.000563774
0.000113554
-0.000654634
0.000119646
-0.000666157
0.000192903
-0.000634613
0.000221417
-0.000586797
8.51359e-05
-0.000538384
-0.000203432
-0.000478892
-0.000446937
-0.000388405
-0.000466337
-0.000269429
-0.000269111
-0.000150236
-3.8777e-05
-0.000110354
4.64813e-05
-0.00011279
-9.45381e-05
-0.000134674
-0.000315575
-9.7821e-05
-0.000333232
1.79706e-06
-0.000141387
0.000102816
9.94339e-05
0.000121345
0.000217349
6.0749e-05
0.000101578
-3.0818e-05
-0.000135118
-7.04794e-05
-0.000213042
-3.28497e-05
-5.71845e-05
2.16339e-05
0.000163198
2.96142e-05
0.000267173
-2.07373e-05
0.000127492
-9.96342e-05
-0.000141923
-0.000130044
-0.000268297
-7.50972e-05
-0.000166281
1.19005e-05
4.2782e-05
5.23359e-05
0.000192416
4.68289e-05
0.000141545
-8.10809e-06
-9.51778e-05
-3.57378e-05
-0.000270705
4.3706e-07
-0.000219336
4.89871e-05
-1.12081e-05
7.11655e-05
0.000191164
4.5157e-05
0.0002103
-1.94921e-05
-6.25697e-05
0.00060591
0.00158518
0.00102384
0.00145082
0.00119015
0.000985794
0.00114934
0.000566479
0.000917529
0.00021149
0.00068409
-0.000126119
0.000485623
-0.000365308
0.000352707
-0.000521722
0.000279898
-0.000593348
0.000233289
-0.000587999
0.000173058
-0.000526563
7.29894e-05
-0.000438319
-5.264e-05
-0.000353263
-0.000151835
-0.000289206
-0.000177944
-0.000243318
-0.000123888
-0.000204293
-6.41589e-05
-0.000170082
-4.38704e-05
-0.000133079
-8.92981e-05
-8.9247e-05
-0.000144316
-4.28031e-05
-0.000138665
-3.85535e-06
-5.89123e-05
2.30623e-05
3.61211e-05
2.63156e-05
8.08219e-05
1.60523e-05
4.74388e-05
2.56445e-06
-1.68018e-05
-6.24223e-06
-3.87905e-05
-1.08642e-05
4.93598e-06
-2.20942e-05
7.10094e-05
-3.64568e-05
9.28724e-05
-4.25963e-05
3.81816e-05
-4.49428e-05
-5.24541e-05
-3.94101e-05
-9.96708e-05
-2.78814e-05
-6.72156e-05
-2.05537e-05
5.5234e-07
-1.54295e-05
5.64383e-05
-9.05625e-06
3.89022e-05
9.42726e-06
-2.55992e-05
2.8765e-05
-6.81078e-05
4.29458e-05
-5.16264e-05
3.25041e-05
1.17456e-05
7.79405e-06
6.71874e-05
-1.02845e-05
6.08485e-05
-1.31569e-05
-1.72165e-06
0.000477522
0.00110766
0.000826726
0.00110161
0.000976239
0.000836282
0.000985665
0.000557054
0.000910791
0.000286361
0.000750639
3.40311e-05
0.000593512
-0.000208178
0.000447055
-0.000375263
0.000320334
-0.000466627
0.000215657
-0.000483323
0.000131868
-0.000442774
6.81691e-05
-0.000374622
2.31122e-05
-0.000308206
-5.98465e-06
-0.000260104
-2.00556e-05
-0.000229244
-2.12934e-05
-0.000203057
-2.16675e-05
-0.000169709
-2.84584e-05
-0.000126287
-3.66252e-05
-8.10821e-05
-3.79972e-05
-4.14335e-05
-2.27093e-05
-1.91425e-05
9.25153e-06
-8.89553e-06
3.96113e-05
-4.04028e-06
5.49836e-05
6.81385e-07
5.49561e-05
2.58758e-06
4.79978e-05
7.10901e-07
4.58503e-05
-8.71677e-06
4.71977e-05
-2.34385e-05
4.53355e-05
-3.45918e-05
3.73979e-05
-3.46564e-05
1.95969e-05
-2.71419e-05
6.33568e-07
-2.04483e-05
-8.04001e-06
-1.9207e-05
-3.59953e-06
-2.49917e-05
7.43214e-06
-2.64573e-05
1.34036e-05
-1.5026e-05
1.59345e-05
6.89311e-06
1.61975e-05
2.85001e-05
2.26422e-05
3.65031e-05
3.00783e-05
2.50697e-05
3.33191e-05
4.55178e-06
2.85041e-05
-5.46856e-06
1.40481e-05
1.29808e-06
1.23242e-05
0.000368339
0.000739324
0.000688821
0.000781132
0.000871698
0.000653404
0.000938236
0.000490518
0.000917495
0.000307105
0.000832951
0.000118574
0.000689741
-6.49675e-05
0.00053001
-0.000215529
0.00037522
-0.000311835
0.00024388
-0.000351986
0.000148028
-0.000346924
8.90592e-05
-0.000315652
5.88623e-05
-0.000278006
4.40433e-05
-0.000245282
3.29519e-05
-0.000218152
2.07949e-05
-0.000190902
9.20967e-06
-0.000158125
3.44101e-06
-0.000120518
6.49605e-06
-8.41388e-05
2.02307e-05
-5.51693e-05
3.76358e-05
-3.65435e-05
5.44405e-05
-2.56959e-05
6.67786e-05
-1.63793e-05
7.55485e-05
-8.09238e-06
8.06427e-05
-2.51013e-06
8.34492e-05
-2.09753e-06
8.35733e-05
-8.83853e-06
7.7682e-05
-1.75431e-05
6.55922e-05
-2.25007e-05
5.23324e-05
-2.1397e-05
4.2113e-05
-1.69224e-05
3.67377e-05
-1.50716e-05
3.49707e-05
-1.74365e-05
3.13597e-05
-2.1379e-05
2.58435e-05
-2.09412e-05
2.19579e-05
-1.11396e-05
2.47797e-05
4.071e-06
3.42282e-05
1.905e-05
4.53087e-05
2.54223e-05
4.87243e-05
2.1658e-05
3.91205e-05
1.41542e-05
2.23556e-05
1.12931e-05
7.50461e-06
1.61493e-05
1.98292e-05
0.000259434
0.000479892
0.000515925
0.000524643
0.000702251
0.000467076
0.000811098
0.000381672
0.000845773
0.000272432
0.000816049
0.0001483
0.000723831
2.72511e-05
0.000597384
-8.90823e-05
0.000458291
-0.000172742
0.000329582
-0.00022328
0.000226325
-0.000243668
0.000153645
-0.000242969
0.000106525
-0.000230882
7.55553e-05
-0.000214314
5.25939e-05
-0.000195193
3.43086e-05
-0.000172617
2.22044e-05
-0.00014602
1.90268e-05
-0.00011734
2.51152e-05
-9.02276e-05
3.76471e-05
-6.76992e-05
5.15257e-05
-5.04183e-05
6.28817e-05
-3.70516e-05
7.23912e-05
-2.58935e-05
8.18339e-05
-1.75393e-05
8.94906e-05
-1.01676e-05
9.51983e-05
-7.80474e-06
9.55297e-05
-9.16872e-06
8.97659e-05
-1.17776e-05
8.00097e-05
-1.27438e-05
7.0271e-05
-1.1658e-05
6.35152e-05
-1.01656e-05
5.86878e-05
-1.02429e-05
5.33785e-05
-1.21252e-05
4.46368e-05
-1.26366e-05
3.44132e-05
-1.0719e-05
2.77815e-05
-4.5089e-06
2.67931e-05
5.06212e-06
3.167e-05
1.41765e-05
3.71896e-05
1.98987e-05
3.69659e-05
2.18791e-05
2.8757e-05
2.23628e-05
1.63329e-05
2.37145e-05
5.68631e-06
2.67947e-05
2.55167e-05
0.000169211
0.000310681
0.000349021
0.000344833
0.000499489
0.000316608
0.000609796
0.000271368
0.000672467
0.000209762
0.000684507
0.000136261
0.000653133
5.86257e-05
0.000580507
-1.64554e-05
0.000486536
-7.87719e-05
0.000387818
-0.000124563
0.000297301
-0.000153151
0.000221681
-0.000167348
0.000161942
-0.000171143
0.00011528
-0.000167654
7.88355e-05
-0.000158749
5.14231e-05
-0.000145203
3.33722e-05
-0.000127968
2.48496e-05
-0.000108819
2.45269e-05
-8.99037e-05
2.9624e-05
-7.27917e-05
3.71604e-05
-5.79538e-05
4.52103e-05
-4.51065e-05
5.32171e-05
-3.39049e-05
6.02938e-05
-2.4617e-05
6.79831e-05
-1.78571e-05
7.3989e-05
-1.38108e-05
7.58429e-05
-1.1022e-05
7.32758e-05
-9.21e-06
6.83039e-05
-7.77179e-06
6.29562e-05
-6.30892e-06
5.80018e-05
-5.20994e-06
5.25411e-05
-4.78231e-06
4.51156e-05
-4.70095e-06
3.6487e-05
-4.00837e-06
2.74914e-05
-1.72081e-06
2.05606e-05
2.42227e-06
1.70193e-05
8.60215e-06
1.67508e-05
1.44489e-05
1.73292e-05
1.93193e-05
1.61056e-05
2.30964e-05
1.23435e-05
2.61225e-05
7.18903e-06
2.88699e-05
2.68981e-06
3.12948e-05
2.82069e-05
0.000108897
0.000201784
0.000228365
0.000225365
0.000335633
0.000209341
0.000423424
0.000183578
0.000484851
0.000148334
0.00051538
0.00010573
0.000514628
5.93773e-05
0.000481494
1.66779e-05
0.000430732
-2.80107e-05
0.000368849
-6.26814e-05
0.000304226
-8.85278e-05
0.000242738
-0.000105863
0.000187391
-0.000115797
0.000139361
-0.000119624
9.89318e-05
-0.000118318
6.64837e-05
-0.000112753
4.22305e-05
-0.000103715
2.60918e-05
-9.2681e-05
1.69326e-05
-8.07415e-05
1.30152e-05
-6.88715e-05
1.2667e-05
-5.76091e-05
1.46774e-05
-4.71233e-05
1.83095e-05
-3.75386e-05
2.28189e-05
-2.9126e-05
2.71431e-05
-2.21836e-05
3.00939e-05
-1.6763e-05
3.16272e-05
-1.25533e-05
3.16051e-05
-9.18678e-06
3.02201e-05
-6.38712e-06
2.79982e-05
-4.08706e-06
2.52971e-05
-2.50951e-06
2.16591e-05
-1.14377e-06
1.66408e-05
3.17596e-07
1.07654e-05
1.86451e-06
4.64095e-06
4.40624e-06
-5.70097e-07
7.63777e-06
-3.42587e-06
1.14547e-05
-4.38449e-06
1.54055e-05
-4.21074e-06
1.91478e-05
-3.65434e-06
2.25399e-05
-3.11432e-06
2.55812e-05
-2.44054e-06
2.81968e-05
-1.33151e-06
3.01873e-05
2.68757e-05
7.20446e-05
0.00012974
0.000151865
0.000145544
0.000225289
0.000135918
0.000288023
0.000120844
0.000335783
0.000100572
0.000365347
7.61633e-05
0.000375389
4.9335e-05
0.000369713
2.2354e-05
0.000343665
-1.96328e-06
0.00030835
-2.73673e-05
0.000266706
-4.6885e-05
0.000222712
-6.18697e-05
0.00017931
-7.2395e-05
0.000138445
-7.87562e-05
0.000101497
-8.13662e-05
6.94487e-05
-8.07048e-05
4.32236e-05
-7.74912e-05
2.26715e-05
-7.21273e-05
7.4003e-06
-6.54672e-05
-3.35033e-06
-5.81218e-05
-1.04568e-05
-5.05078e-05
-1.46104e-05
-4.29725e-05
-1.64066e-05
-3.57412e-05
-1.65072e-05
-2.90259e-05
-1.56749e-05
-2.30182e-05
-1.46091e-05
-1.78277e-05
-1.37401e-05
-1.34197e-05
-1.32564e-05
-9.67078e-06
-1.3181e-05
-6.46172e-06
-1.3542e-05
-3.7246e-06
-1.46204e-05
-1.43415e-06
-1.62185e-05
4.53826e-07
-1.82405e-05
2.34419e-06
-2.08902e-05
4.51345e-06
-2.31914e-05
6.70545e-06
-2.46576e-05
9.10829e-06
-2.48902e-05
1.16886e-05
-2.38326e-05
1.43449e-05
-2.16378e-05
1.69528e-05
-1.85121e-05
1.94168e-05
-1.45851e-05
2.1656e-05
-9.95199e-06
2.35644e-05
-4.74892e-06
2.49843e-05
2.21266e-05
4.95274e-05
8.02133e-05
0.000104681
9.03887e-05
0.000155857
8.47405e-05
0.00020056
7.61393e-05
0.000236326
6.48026e-05
0.000261249
5.12368e-05
0.000274423
3.61592e-05
0.000276235
2.05416e-05
0.00026851
5.7609e-06
0.00025016
-9.01872e-06
0.000225335
-2.20615e-05
0.000196302
-3.28375e-05
0.000165153
-4.12451e-05
0.00013365
-4.72518e-05
0.000103227
-5.09429e-05
7.50223e-05
-5.25006e-05
4.97113e-05
-5.21809e-05
2.78988e-05
-5.03139e-05
9.67715e-06
-4.72458e-05
-5.12287e-06
-4.33251e-05
-1.67466e-05
-3.88869e-05
-2.55603e-05
-3.4158e-05
-3.19404e-05
-2.93604e-05
-3.62891e-05
-2.46797e-05
-3.90802e-05
-2.02276e-05
-4.07436e-05
-1.61595e-05
-4.1673e-05
-1.24882e-05
-4.21372e-05
-9.20984e-06
-4.22998e-05
-6.2982e-06
-4.23009e-05
-3.71933e-06
-4.2298e-05
-1.4396e-06
-4.23856e-05
5.3806e-07
-4.25095e-05
2.47247e-06
-4.22849e-05
4.29165e-06
-4.16148e-05
6.03291e-06
-4.02739e-05
7.76791e-06
-3.80893e-05
9.50717e-06
-3.49713e-05
1.12273e-05
-3.09066e-05
1.2887e-05
-2.59274e-05
1.44377e-05
-2.00948e-05
1.58244e-05
-1.35121e-05
1.69825e-05
-6.35357e-06
1.78263e-05
1.57732e-05
3.2517e-05
4.76956e-05
6.90368e-05
5.38669e-05
0.000103149
5.06301e-05
0.000133508
4.57802e-05
0.000158844
3.94637e-05
0.000178133
3.19462e-05
0.000190728
2.35652e-05
0.00019655
1.47207e-05
0.000196448
5.86376e-06
0.000190063
-2.63427e-06
0.000178507
-1.05053e-05
0.000163023
-1.73525e-05
0.000144788
-2.30093e-05
0.000124911
-2.73741e-05
0.000104389
-3.04215e-05
8.40826e-05
-3.21935e-05
6.46915e-05
-3.27888e-05
4.67294e-05
-3.2351e-05
3.05335e-05
-3.10514e-05
1.62791e-05
-2.90731e-05
3.98945e-06
-2.65967e-05
-6.37375e-06
-2.37913e-05
-1.49253e-05
-2.08077e-05
-2.18322e-05
-1.77747e-05
-2.72381e-05
-1.48203e-05
-3.14098e-05
-1.19819e-05
-3.45629e-05
-9.33286e-06
-3.68754e-05
-6.90042e-06
-3.84823e-05
-4.69113e-06
-3.94996e-05
-2.69776e-06
-4.00423e-05
-8.97373e-07
-4.02535e-05
7.45859e-07
-3.99366e-05
2.15713e-06
-3.9126e-05
3.48426e-06
-3.78155e-05
4.72228e-06
-3.59412e-05
5.89296e-06
-3.34394e-05
7.00698e-06
-3.02734e-05
8.06301e-06
-2.64362e-05
9.05012e-06
-2.19485e-05
9.94949e-06
-1.68604e-05
1.07359e-05
-1.12569e-05
1.13788e-05
-5.26818e-06
1.18375e-05
1.05049e-05
2.10379e-05
2.66556e-05
4.48727e-05
3.003e-05
6.73304e-05
2.81737e-05
8.76798e-05
2.54298e-05
0.000105253
2.18875e-05
0.00011951
1.76888e-05
0.000130073
1.30028e-05
0.000136764
8.02943e-06
0.000139648
2.97768e-06
0.000138934
-1.92132e-06
0.000134894
-6.4649e-06
0.00012805
-1.05088e-05
0.00011896
-1.39194e-05
0.000108199
-1.66145e-05
9.63329e-05
-1.85557e-05
8.38854e-05
-1.97456e-05
7.13206e-05
-2.02226e-05
5.90241e-05
-2.0054e-05
4.72992e-05
-1.93281e-05
3.637e-05
-1.81455e-05
2.63871e-05
-1.66122e-05
1.74325e-05
-1.4833e-05
9.53072e-06
-1.29044e-05
2.66262e-06
-1.09077e-05
-3.2142e-06
-8.9422e-06
-8.16308e-06
-7.02865e-06
-1.22686e-05
-5.22553e-06
-1.5612e-05
-3.55939e-06
-1.82661e-05
-2.03774e-06
-2.0305e-05
-6.56333e-07
-2.17926e-05
5.90418e-07
-2.27015e-05
1.65229e-06
-2.31487e-05
2.60382e-06
-2.31223e-05
3.45944e-06
-2.26331e-05
4.23336e-06
-2.16807e-05
4.93976e-06
-2.02628e-05
5.58882e-06
-1.83849e-05
6.18555e-06
-1.60643e-05
6.7297e-06
-1.33317e-05
7.21637e-06
-1.02338e-05
7.63705e-06
-6.83586e-06
7.97974e-06
-3.22419e-06
8.22463e-06
7.27923e-06
1.47249e-05
1.19301e-05
3.14673e-05
1.32884e-05
4.73681e-05
1.22758e-05
6.19718e-05
1.08259e-05
7.48829e-05
8.97595e-06
8.57928e-05
6.78066e-06
9.44516e-05
4.34495e-06
0.000100701
1.77968e-06
0.000104487
-8.09809e-07
0.000105887
-3.32183e-06
0.000105084
-5.66116e-06
0.000102283
-7.70622e-06
9.77587e-05
-9.39504e-06
9.18238e-05
-1.06796e-05
8.48027e-05
-1.15344e-05
7.70175e-05
-1.1959e-05
6.87714e-05
-1.19742e-05
6.03354e-05
-1.16165e-05
5.19434e-05
-1.09365e-05
4.37897e-05
-9.99237e-06
3.60283e-05
-8.84899e-06
2.87706e-05
-7.57199e-06
2.20921e-05
-6.22434e-06
1.60529e-05
-4.86911e-06
1.06322e-05
-3.52088e-06
5.86279e-06
-2.25642e-06
1.71457e-06
-1.07592e-06
-1.8399e-06
-6.44313e-09
-4.8268e-06
9.48291e-07
-7.23323e-06
1.75151e-06
-9.13678e-06
2.49457e-06
-1.05851e-05
3.09906e-06
-1.15911e-05
3.6086e-06
-1.21707e-05
4.03908e-06
-1.23433e-05
4.40582e-06
-1.21276e-05
4.72299e-06
-1.15418e-05
5.00181e-06
-1.06078e-05
5.25067e-06
-9.35293e-06
5.47402e-06
-7.81082e-06
5.67317e-06
-6.02335e-06
5.84799e-06
-4.04189e-06
5.99622e-06
-1.92801e-06
6.1083e-06
5.34926e-06
1.04485e-05
1.48131e-06
2.22655e-05
1.47169e-06
3.35072e-05
1.03485e-06
4.3864e-05
4.67083e-07
5.31163e-05
-2.76954e-07
6.11577e-05
-1.25957e-06
6.77642e-05
-2.26201e-06
7.27356e-05
-3.19324e-06
7.60226e-05
-4.09776e-06
7.77853e-05
-5.08473e-06
7.79859e-05
-5.86141e-06
7.67375e-05
-6.45699e-06
7.41932e-05
-6.85004e-06
7.05381e-05
-7.02433e-06
6.59719e-05
-6.96808e-06
6.07036e-05
-6.68964e-06
5.49407e-05
-6.20934e-06
4.88747e-05
-5.54923e-06
4.26808e-05
-4.74308e-06
3.65177e-05
-3.83014e-06
3.05287e-05
-2.85935e-06
2.4813e-05
-1.85452e-06
1.94399e-05
-8.5064e-07
1.45021e-05
6.75356e-08
9.98162e-06
9.99239e-07
5.99151e-06
1.73517e-06
2.45896e-06
2.45773e-06
-6.27847e-07
3.07972e-06
-3.25061e-06
3.57065e-06
-5.44185e-06
3.94399e-06
-7.16284e-06
4.21677e-06
-8.46395e-06
4.39997e-06
-9.36303e-06
4.50703e-06
-9.87778e-06
4.55371e-06
-1.00297e-05
4.55767e-06
-9.84272e-06
4.53536e-06
-9.34059e-06
4.4984e-06
-8.54987e-06
4.45837e-06
-7.50168e-06
4.42402e-06
-6.23033e-06
4.39971e-06
-4.77354e-06
4.3887e-06
-3.18122e-06
4.40111e-06
-1.50286e-06
4.42709e-06
3.84528e-06
6.7787e-06
-5.29679e-06
1.4351e-05
-6.1004e-06
2.15602e-05
-6.17499e-06
2.82816e-05
-6.25667e-06
3.4366e-05
-6.36101e-06
3.95023e-05
-6.39428e-06
4.36143e-05
-6.37435e-06
4.67027e-05
-6.28222e-06
4.8723e-05
-6.11807e-06
4.95205e-05
-5.88207e-06
4.92084e-05
-5.54888e-06
4.78605e-05
-5.10814e-06
4.55737e-05
-4.56241e-06
4.24715e-05
-3.92206e-06
3.87104e-05
-3.20716e-06
3.44363e-05
-2.41525e-06
2.97892e-05
-1.5613e-06
2.49431e-05
-7.02626e-07
2.00248e-05
1.7433e-07
1.51329e-05
1.06023e-06
1.04505e-05
1.82252e-06
6.03213e-06
2.56436e-06
1.91681e-06
3.26452e-06
-1.88157e-06
3.86469e-06
-5.24262e-06
4.3597e-06
-8.23543e-06
4.72911e-06
-1.07667e-05
4.99049e-06
-1.28294e-05
5.14317e-06
-1.44376e-05
5.17962e-06
-1.56131e-05
5.1214e-06
-1.63757e-05
4.98144e-06
-1.67458e-05
4.77135e-06
-1.67429e-05
4.5048e-06
-1.63866e-05
4.1979e-06
-1.56988e-05
3.87042e-06
-1.47062e-05
3.54283e-06
-1.34395e-05
3.23102e-06
-1.19294e-05
2.94695e-06
-1.02106e-05
2.70343e-06
-8.31286e-06
2.49976e-06
-6.24944e-06
2.32295e-06
-4.10328e-06
2.25266e-06
-1.90331e-06
2.22516e-06
1.94175e-06
3.3837e-06
-8.68096e-06
7.19814e-06
-9.91524e-06
1.08151e-05
-9.79339e-06
1.40636e-05
-9.50699e-06
1.67823e-05
-9.07811e-06
1.8891e-05
-8.50133e-06
2.02929e-05
-7.77639e-06
2.09548e-05
-6.944e-06
2.08394e-05
-6.00255e-06
1.99229e-05
-4.96592e-06
1.82349e-05
-3.86109e-06
1.58623e-05
-2.73535e-06
1.28807e-05
-1.58107e-06
9.34166e-06
-3.84042e-07
5.44414e-06
6.8894e-07
1.27038e-06
1.75742e-06
-3.16294e-06
2.87145e-06
-7.49555e-06
3.6292e-06
-1.17073e-05
4.38443e-06
-1.57275e-05
5.07821e-06
-1.95456e-05
5.6393e-06
-2.30506e-05
6.06914e-06
-2.6154e-05
6.36746e-06
-2.88147e-05
6.52436e-06
-3.09924e-05
6.53691e-06
-3.26763e-05
6.41402e-06
-3.38512e-05
6.16713e-06
-3.45171e-05
5.81041e-06
-3.46945e-05
5.35835e-06
-3.44015e-05
4.83022e-06
-3.36563e-05
4.23833e-06
-3.24839e-05
3.60049e-06
-3.09329e-05
2.95482e-06
-2.90554e-05
2.32123e-06
-2.68807e-05
1.69658e-06