/*--------------------------------*- C++ -*----------------------------------*\
  =========                 |
  \\      /  F ield         | OpenFOAM: The Open Source CFD Toolbox
   \\    /   O peration     | Website:  https://openfoam.org
    \\  /    A nd           | Version:  7
     \\/     M anipulation  |
\*---------------------------------------------------------------------------*/
FoamFile
{
    version     2.0;
    format      ascii;
    class       volVectorField;
    location    "1.08";
    object      U;
}
// * * * * * * * * * * * * * * * * * * * * * * * * * * * * * * * * * * * * * //

dimensions      [0 1 -1 0 0 0 0];

internalField   nonuniform List<vector> 
1936
(
(-12.7726 3.31569 0)
(-71.5778 194.285 0)
(-27.0735 433.811 0)
(0.322098 446.187 0)
(-8.07003 416.069 0)
(0.253766 429.654 0)
(12.5962 419.499 0)
(22.9054 366.101 0)
(19.2981 305.685 0)
(4.77503 282.063 0)
(-7.64427 286.927 0)
(-21.5569 345.248 0)
(-22.9285 475.127 0)
(20.3449 493.5 0)
(35.7927 342.839 0)
(11.8388 246.504 0)
(-2.0376 240.147 0)
(-21.3556 280.405 0)
(-36.6789 434.576 0)
(7.21523 513.143 0)
(36.2057 371.4 0)
(11.88 250.159 0)
(-2.43016 236.151 0)
(-21.1346 269.579 0)
(-38.1863 424.191 0)
(6.71027 520.042 0)
(39.1511 384.249 0)
(16.6977 254.413 0)
(3.05923 238.069 0)
(-13.7777 259.307 0)
(-34.3268 378.778 0)
(-16.9173 509.935 0)
(30.8373 439.869 0)
(26.8828 284.992 0)
(4.1509 240.155 0)
(-9.83992 254.341 0)
(-33.9952 369.233 0)
(-2.86368 506.466 0)
(36.7926 437.637 0)
(23.8324 285.945 0)
(6.07405 238.461 0)
(-6.60491 236.204 0)
(-31.7625 314.28 0)
(-28.1377 482.583 0)
(-14.4342 8.02675 0)
(-78.7515 0.529956 0)
(-30.5619 -4.41547 0)
(-1.5646 -2.67023 0)
(-9.98065 -1.05747 0)
(-0.700661 -1.84585 0)
(12.2304 -1.91654 0)
(21.5674 -0.551628 0)
(16.2275 1.48132 0)
(3.42545 2.76419 0)
(-4.3384 2.56501 0)
(-19.5756 0.291599 0)
(-24.0231 -3.39884 0)
(21.2804 -4.03489 0)
(34.2859 -0.295414 0)
(6.85744 3.2331 0)
(0.076746 3.86158 0)
(-17.3175 1.86612 0)
(-37.6455 -2.53871 0)
(7.851 -4.77375 0)
(35.4809 -1.41822 0)
(6.82538 2.88727 0)
(-0.873075 3.96267 0)
(-16.313 1.99101 0)
(-38.7038 -2.70564 0)
(7.16106 -5.04852 0)
(38.7651 -1.77654 0)
(11.0168 2.46293 0)
(2.80005 3.74571 0)
(-9.87477 2.82903 0)
(-35.1883 -0.445239 0)
(-17.944 -4.42592 0)
(31.116 -3.83164 0)
(22.0135 1.1243 0)
(2.07973 4.05576 0)
(-5.04907 2.97071 0)
(-32.5645 -1.63988 0)
(-3.216 -4.81294 0)
(38.6813 -2.21002 0)
(20.8576 1.5882 0)
(2.33919 3.52455 0)
(-1.71425 3.57993 0)
(-29.0351 0.328597 0)
(-29.8224 -4.19823 0)
(-4.94383 16.6992 0)
(-72.9892 1.72426 0)
(-32.6314 -9.55414 0)
(-3.19772 -5.63983 0)
(-8.62912 -2.13435 0)
(-0.72364 -3.88668 0)
(11.8222 -3.99513 0)
(21.2635 -0.990887 0)
(15.5064 3.15834 0)
(2.20417 5.39071 0)
(-5.59161 5.16571 0)
(-21.185 1.06084 0)
(-25.3221 -7.22494 0)
(22.2969 -8.76497 0)
(36.0339 -0.0553401 0)
(7.01855 6.67822 0)
(-0.296119 7.54156 0)
(-18.909 4.3214 0)
(-39.0051 -5.25765 0)
(9.74737 -10.4818 0)
(37.9938 -2.41311 0)
(7.47239 6.09957 0)
(-0.409874 7.67313 0)
(-16.9457 4.58186 0)
(-40.6495 -5.40656 0)
(7.47376 -11.0565 0)
(40.5353 -3.14286 0)
(10.0368 5.4628 0)
(0.178158 7.28949 0)
(-13.5491 5.9839 0)
(-36.9864 -0.81827 0)
(-14.3389 -9.81121 0)
(35.1829 -7.62956 0)
(20.8725 2.93783 0)
(0.5159 7.84747 0)
(-5.66934 6.16479 0)
(-35.4757 -2.78775 0)
(-8.06333 -10.4938 0)
(38.3754 -4.80822 0)
(23.749 3.79565 0)
(2.86089 6.93914 0)
(-1.82572 7.22995 0)
(-30.9721 1.39281 0)
(-31.2883 -9.05205 0)
(4.10515 23.4572 0)
(-60.5578 3.7171 0)
(-28.3602 -13.17 0)
(-7.37157 -8.58948 0)
(-9.58292 -3.54379 0)
(-1.93276 -5.6888 0)
(7.57735 -5.71223 0)
(13.9572 -1.24078 0)
(8.56433 4.63904 0)
(-0.601594 7.50703 0)
(-2.72188 7.21101 0)
(-13.3809 1.63018 0)
(-19.7277 -10.4765 0)
(17.3868 -12.7139 0)
(26.0688 0.237216 0)
(1.13988 9.5896 0)
(1.52057 10.5942 0)
(-10.8399 6.34303 0)
(-29.7403 -7.63902 0)
(8.87679 -15.2463 0)
(28.2004 -3.09397 0)
(1.10631 8.77141 0)
(1.27819 10.6865 0)
(-8.20691 6.80825 0)
(-31.156 -7.58837 0)
(5.96116 -16.0266 0)
(30.0324 -4.0813 0)
(1.74069 8.18739 0)
(-1.29196 10.3227 0)
(-8.93604 8.42108 0)
(-27.5582 -1.67487 0)
(-8.35324 -14.5137 0)
(28.1463 -10.2479 0)
(9.62839 4.7868 0)
(-2.29251 10.7449 0)
(0.263619 8.7474 0)
(-25.8699 -3.38123 0)
(-9.23466 -15.1829 0)
(28.4272 -7.4085 0)
(16.4055 5.50802 0)
(-0.579142 9.87247 0)
(2.81481 10.2953 0)
(-20.6485 2.35286 0)
(-24.9663 -13.0905 0)
(12.351 28.6753 0)
(-49.4714 6.23826 0)
(-23.6483 -15.1483 0)
(-10.0437 -11.2183 0)
(-10.4496 -5.45841 0)
(-3.79746 -7.32883 0)
(2.63673 -6.92417 0)
(6.5557 -1.27951 0)
(2.30445 5.72826 0)
(-2.82115 8.80047 0)
(-0.616603 8.32789 0)
(-7.37509 1.82544 0)
(-14.605 -12.6427 0)
(12.5497 -15.2446 0)
(17.6124 0.543896 0)
(-3.4987 11.4679 0)
(3.2096 12.5343 0)
(-4.69658 7.62731 0)
(-21.3331 -9.27184 0)
(7.91577 -18.2445 0)
(19.7817 -3.38793 0)
(-3.52674 10.4158 0)
(2.51706 12.5126 0)
(-1.70886 8.27695 0)
(-22.6549 -8.91911 0)
(4.4064 -19.1356 0)
(20.9848 -4.49386 0)
(-3.95248 10.0643 0)
(-1.37346 12.3475 0)
(-4.39577 9.82731 0)
(-19.0101 -2.72942 0)
(-2.99961 -17.6705 0)
(21.2695 -11.3983 0)
(1.37614 6.21933 0)
(-4.02138 12.2587 0)
(4.34865 10.235 0)
(-17.3811 -3.45581 0)
(-9.78245 -18.0737 0)
(19.235 -9.48169 0)
(10.5126 6.54291 0)
(-3.86556 11.8146 0)
(6.54739 12.1962 0)
(-12.4898 3.06241 0)
(-19.0185 -15.609 0)
(19.1677 32.1383 0)
(-38.0581 9.13171 0)
(-18.2629 -15.5331 0)
(-10.6623 -13.2221 0)
(-10.9954 -7.54986 0)
(-5.97107 -8.65292 0)
(-2.39299 -7.58746 0)
(-0.288443 -1.21753 0)
(-2.95778 6.23041 0)
(-4.19259 9.1557 0)
(1.04761 8.48316 0)
(-2.88186 1.68608 0)
(-10.0871 -13.6715 0)
(8.07427 -16.3151 0)
(10.4836 0.863327 0)
(-6.9828 12.2153 0)
(4.3182 13.3013 0)
(0.460825 8.11521 0)
(-13.9262 -10.0908 0)
(6.74661 -19.4105 0)
(12.7483 -3.25642 0)
(-6.97627 10.9975 0)
(3.01825 13.1525 0)
(3.29979 8.89864 0)
(-15.2892 -9.35305 0)
(2.8818 -20.3236 0)
(13.4459 -4.43387 0)
(-7.60898 10.9048 0)
(-0.742988 13.2384 0)
(0.721568 10.1895 0)
(-11.5031 -3.75956 0)
(0.858034 -19.0796 0)
(14.8594 -11.1781 0)
(-3.93048 7.08372 0)
(-4.64572 12.5013 0)
(7.21191 10.6202 0)
(-10.1908 -3.04904 0)
(-9.26194 -19.0579 0)
(11.2725 -10.8887 0)
(5.17025 6.87839 0)
(-6.17206 12.661 0)
(8.83657 12.8781 0)
(-6.02276 3.52002 0)
(-13.6124 -16.5917 0)
(23.1678 33.4692 0)
(-25.1721 12.0923 0)
(-11.9484 -14.335 0)
(-9.22755 -14.272 0)
(-10.6821 -9.35403 0)
(-7.74604 -9.52042 0)
(-6.52517 -7.72105 0)
(-5.65625 -1.16595 0)
(-6.64245 5.98223 0)
(-4.69007 8.53168 0)
(1.95039 7.76256 0)
(0.204837 1.27055 0)
(-6.20196 -13.5909 0)
(4.14258 -15.9647 0)
(4.69054 1.12155 0)
(-8.53961 11.8893 0)
(4.38921 12.8536 0)
(4.528 7.81911 0)
(-7.68845 -10.0354 0)
(5.25665 -18.8225 0)
(7.12236 -2.73953 0)
(-8.72499 10.6278 0)
(2.66529 12.615 0)
(6.67925 8.65396 0)
(-9.12329 -8.90056 0)
(1.46881 -19.6697 0)
(7.37216 -4.01825 0)
(-9.22353 10.6801 0)
(-0.0489213 12.8682 0)
(5.13166 9.61947 0)
(-5.50074 -4.46243 0)
(2.84248 -18.7317 0)
(9.18062 -9.87629 0)
(-6.63953 7.23015 0)
(-4.09941 11.6713 0)
(8.50132 10.0479 0)
(-4.58745 -2.28766 0)
(-7.53753 -18.261 0)
(4.97734 -11.3879 0)
(0.421806 6.50308 0)
(-6.77421 12.3995 0)
(8.89451 12.4425 0)
(-1.13824 3.62754 0)
(-8.80469 -16.0969 0)
(23.6143 32.3142 0)
(-10.8898 14.5643 0)
(-4.90906 -11.5752 0)
(-6.05651 -14.0248 0)
(-9.00304 -10.425 0)
(-8.32311 -9.79425 0)
(-8.82644 -7.41475 0)
(-8.75493 -1.26742 0)
(-8.33491 4.99188 0)
(-4.43512 7.10932 0)
(2.19065 6.40509 0)
(2.04793 0.568813 0)
(-2.99509 -12.5183 0)
(0.867754 -14.3402 0)
(0.240206 1.18926 0)
(-8.24704 10.6282 0)
(3.73347 11.3146 0)
(7.12915 6.86682 0)
(-2.81308 -9.13205 0)
(3.4383 -16.6945 0)
(2.78668 -2.06076 0)
(-8.66915 9.53828 0)
(1.98915 11.073 0)
(8.2917 7.70054 0)
(-4.16783 -7.72224 0)
(0.331246 -17.4338 0)
(2.62619 -3.44354 0)
(-9.16702 9.55979 0)
(0.493853 11.3405 0)
(7.57947 8.35883 0)
(-1.26691 -4.63636 0)
(3.15033 -16.8296 0)
(4.28451 -7.98653 0)
(-7.57099 6.69124 0)
(-2.95067 10.0459 0)
(8.16348 8.78591 0)
(-0.621142 -1.4701 0)
(-4.87666 -15.993 0)
(0.617553 -10.8011 0)
(-3.41039 5.54358 0)
(-6.14346 11.1409 0)
(7.42094 11.0609 0)
(2.30424 3.31858 0)
(-4.67155 -14.3055 0)
(19.8667 28.666 0)
(2.18438 15.8246 0)
(2.16159 -7.51782 0)
(-1.69605 -12.299 0)
(-5.90942 -10.4207 0)
(-7.31789 -9.37546 0)
(-8.99385 -6.78678 0)
(-9.39208 -1.56278 0)
(-8.13201 3.46331 0)
(-3.67875 5.22283 0)
(2.06839 4.66026 0)
(2.85527 -0.31559 0)
(-0.700751 -10.6449 0)
(-1.59335 -11.7627 0)
(-2.93417 0.953735 0)
(-7.03079 8.68747 0)
(2.78679 9.04382 0)
(7.8328 5.40293 0)
(0.407242 -7.5035 0)
(1.55571 -13.4275 0)
(-0.464132 -1.45325 0)
(-7.46976 7.94776 0)
(1.43018 8.87263 0)
(8.16003 6.26459 0)
(-0.573069 -6.07416 0)
(-0.359874 -14.0286 0)
(-0.755668 -2.8349 0)
(-8.02207 7.8123 0)
(0.698032 9.05469 0)
(7.83822 6.62995 0)
(1.39224 -4.25131 0)
(2.43889 -13.7449 0)
(0.522471 -5.97068 0)
(-7.23409 5.60415 0)
(-1.93 7.95409 0)
(6.85722 7.09808 0)
(1.97817 -0.91251 0)
(-2.06361 -12.7308 0)
(-1.83025 -9.13132 0)
(-5.86473 4.205 0)
(-5.00465 9.15259 0)
(5.63393 9.02995 0)
(4.38841 2.61073 0)
(-1.44587 -11.5617 0)
(13.1961 23.2727 0)
(10.1559 15.2754 0)
(7.75797 -3.0334 0)
(2.85769 -9.28008 0)
(-2.05363 -9.20253 0)
(-5.01262 -8.26587 0)
(-7.39682 -5.92409 0)
(-8.07724 -1.91747 0)
(-6.66394 1.75501 0)
(-2.76037 3.18228 0)
(1.7082 2.77842 0)
(2.78647 -1.11147 0)
(0.345634 -8.27366 0)
(-2.99764 -8.72317 0)
(-4.73659 0.492715 0)
(-5.65478 6.37106 0)
(1.77536 6.48813 0)
(6.70968 3.68975 0)
(1.96566 -5.47793 0)
(0.104028 -9.6178 0)
(-2.56439 -0.96334 0)
(-5.8167 6.01973 0)
(1.01864 6.46775 0)
(6.71038 4.55848 0)
(1.59436 -4.26723 0)
(-0.568155 -10.0634 0)
(-2.64388 -2.14851 0)
(-6.22783 5.70732 0)
(0.637756 6.51869 0)
(6.58514 4.66444 0)
(2.82507 -3.43416 0)
(1.46808 -10.0339 0)
(-1.7076 -4.10525 0)
(-5.97182 4.12835 0)
(-1.2853 5.75133 0)
(5.22725 5.19954 0)
(3.32973 -0.654431 0)
(-0.050011 -9.07828 0)
(-2.66425 -6.71371 0)
(-6.40942 2.78471 0)
(-3.76983 6.7582 0)
(4.13799 6.67627 0)
(5.03668 1.69093 0)
(0.551536 -8.33102 0)
(7.05353 17.4166 0)
(11.648 13.0637 0)
(10.166 0.584066 0)
(6.07267 -5.67998 0)
(1.40127 -6.98726 0)
(-2.16238 -6.56917 0)
(-4.78296 -4.87812 0)
(-5.69005 -2.18361 0)
(-4.68303 0.241124 0)
(-1.90009 1.31638 0)
(1.18763 1.05982 0)
(2.1455 -1.60246 0)
(0.346514 -5.82888 0)
(-3.30992 -5.79115 0)
(-4.97941 0.0107983 0)
(-4.24717 3.99512 0)
(0.864011 4.03898 0)
(4.52702 2.10356 0)
(2.11101 -3.49825 0)
(-0.654816 -5.96021 0)
(-3.23511 -0.56315 0)
(-4.06636 4.00647 0)
(0.643351 4.25036 0)
(4.63562 2.88326 0)
(2.30246 -2.62549 0)
(-0.476894 -6.25344 0)
(-2.99582 -1.43384 0)
(-4.21031 3.60687 0)
(0.485823 4.151 0)
(4.68422 2.8168 0)
(3.06638 -2.42026 0)
(0.694203 -6.39411 0)
(-2.38715 -2.56644 0)
(-4.23451 2.57657 0)
(-0.853389 3.73264 0)
(3.54678 3.32066 0)
(3.36694 -0.519377 0)
(0.759319 -5.63965 0)
(-2.51106 -4.17607 0)
(-5.25945 1.61002 0)
(-2.56811 4.34049 0)
(2.83105 4.31372 0)
(4.34065 0.890654 0)
(1.29923 -5.19927 0)
(3.59987 12.1643 0)
(8.99182 10.0922 0)
(9.34121 2.63773 0)
(7.00319 -2.49711 0)
(3.43792 -4.3742 0)
(0.269959 -4.57154 0)
(-2.07772 -3.71089 0)
(-3.09297 -2.21766 0)
(-2.67386 -0.814503 0)
(-1.0619 -0.100302 0)
(0.77023 -0.237775 0)
(1.37259 -1.73019 0)
(0.0133161 -3.7409 0)
(-2.7317 -3.46521 0)
(-3.94489 -0.358253 0)
(-2.91619 1.96687 0)
(0.142597 2.05571 0)
(2.33681 0.913601 0)
(1.39359 -1.9365 0)
(-0.839849 -3.08379 0)
(-2.68404 -0.26418 0)
(-2.49614 2.27477 0)
(0.298151 2.45654 0)
(2.65281 1.55392 0)
(1.90061 -1.37628 0)
(-0.296969 -3.23424 0)
(-2.27207 -0.811756 0)
(-2.40494 1.89646 0)
(0.32986 2.25698 0)
(2.81469 1.37884 0)
(2.35772 -1.47689 0)
(0.284452 -3.45668 0)
(-1.96035 -1.43022 0)
(-2.57265 1.32106 0)
(-0.534095 2.08754 0)
(2.04039 1.77553 0)
(2.4156 -0.378123 0)
(0.678711 -2.93516 0)
(-1.87471 -2.11603 0)
(-3.41116 0.827929 0)
(-1.54745 2.35836 0)
(1.66516 2.33896 0)
(2.89427 0.364492 0)
(1.16921 -2.71458 0)
(2.13191 8.20903 0)
(5.45917 7.24287 0)
(6.60659 3.21744 0)
(5.73892 -0.290891 0)
(3.68745 -2.08347 0)
(1.57347 -2.70403 0)
(-0.0982842 -2.57026 0)
(-0.961406 -2.00302 0)
(-0.939663 -1.37245 0)
(-0.223715 -0.986275 0)
(0.616614 -1.00753 0)
(0.809484 -1.59129 0)
(-0.117467 -2.26196 0)
(-1.71933 -1.94204 0)
(-2.44344 -0.551602 0)
(-1.80989 0.590434 0)
(-0.273801 0.714221 0)
(0.832537 0.189894 0)
(0.546342 -0.949163 0)
(-0.696923 -1.29891 0)
(-1.66794 -0.089537 0)
(-1.35011 1.08073 0)
(0.0534096 1.21117 0)
(1.23275 0.700627 0)
(1.08263 -0.585611 0)
(-0.142357 -1.32787 0)
(-1.24629 -0.376819 0)
(-1.1365 0.784468 0)
(0.195216 0.977629 0)
(1.41094 0.482656 0)
(1.32604 -0.782317 0)
(0.0993848 -1.54929 0)
(-1.16409 -0.691616 0)
(-1.35088 0.525251 0)
(-0.326248 0.950994 0)
(0.949479 0.760001 0)
(1.27467 -0.214849 0)
(0.363199 -1.20277 0)
(-1.07993 -0.81227 0)
(-1.79804 0.39215 0)
(-0.829407 1.04597 0)
(0.792388 1.00417 0)
(1.49458 0.092794 0)
(0.702607 -1.13663 0)
(1.3088 5.64491 0)
(2.86376 5.08263 0)
(3.85408 2.92759 0)
(3.72671 0.861653 0)
(2.83583 -0.546999 0)
(1.77433 -1.32538 0)
(0.847277 -1.64745 0)
(0.291885 -1.66668 0)
(0.167077 -1.53773 0)
(0.356851 -1.38752 0)
(0.574987 -1.30183 0)
(0.496991 -1.34439 0)
(-0.0329853 -1.37997 0)
(-0.784571 -1.1173 0)
(-1.17022 -0.592623 0)
(-0.953723 -0.131191 0)
(-0.341191 -0.0152912 0)
(0.120038 -0.155937 0)
(0.0529867 -0.445726 0)
(-0.446525 -0.451045 0)
(-0.819843 -0.00887342 0)
(-0.633075 0.422902 0)
(-0.0488233 0.483647 0)
(0.449883 0.261498 0)
(0.456184 -0.181762 0)
(-0.0366533 -0.410955 0)
(-0.491972 -0.138001 0)
(-0.418892 0.218039 0)
(0.102363 0.275321 0)
(0.574666 0.0581385 0)
(0.547405 -0.366925 0)
(0.0110319 -0.571495 0)
(-0.538429 -0.284376 0)
(-0.609855 0.135564 0)
(-0.19019 0.318237 0)
(0.337079 0.241121 0)
(0.503656 -0.0738872 0)
(0.147958 -0.333043 0)
(-0.456568 -0.18063 0)
(-0.750849 0.176986 0)
(-0.364612 0.348257 0)
(0.304109 0.296502 0)
(0.596101 -0.0119924 0)
(0.308591 -0.361154 0)
(0.793988 3.98941 0)
(1.61816 3.70664 0)
(2.22161 2.48721 0)
(2.32228 1.24867 0)
(2.01011 0.238376 0)
(1.52586 -0.507164 0)
(1.07315 -1.0177 0)
(0.74829 -1.31602 0)
(0.579122 -1.43267 0)
(0.514945 -1.40304 0)
(0.452695 -1.27412 0)
(0.306449 -1.10923 0)
(0.0619247 -0.937145 0)
(-0.21279 -0.75107 0)
(-0.37807 -0.564409 0)
(-0.351507 -0.408345 0)
(-0.192727 -0.316053 0)
(-0.0671913 -0.274221 0)
(-0.0816162 -0.239719 0)
(-0.21397 -0.14974 0)
(-0.305261 0.00929976 0)
(-0.230744 0.127179 0)
(-0.0325019 0.139408 0)
(0.141218 0.0781688 0)
(0.16646 -0.0216801 0)
(0.0356533 -0.0802425 0)
(-0.0964886 -0.0413304 0)
(-0.078192 0.000652731 0)
(0.0664951 -0.0137545 0)
(0.191622 -0.0777347 0)
(0.169824 -0.159089 0)
(-0.00882159 -0.18048 0)
(-0.188694 -0.104944 0)
(-0.211673 -0.0130333 0)
(-0.0832063 0.0396349 0)
(0.0832753 0.0344854 0)
(0.144315 0.00375293 0)
(0.057591 -0.00407444 0)
(-0.105664 0.0515852 0)
(-0.19801 0.0932217 0)
(-0.0899672 0.0695728 0)
(0.110313 0.0258351 0)
(0.183747 -0.0273291 0)
(0.0986471 -0.0661758 0)
(0.50642 2.83489 0)
(1.11495 2.77132 0)
(1.56474 2.07056 0)
(1.6928 1.31151 0)
(1.60927 0.571682 0)
(1.38249 -0.071769 0)
(1.0992 -0.594609 0)
(0.842839 -0.969976 0)
(0.632047 -1.17426 0)
(0.461487 -1.20673 0)
(0.315301 -1.10224 0)
(0.189572 -0.927103 0)
(0.0901055 -0.750569 0)
(0.0154859 -0.616618 0)
(-0.0342231 -0.529039 0)
(-0.0516716 -0.461668 0)
(-0.0442076 -0.389415 0)
(-0.0376934 -0.293008 0)
(-0.0428952 -0.186905 0)
(-0.0535134 -0.090189 0)
(-0.0519562 -0.0222732 0)
(-0.0202588 0.00931045 0)
(0.0373706 0.0144775 0)
(0.0917071 0.0132818 0)
(0.109547 0.0121993 0)
(0.0866951 0.00336791 0)
(0.0611829 -0.0174416 0)
(0.0622163 -0.0498205 0)
(0.0797323 -0.0785426 0)
(0.086721 -0.087923 0)
(0.0634274 -0.0771735 0)
(0.0152723 -0.0634124 0)
(-0.0254565 -0.0500645 0)
(-0.0285341 -0.0519948 0)
(-0.00266444 -0.0505926 0)
(0.0284585 -0.0275915 0)
(0.0464844 0.017594 0)
(0.0464552 0.0706963 0)
(0.0315427 0.0951232 0)
(0.016864 0.0649181 0)
(0.0324806 0.00797012 0)
(0.0619937 -0.0211928 0)
(0.0612977 -0.00772146 0)
(0.0294699 0.0204113 0)
(0.322641 1.96469 0)
(0.786015 2.02776 0)
(1.17831 1.64884 0)
(1.35685 1.19 0)
(1.37351 0.690471 0)
(1.27739 0.182227 0)
(1.09804 -0.26846 0)
(0.875997 -0.62281 0)
(0.653593 -0.843362 0)
(0.453681 -0.921617 0)
(0.290914 -0.882266 0)
(0.175947 -0.776126 0)
(0.110218 -0.65842 0)
(0.0780365 -0.564671 0)
(0.0574882 -0.498904 0)
(0.0371332 -0.441809 0)
(0.0180452 -0.371883 0)
(0.00626545 -0.282782 0)
(0.00798604 -0.188266 0)
(0.0247657 -0.111263 0)
(0.0485349 -0.0634344 0)
(0.0698874 -0.0399103 0)
(0.0869663 -0.0262419 0)
(0.101964 -0.0119379 0)
(0.115021 -0.000138402 0)
(0.122783 0.000280011 0)
(0.123814 -0.0161906 0)
(0.117988 -0.0433318 0)
(0.10373 -0.0625056 0)
(0.0846547 -0.062123 0)
(0.067864 -0.0492735 0)
(0.0568796 -0.0383653 0)
(0.0510608 -0.0399536 0)
(0.0468909 -0.0498489 0)
(0.0401574 -0.0525948 0)
(0.0339444 -0.0302776 0)
(0.0359017 0.0112277 0)
(0.0488875 0.0538096 0)
(0.0630507 0.0709411 0)
(0.0654986 0.0531419 0)
(0.0584044 0.0202424 0)
(0.0449198 0.00622328 0)
(0.0269302 0.0203247 0)
(0.00827833 0.0366398 0)
(0.192913 1.31821 0)
(0.499517 1.41823 0)
(0.797562 1.22847 0)
(0.984047 0.968128 0)
(1.06703 0.653412 0)
(1.05947 0.308767 0)
(0.974459 -0.0305071 0)
(0.832916 -0.316401 0)
(0.665517 -0.518747 0)
(0.497631 -0.625538 0)
(0.350994 -0.649138 0)
(0.238665 -0.618041 0)
(0.163001 -0.563916 0)
(0.115646 -0.508259 0)
(0.0828771 -0.456633 0)
(0.0557966 -0.403292 0)
(0.0343024 -0.341227 0)
(0.0233471 -0.270826 0)
(0.0265781 -0.20086 0)
(0.0419081 -0.141767 0)
(0.0612757 -0.0993504 0)
(0.0766317 -0.0704958 0)
(0.0868418 -0.0487106 0)
(0.0963854 -0.0298928 0)
(0.107639 -0.0166058 0)
(0.118651 -0.012964 0)
(0.124459 -0.0194307 0)
(0.120746 -0.0305462 0)
(0.10832 -0.037775 0)
(0.093147 -0.0366403 0)
(0.0820228 -0.0313159 0)
(0.0765103 -0.0287676 0)
(0.0723626 -0.0319275 0)
(0.0640738 -0.0365816 0)
(0.0506915 -0.0337748 0)
(0.0383585 -0.0171427 0)
(0.0341189 0.00956723 0)
(0.0394217 0.0358902 0)
(0.0474167 0.0502 0)
(0.0486195 0.0488109 0)
(0.040905 0.0401837 0)
(0.0271757 0.0377148 0)
(0.0134973 0.0452672 0)
(0.00292985 0.0477633 0)
(0.108573 0.865988 0)
(0.288166 0.955295 0)
(0.480552 0.861689 0)
(0.623902 0.719979 0)
(0.716191 0.535106 0)
(0.752981 0.320489 0)
(0.738711 0.0974996 0)
(0.679072 -0.105017 0)
(0.586656 -0.266331 0)
(0.480057 -0.374656 0)
(0.375182 -0.431862 0)
(0.283227 -0.449666 0)
(0.20888 -0.442141 0)
(0.151303 -0.420325 0)
(0.106667 -0.389462 0)
(0.0716398 -0.350659 0)
(0.045772 -0.304627 0)
(0.0303929 -0.25435 0)
(0.025935 -0.204774 0)
(0.0301894 -0.160472 0)
(0.0388039 -0.12355 0)
(0.0477572 -0.0933944 0)
(0.0554818 -0.0682089 0)
(0.0624293 -0.0476427 0)
(0.0702498 -0.0330547 0)
(0.0787521 -0.0249974 0)
(0.0843694 -0.0225657 0)
(0.0842473 -0.0227067 0)
(0.0789689 -0.0223345 0)
(0.0716701 -0.0203482 0)
(0.0652557 -0.0182047 0)
(0.0601285 -0.0177306 0)
(0.0542863 -0.0187398 0)
(0.0461031 -0.018452 0)
(0.0358958 -0.0133189 0)
(0.0261868 -0.00177559 0)
(0.0202507 0.0140961 0)
(0.0190232 0.0301138 0)
(0.0199694 0.0421243 0)
(0.0194703 0.0487474 0)
(0.0159365 0.05215 0)
(0.0101719 0.0557867 0)
(0.00451812 0.0607402 0)
(0.00138093 0.0564743 0)
(0.0605839 0.563251 0)
(0.161928 0.628896 0)
(0.276104 0.579723 0)
(0.368841 0.50199 0)
(0.43948 0.396999 0)
(0.481941 0.271387 0)
(0.494593 0.136429 0)
(0.477224 0.00480233 0)
(0.436216 -0.109078 0)
(0.381535 -0.19813 0)
(0.320482 -0.259784 0)
(0.259724 -0.296655 0)
(0.203892 -0.313558 0)
(0.154864 -0.315017 0)
(0.11299 -0.304428 0)
(0.0783843 -0.284214 0)
(0.0511864 -0.256649 0)
(0.0317019 -0.224927 0)
(0.0197552 -0.191953 0)
(0.0140811 -0.160132 0)
(0.0127398 -0.13079 0)
(0.0139158 -0.104394 0)
(0.0165107 -0.0811861 0)
(0.0200168 -0.0616495 0)
(0.0240079 -0.0460535 0)
(0.0276922 -0.0346494 0)
(0.030247 -0.0267632 0)
(0.0311496 -0.0210277 0)
(0.0302069 -0.0162834 0)
(0.0279204 -0.0122114 0)
(0.0251554 -0.00910534 0)
(0.0221625 -0.00707046 0)
(0.0184077 -0.00536061 0)
(0.0135044 -0.00243415 0)
(0.00767047 0.00285805 0)
(0.00193018 0.0108735 0)
(-0.00209959 0.0207955 0)
(-0.00374038 0.0311356 0)
(-0.00374472 0.0405608 0)
(-0.00327943 0.0484443 0)
(-0.00298877 0.0548939 0)
(-0.00260283 0.0602571 0)
(-0.00231794 0.0644719 0)
(-1.11065e-05 0.05821 0)
(0.0344925 0.36262 0)
(0.0930508 0.406895 0)
(0.159634 0.378999 0)
(0.215667 0.33504 0)
(0.261413 0.275651 0)
(0.292839 0.203956 0)
(0.308805 0.125059 0)
(0.310001 0.0452421 0)
(0.296259 -0.0286965 0)
(0.270384 -0.0920401 0)
(0.237904 -0.142397 0)
(0.202049 -0.179146 0)
(0.165617 -0.203063 0)
(0.130662 -0.215538 0)
(0.0985941 -0.218056 0)
(0.0706351 -0.212233 0)
(0.0465769 -0.199857 0)
(0.0267461 -0.18292 0)
(0.0119187 -0.163303 0)
(0.00130511 -0.142559 0)
(-0.00585222 -0.121778 0)
(-0.0102778 -0.101749 0)
(-0.0126394 -0.0830927 0)
(-0.013438 -0.0663832 0)
(-0.0131678 -0.0520266 0)
(-0.012349 -0.0401254 0)
(-0.0114513 -0.0303269 0)
(-0.0108177 -0.022189 0)
(-0.0106181 -0.0153627 0)
(-0.0108768 -0.00963489 0)
(-0.0116187 -0.00489372 0)
(-0.0127778 -0.000953814 0)
(-0.0142484 0.0026938 0)
(-0.0161277 0.0067334 0)
(-0.0181917 0.0116777 0)
(-0.0198486 0.0176383 0)
(-0.0206139 0.0243472 0)
(-0.0202372 0.0313446 0)
(-0.0187917 0.038188 0)
(-0.0165337 0.044548 0)
(-0.013634 0.050182 0)
(-0.00994786 0.0548558 0)
(-0.00627703 0.0582658 0)
(-0.0012472 0.0521493 0)
(0.020114 0.227737 0)
(0.0555757 0.256092 0)
(0.0952822 0.23987 0)
(0.129496 0.214842 0)
(0.158545 0.181512 0)
(0.180171 0.141414 0)
(0.193613 0.0968594 0)
(0.198777 0.0506845 0)
(0.196374 0.00543806 0)
(0.186682 -0.0355657 0)
(0.170891 -0.0708849 0)
(0.151256 -0.0994698 0)
(0.129441 -0.120918 0)
(0.106815 -0.135325 0)
(0.0845218 -0.143115 0)
(0.0634679 -0.144979 0)
(0.0442706 -0.14196 0)
(0.0273846 -0.134865 0)
(0.0130961 -0.124892 0)
(0.00140984 -0.113016 0)
(-0.00794643 -0.100052 0)
(-0.0152556 -0.0866812 0)
(-0.020682 -0.0734838 0)
(-0.0244971 -0.0609476 0)
(-0.0270342 -0.0494016 0)
(-0.0286075 -0.039099 0)
(-0.0295047 -0.0300202 0)
(-0.0299759 -0.0220726 0)
(-0.0301924 -0.0151372 0)
(-0.0302688 -0.00910489 0)
(-0.0303057 -0.00385615 0)
(-0.0303788 0.000811888 0)
(-0.0304806 0.00514198 0)
(-0.0304621 0.00935415 0)
(-0.0301586 0.0136675 0)
(-0.0294528 0.0181819 0)
(-0.0282012 0.0228596 0)
(-0.0262936 0.0275813 0)
(-0.0236948 0.0321933 0)
(-0.0204355 0.0365286 0)
(-0.0165341 0.0404052 0)
(-0.0119081 0.043624 0)
(-0.00716749 0.0459536 0)
(-0.00182174 0.0408674 0)
(0.0127527 0.137624 0)
(0.0366967 0.154822 0)
(0.0627496 0.145494 0)
(0.0857652 0.131383 0)
(0.105923 0.112858 0)
(0.12191 0.0907007 0)
(0.133276 0.065971 0)
(0.139779 0.0399556 0)
(0.141697 0.0139955 0)
(0.139209 -0.0108653 0)
(0.132606 -0.033283 0)
(0.122725 -0.0525099 0)
(0.110466 -0.0680674 0)
(0.096665 -0.079732 0)
(0.0820776 -0.0875111 0)
(0.067367 -0.091608 0)
(0.053088 -0.0923888 0)
(0.039674 -0.0903252 0)
(0.0274293 -0.0859615 0)
(0.0165342 -0.0798482 0)
(0.00705072 -0.072517 0)
(-0.00103404 -0.0644157 0)
(-0.00775438 -0.0559674 0)
(-0.0131394 -0.0475334 0)
(-0.0175207 -0.0393885 0)
(-0.0210494 -0.0317453 0)
(-0.0236781 -0.0247055 0)
(-0.0256204 -0.0183096 0)
(-0.0270144 -0.0125524 0)
(-0.027951 -0.00740121 0)
(-0.0285209 -0.00279953 0)
(-0.0288074 0.00133398 0)
(-0.0287867 0.00510128 0)
(-0.0283986 0.00861758 0)
(-0.0276453 0.0119689 0)
(-0.0265099 0.0152155 0)
(-0.0249459 0.0183732 0)
(-0.0229126 0.0214212 0)
(-0.0203957 0.0243111 0)
(-0.0174092 0.0269722 0)
(-0.0139551 0.0293153 0)
(-0.0100024 0.0312378 0)
(-0.00591072 0.0326148 0)
(-0.00166416 0.0288468 0)
(0.0091364 0.0797662 0)
(0.0276012 0.0895978 0)
(0.0470298 0.0842296 0)
(0.0646651 0.0762256 0)
(0.0804829 0.0658213 0)
(0.0936646 0.0534279 0)
(0.103927 0.0395713 0)
(0.111021 0.0248807 0)
(0.114912 0.010024 0)
(0.115721 -0.00440436 0)
(0.113651 -0.0177719 0)
(0.109043 -0.0295858 0)
(0.102348 -0.0394937 0)
(0.0940448 -0.0472783 0)
(0.0846078 -0.0528516 0)
(0.0744893 -0.0562444 0)
(0.0640986 -0.0575903 0)
(0.0537864 -0.0571035 0)
(0.043837 -0.0550539 0)
(0.034467 -0.0517403 0)
(0.0258283 -0.0474685 0)
(0.0180137 -0.0425317 0)
(0.0110738 -0.0372002 0)
(0.00503221 -0.0317084 0)
(-0.000218812 -0.0263015 0)
(-0.00472117 -0.0210594 0)
(-0.00845744 -0.0161255 0)
(-0.0115241 -0.011564 0)
(-0.0139958 -0.00740363 0)
(-0.0159343 -0.00364816 0)
(-0.0173926 -0.000276786 0)
(-0.0183894 0.00274408 0)
(-0.0189582 0.00546287 0)
(-0.0191388 0.00793069 0)
(-0.0189347 0.0101957 0)
(-0.0183464 0.0122983 0)
(-0.0173713 0.0142617 0)
(-0.0160099 0.0160912 0)
(-0.0142735 0.0177768 0)
(-0.0121883 0.0192949 0)
(-0.0097678 0.0206103 0)
(-0.00701449 0.0216789 0)
(-0.00413486 0.0224392 0)
(-0.00122499 0.0197695 0)
(0.00712646 0.0414345 0)
(0.0224709 0.0463171 0)
(0.0380595 0.0432686 0)
(0.0525168 0.0388088 0)
(0.0657294 0.0330747 0)
(0.0771156 0.0262763 0)
(0.0864702 0.0186866 0)
(0.0935717 0.0106306 0)
(0.0983202 0.00244738 0)
(0.100741 -0.00552349 0)
(0.100965 -0.0129515 0)
(0.0991801 -0.019549 0)
(0.0956217 -0.0251006 0)
(0.0905714 -0.0294602 0)
(0.084336 -0.0325527 0)
(0.0772269 -0.034373 0)
(0.0695433 -0.0349778 0)
(0.0615595 -0.0344743 0)
(0.0535161 -0.0330076 0)
(0.0456164 -0.0307474 0)
(0.0380253 -0.027876 0)
(0.030871 -0.0245743 0)
(0.0242553 -0.0210139 0)
(0.0182115 -0.017352 0)
(0.0127436 -0.013731 0)
(0.00788567 -0.0102376 0)
(0.00363568 -0.00695004 0)
(-3.43277e-05 -0.00392053 0)
(-0.00314365 -0.00118151 0)
(-0.00570792 0.00125897 0)
(-0.00776224 0.00340465 0)
(-0.00936182 0.0052849 0)
(-0.0105379 0.00692724 0)
(-0.0113028 0.00836761 0)
(-0.0116704 0.00964128 0)
(-0.0116578 0.0107801 0)
(-0.0112818 0.0118081 0)
(-0.0105605 0.0127405 0)
(-0.00951891 0.0135831 0)
(-0.0081917 0.0143334 0)
(-0.00660285 0.0149828 0)
(-0.004776 0.0155164 0)
(-0.00282966 0.0159036 0)
(-0.000860148 0.0139658 0)
(0.00572298 0.0144537 0)
(0.0185611 0.0158883 0)
(0.0310755 0.0143272 0)
(0.04276 0.0121179 0)
(0.0536122 0.00932328 0)
(0.0631616 0.00604467 0)
(0.0712458 0.00241131 0)
(0.0776136 -0.00141404 0)
(0.0821399 -0.00523774 0)
(0.0848858 -0.00887499 0)
(0.0859256 -0.0121854 0)
(0.0853119 -0.0150257 0)
(0.0831837 -0.0172826 0)
(0.0797307 -0.01888 0)
(0.0751688 -0.0197798 0)
(0.0697257 -0.0199829 0)
(0.0636305 -0.0195267 0)
(0.0571029 -0.0184793 0)
(0.0503451 -0.0169237 0)
(0.0435396 -0.0149581 0)
(0.0368522 -0.012706 0)
(0.0304158 -0.0102707 0)
(0.024336 -0.0077514 0)
(0.0187114 -0.00525131 0)
(0.0135228 -0.00284056 0)
(0.00881938 -0.000583691 0)
(0.00467804 0.00145462 0)
(0.00103614 0.00324795 0)
(-0.00209911 0.00480142 0)
(-0.00473306 0.00610427 0)
(-0.00688217 0.00716992 0)
(-0.00854745 0.00802496 0)
(-0.00976127 0.00869748 0)
(-0.0105453 0.00921979 0)
(-0.0109196 0.00962605 0)
(-0.0109078 0.00994863 0)
(-0.0105348 0.0102139 0)
(-0.00982719 0.0104429 0)
(-0.00881751 0.0106485 0)
(-0.00754759 0.0108372 0)
(-0.00604929 0.011014 0)
(-0.00435937 0.0111867 0)
(-0.00256695 0.0113347 0)
(-0.000773164 0.00992975 0)
(0.00419483 -0.00424841 0)
(0.0140905 -0.00513104 0)
(0.023101 -0.00569154 0)
(0.0316658 -0.00636293 0)
(0.0398517 -0.00714941 0)
(0.0470142 -0.00804644 0)
(0.0529057 -0.00899836 0)
(0.0574688 -0.00992991 0)
(0.0606913 -0.0107532 0)
(0.0624589 -0.0113956 0)
(0.0627422 -0.0118154 0)
(0.0616536 -0.0119623 0)
(0.0593136 -0.0118008 0)
(0.0558598 -0.0113155 0)
(0.0514728 -0.0105 0)
(0.0463493 -0.00937121 0)
(0.0406665 -0.00797433 0)
(0.034625 -0.00639599 0)
(0.0284186 -0.00465572 0)
(0.0221924 -0.00281258 0)
(0.0161206 -0.000919671 0)
(0.0103535 0.00094279 0)
(0.00495081 0.00270597 0)
(-5.20143e-05 0.00432313 0)
(-0.00458155 0.005755 0)
(-0.00860293 0.00697833 0)
(-0.0120875 0.00796109 0)
(-0.0149662 0.00869995 0)
(-0.0172618 0.00920829 0)
(-0.019035 0.0095028 0)
(-0.0202815 0.00961145 0)
(-0.021002 0.00955791 0)
(-0.0212333 0.00937538 0)
(-0.0210068 0.00909838 0)
(-0.0203488 0.00876304 0)
(-0.0192867 0.00840594 0)
(-0.0178546 0.00805555 0)
(-0.0160921 0.007737 0)
(-0.0140425 0.00747382 0)
(-0.0117502 0.0072819 0)
(-0.00923989 0.0071584 0)
(-0.00655789 0.00709641 0)
(-0.00380601 0.0070927 0)
(-0.00113781 0.00620293 0)
(0.00229071 -0.0151104 0)
(0.00854577 -0.0172129 0)
(0.0134055 -0.0171422 0)
(0.0181163 -0.0168259 0)
(0.0225408 -0.0163049 0)
(0.026114 -0.0156059 0)
(0.0286877 -0.014722 0)
(0.0301746 -0.013651 0)
(0.030551 -0.012408 0)
(0.0297705 -0.0110096 0)
(0.0278294 -0.00944976 0)
(0.0248187 -0.00774714 0)
(0.0208621 -0.00592855 0)
(0.0160632 -0.00402491 0)
(0.0106019 -0.00207938 0)
(0.00466924 -0.000127763 0)
(-0.00165284 0.0017986 0)
(-0.00809159 0.00368352 0)
(-0.014355 0.00546929 0)
(-0.0203742 0.00709023 0)
(-0.0261035 0.00852654 0)
(-0.0314526 0.00974057 0)
(-0.0362788 0.0107014 0)
(-0.0404825 0.0113963 0)
(-0.0440048 0.0118186 0)
(-0.0468114 0.011967 0)
(-0.0488839 0.0118674 0)
(-0.0502091 0.0115383 0)
(-0.0508038 0.0109913 0)
(-0.0507008 0.0102734 0)
(-0.0499257 0.00941751 0)
(-0.0485044 0.00846126 0)
(-0.0464905 0.00744623 0)
(-0.0439648 0.00641153 0)
(-0.0409883 0.00539279 0)
(-0.0375879 0.00442317 0)
(-0.0338151 0.00354112 0)
(-0.0297466 0.00277292 0)
(-0.0254362 0.00213601 0)
(-0.0209369 0.00164489 0)
(-0.0163059 0.00131182 0)
(-0.0115471 0.00110773 0)
(-0.00671077 0.00102101 0)
(-0.00204642 0.000887444 0)
(7.18555e-05 -0.0187872 0)
(0.00177631 -0.0211502 0)
(0.00148143 -0.020718 0)
(0.00135256 -0.0197901 0)
(0.00108197 -0.0184275 0)
(0.000152139 -0.0166659 0)
(-0.00163196 -0.0145592 0)
(-0.00435243 -0.0121637 0)
(-0.00794237 -0.00954973 0)
(-0.0123803 -0.00678868 0)
(-0.0176546 -0.00394534 0)
(-0.0236437 -0.00108824 0)
(-0.0301216 0.00171403 0)
(-0.0369395 0.00440051 0)
(-0.0440436 0.00690481 0)
(-0.0513474 0.00917753 0)
(-0.0586304 0.0112082 0)
(-0.0657091 0.0130066 0)
(-0.0724762 0.0144763 0)
(-0.0787858 0.0155858 0)
(-0.0844935 0.0163091 0)
(-0.0894935 0.0166542 0)
(-0.0936827 0.0166323 0)
(-0.0969821 0.0162509 0)
(-0.0993401 0.0155284 0)
(-0.100724 0.0144923 0)
(-0.101117 0.01318 0)
(-0.100521 0.0116343 0)
(-0.0989522 0.00990156 0)
(-0.0964389 0.00803365 0)
(-0.0930196 0.00608404 0)
(-0.0887155 0.0041066 0)
(-0.0835869 0.00215481 0)
(-0.077795 0.000280649 0)
(-0.0714853 -0.00147148 0)
(-0.0647544 -0.00306632 0)
(-0.057671 -0.0044699 0)
(-0.0502864 -0.00566167 0)
(-0.0426694 -0.00663788 0)
(-0.034896 -0.00740092 0)
(-0.0270268 -0.00794251 0)
(-0.0190727 -0.00826826 0)
(-0.0110903 -0.00840704 0)
(-0.00343552 -0.00739701 0)
(-0.00234508 -0.0166348 0)