/*--------------------------------*- C++ -*----------------------------------*\
  =========                 |
  \\      /  F ield         | OpenFOAM: The Open Source CFD Toolbox
   \\    /   O peration     | Website:  https://openfoam.org
    \\  /    A nd           | Version:  7
     \\/     M anipulation  |
\*---------------------------------------------------------------------------*/
FoamFile
{
    version     2.0;
    format      ascii;
    class       volScalarField;
    location    "1.7";
    object      p;
}
// * * * * * * * * * * * * * * * * * * * * * * * * * * * * * * * * * * * * * //

dimensions      [0 2 -2 0 0 0 0];

internalField   nonuniform List<scalar> 
900
(
-1.7703e-08
-0.000133507
-0.000233657
-0.000286837
-0.00026868
-0.000171854
1.9548e-06
0.000248439
0.000562936
0.000940789
0.00137716
0.00186669
0.00240326
0.00297974
0.00358792
0.00421836
0.00486048
0.00550255
0.00613188
0.00673496
0.00729779
0.0078061
0.00824584
0.00860358
0.00886734
0.00902803
0.00908286
0.00904252
0.00893927
0.00878943
0.000131194
-2.98608e-06
-7.30016e-05
-9.50691e-05
-5.90995e-05
4.27791e-05
0.000211841
0.00044667
0.000744738
0.00110271
0.00151652
0.00198126
0.00249111
0.00303924
0.00361768
0.00421733
0.00482792
0.00543819
0.00603591
0.00660814
0.00714158
0.00762293
0.00803946
0.0083797
0.00863443
0.00879793
0.00887059
0.00886343
0.00879223
0.00864221
0.000234025
6.3996e-05
-8.122e-06
-2.4384e-05
1.56351e-05
0.000118149
0.000284381
0.000513454
0.000803577
0.00115208
0.0015554
0.00200904
0.0025075
0.00304422
0.00361145
0.00420027
0.00480067
0.00540141
0.00599037
0.00655471
0.00708121
0.00755666
0.00796854
0.00830571
0.0085594
0.00872421
0.00880042
0.00879769
0.00872227
0.00853469
0.000291331
7.96848e-05
-4.00832e-06
-2.30376e-05
1.59633e-05
0.000117261
0.000281233
0.000506863
0.000792653
0.00113636
0.00153485
0.00198402
0.0024787
0.00301261
0.00357821
0.00416673
0.00476818
0.00537133
0.00596392
0.00653287
0.00706464
0.00754565
0.00796296
0.00830503
0.00856263
0.00872965
0.00880539
0.00879803
0.00870782
0.0084754
0.000274783
2.92423e-05
-6.67168e-05
-9.11586e-05
-5.5116e-05
4.43397e-05
0.000206794
0.000430981
0.000715546
0.00105856
0.00145725
0.00190787
0.0024056
0.00294441
0.00351695
0.00411455
0.00472718
0.00534342
0.00595068
0.00653537
0.00708325
0.00757995
0.0080116
0.00836573
0.00863213
0.00880368
0.00887864
0.00886449
0.00875852
0.00848836
0.000171797
-0.000100891
-0.000208478
-0.000239184
-0.000206653
-0.000108727
5.35934e-05
0.00027882
0.000565688
0.000912526
0.00131689
0.0017754
0.00228352
0.00283549
0.00342415
0.00404084
0.00467544
0.00531618
0.00594992
0.00656225
0.00713791
0.00766123
0.00811695
0.00849112
0.00877212
0.00895158
0.00902692
0.00900567
0.00888428
0.00858185
-2.2061e-05
-0.000318287
-0.00043687
-0.000473823
-0.000444484
-0.00034711
-0.000183112
4.58695e-05
0.000338674
0.000693887
0.0011094
0.00158218
0.00210804
0.00268149
0.00329554
0.00394154
0.00460917
0.00528624
0.00595883
0.00661146
0.00722741
0.00778927
0.00827978
0.00868299
0.00898539
0.00917712
0.00925489
0.00922695
0.00909005
0.00875679
-0.000309428
-0.000628611
-0.000758024
-0.000800922
-0.000774062
-0.000675941
-0.000508277
-0.000272806
2.9461e-05
0.000397405
0.000829294
0.00132249
0.00187322
0.0024763
0.00312494
0.00381054
0.00452256
0.00524828
0.00597287
0.00667946
0.00734949
0.00796324
0.00850083
0.00894357
0.00927549
0.00948486
0.00956773
0.00953355
0.00938009
0.00901359
-0.000693737
-0.00103767
-0.00117838
-0.00122703
-0.00120189
-0.00110168
-0.000928407
-0.000683859
-0.000368852
1.58532e-05
0.000468977
0.000988376
0.00157074
0.00221133
0.00290365
0.00363923
0.00440733
0.00519471
0.00598548
0.00676114
0.00750084
0.00818193
0.00878111
0.00927606
0.00964746
0.00988112
0.00997228
0.00993207
0.00975979
0.00935435
-0.00118009
-0.00155221
-0.00170528
-0.00175973
-0.00173571
-0.00163221
-0.00145157
-0.00119566
-0.000865034
-0.000460012
1.86763e-05
0.0005695
0.00118978
0.00187533
0.00262015
0.00341603
0.0042522
0.00511495
0.0059873
0.00684892
0.00767621
0.00844288
0.00912118
0.00968398
0.0101074
0.0103738
0.0104772
0.0104308
0.0102361
0.00978323
-0.00177553
-0.00218045
-0.00234744
-0.00240801
-0.0023847
-0.00227693
-0.0020875
-0.00181835
-0.00146975
-0.00104149
-0.000533618
5.31064e-05
0.000716806
0.0014541
0.00225971
0.00312596
0.00404227
0.00499472
0.00596532
0.00693179
0.00786738
0.00874137
0.00952033
0.0101707
0.0106622
0.0109724
0.011093
0.0110402
0.0108179
0.0103061
-0.0024891
-0.00293245
-0.00311531
-0.00318257
-0.00315977
-0.00304702
-0.00284771
-0.00256395
-0.00219567
-0.00174202
-0.00120224
-0.000576122
0.000135485
0.000930291
0.00180406
0.00275004
0.00375829
0.00481508
0.00590168
0.00699396
0.00806179
0.00906915
0.00997546
0.0107386
0.0113195
0.0116881
0.0118331
0.0117731
0.0115164
0.0109304
-0.00333198
-0.00382038
-0.00402146
-0.00409616
-0.00407382
-0.00395557
-0.00374566
-0.00344644
-0.00305748
-0.00257721
-0.00200388
-0.00133614
-0.000573522
0.000283096
0.00123097
0.00226479
0.00337582
0.00455123
0.00577217
0.00701312
0.00824051
0.00941235
0.0104793
0.0113878
0.0120864
0.0125342
0.0127135
0.0126459
0.0123453
0.0116642
-0.00431765
-0.00485898
-0.00508096
-0.0051639
-0.00514198
-0.00501781
-0.00479685
-0.00448183
-0.00407196
-0.00356483
-0.00295759
-0.00224751
-0.00143257
-0.000511837
0.00051394
0.00164156
0.00286428
0.00417119
0.00554437
0.00695789
0.00837533
0.0097484
0.0110172
0.0121137
0.012969
0.0135251
0.0137542
0.0136794
0.0133217
0.0125157
-0.00546226
-0.00606604
-0.00631192
-0.00640376
-0.00638198
-0.00625133
-0.00601897
-0.00568819
-0.00525787
-0.0047247
-0.00408457
-0.00333325
-0.00246687
-0.00148235
-0.000377887
0.000846164
0.00218599
0.00363422
0.00517532
0.00678476
0.00842473
0.0100412
0.0115627
0.0129027
0.0139683
0.0146762
0.0149797
0.0149006
0.0144678
0.0134923
-0.00678524
-0.00746323
-0.00773626
-0.00783716
-0.00781455
-0.00767634
-0.00743198
-0.00708563
-0.00663586
-0.00607842
-0.00540787
-0.00461834
-0.00370398
-0.00265928
-0.00147945
-0.000161224
0.0012961
0.00288958
0.00460917
0.00643418
0.00832839
0.0102344
0.0120692
0.0137246
0.0150754
0.0160002
0.0164194
0.0163454
0.0158134
0.0145992
-0.00831027
-0.00907742
-0.00938082
-0.00948981
-0.00946403
-0.00931596
-0.00905823
-0.00869621
-0.00822818
-0.00764894
-0.0069517
-0.00612894
-0.00517281
-0.00407534
-0.00282857
-0.00142476
0.000142722
0.00187632
0.0037752
0.00582641
0.00800017
0.0102408
0.0124573
0.0145188
0.0162591
0.0175003
0.0181071
0.0180638
0.0174028
0.0158391
-0.0100669
-0.0109426
-0.0112791
-0.0113929
-0.0113591
-0.0111966
-0.0109225
-0.0105437
-0.0100582
-0.00945985
-0.00874046
-0.00789106
-0.00690203
-0.00576314
-0.00446333
-0.0029905
-0.00133182
0.000524193
0.00258751
0.00485808
0.00732027
0.00992943
0.0125961
0.0151715
0.017443
0.0191538
0.0200748
0.0201251
0.0193058
0.0172163
-0.0120933
-0.0131031
-0.0134736
-0.0135849
-0.0135335
-0.0133483
-0.013052
-0.0126533
-0.0121498
-0.0115343
-0.0107973
-0.00992859
-0.00891743
-0.00775197
-0.00641879
-0.00490207
-0.00318313
-0.00124125
0.000948131
0.00340224
0.0061294
0.00911054
0.0122763
0.0154782
0.0184632
0.0208748
0.0223339
0.0226224
0.0216392
0.0187509
-0.0144407
-0.0156186
-0.0160199
-0.0161132
-0.0160273
-0.015805
-0.0154759
-0.0150508
-0.0145262
-0.0138933
-0.0131417
-0.0122604
-0.0112382
-0.010063
-0.0087206
-0.00719339
-0.00545839
-0.00348566
-0.0012414
0.00131738
0.00423192
0.00752668
0.0111828
0.0150926
0.0189978
0.0224403
0.024822
0.0256607
0.0245957
0.0205194
-0.0171819
-0.0185727
-0.0189917
-0.0190376
-0.0188874
-0.0186037
-0.0182244
-0.0177608
-0.0172075
-0.0165534
-0.0157866
-0.014896
-0.0138713
-0.0127018
-0.0113754
-0.0098758
-0.00818039
-0.00625616
-0.00405633
-0.0015246
0.00142288
0.00487105
0.00889062
0.0134841
0.0184768
0.0233674
0.0272897
0.0293036
0.0284722
0.0227465
-0.0204275
-0.0220861
-0.0224887
-0.0224317
-0.0221668
-0.0217828
-0.0213251
-0.020803
-0.0202064
-0.0195204
-0.0187312
-0.0178279
-0.0168022
-0.0156475
-0.0143567
-0.0129198
-0.0113207
-0.00953247
-0.00751063
-0.00517742
-0.00243559
0.00087334
0.0049449
0.0099841
0.0160587
0.0228025
0.0291432
0.0334595
0.0336698
0.0259999
-0.0243585
-0.0263402
-0.0266459
-0.0263835
-0.0259196
-0.0253741
-0.0247947
-0.0241822
-0.0235172
-0.0227782
-0.0219486
-0.0210177
-0.0199806
-0.0188364
-0.0175868
-0.0162328
-0.0147722
-0.0131945
-0.0114714
-0.00953803
-0.00728139
-0.00450697
-0.000882157
0.0040818
0.0109019
0.0196794
0.0294444
0.0378064
0.0406862
0.0315768
-0.0292956
-0.0316133
-0.0316424
-0.0309872
-0.0301849
-0.0293829
-0.0286158
-0.0278634
-0.0270894
-0.026262
-0.0253594
-0.0243708
-0.0232953
-0.0221393
-0.0209152
-0.0196389
-0.0183275
-0.0169957
-0.0156493
-0.0142601
-0.0127253
-0.0108513
-0.00820677
-0.00398224
0.00294857
0.0135518
0.0275408
0.0421021
0.0503173
0.0421558
-0.0358495
-0.0383352
-0.0376959
-0.0363099
-0.0349423
-0.0337378
-0.0326832
-0.0317166
-0.0307732
-0.0298049
-0.0287818
-0.0276919
-0.0265374
-0.0253317
-0.0240982
-0.0228677
-0.0216782
-0.0205717
-0.0195892
-0.0187557
-0.0180265
-0.0171772
-0.0157483
-0.0126591
-0.0061547
0.00586766
0.0244308
0.0472332
0.064434
0.0624459
-0.0452734
-0.0471517
-0.0449928
-0.0422861
-0.0399936
-0.0381663
-0.0366797
-0.035397
-0.0342084
-0.0330406
-0.0318496
-0.0306188
-0.0293507
-0.0280631
-0.0267869
-0.025564
-0.0244475
-0.0234991
-0.022784
-0.0223526
-0.0221924
-0.0221169
-0.0215107
-0.0191509
-0.0127819
0.000739808
0.0240781
0.0567671
0.0871722
0.0990278
-0.0605034
-0.0589757
-0.0534825
-0.0484713
-0.0447139
-0.0419595
-0.0398629
-0.0381664
-0.0366847
-0.0353029
-0.0339457
-0.0325871
-0.0312232
-0.0298705
-0.0285617
-0.0273429
-0.026271
-0.0254112
-0.0248262
-0.0245512
-0.0245375
-0.0245311
-0.0237632
-0.0207524
-0.0128727
0.00366224
0.0328656
0.077308
0.124925
0.160661
-0.0889817
-0.074563
-0.0626804
-0.0538233
-0.0478487
-0.0438574
-0.0410484
-0.0389628
-0.0372786
-0.0357962
-0.0344014
-0.0330397
-0.0316952
-0.0303789
-0.029121
-0.0279648
-0.0269617
-0.026162
-0.0255965
-0.0252395
-0.0249368
-0.024272
-0.0222201
-0.0169343
-0.00531316
0.0171673
0.0556999
0.114602
0.184355
0.265301
-0.141596
-0.0896486
-0.0699217
-0.0554066
-0.0466461
-0.0415945
-0.0385471
-0.0365545
-0.0350985
-0.0338913
-0.0327768
-0.03168
-0.0305779
-0.0294804
-0.0284183
-0.0274339
-0.0265712
-0.0258617
-0.0252953
-0.0247628
-0.0239544
-0.0222071
-0.0183234
-0.0099832
0.00652288
0.0368672
0.0879476
0.168014
0.27476
0.446612
-0.313014
-0.0987438
-0.0516502
-0.0360908
-0.0290069
-0.0264307
-0.0261062
-0.026533
-0.0270325
-0.0273714
-0.0274818
-0.0273598
-0.0270371
-0.0265659
-0.0260083
-0.0254275
-0.0248781
-0.0243898
-0.0239368
-0.0233834
-0.022393
-0.0202714
-0.0156716
-0.00603817
0.0125567
0.0468006
0.106631
0.213306
0.386612
0.732055
)
;

boundaryField
{
    movingWall
    {
        type            zeroGradient;
    }
    fixedWalls
    {
        type            zeroGradient;
    }
    frontAndBack
    {
        type            empty;
    }
}


// ************************************************************************* //
