/*--------------------------------*- C++ -*----------------------------------*\
  =========                 |
  \\      /  F ield         | OpenFOAM: The Open Source CFD Toolbox
   \\    /   O peration     | Website:  https://openfoam.org
    \\  /    A nd           | Version:  7
     \\/     M anipulation  |
\*---------------------------------------------------------------------------*/
FoamFile
{
    version     2.0;
    format      ascii;
    class       volScalarField;
    location    "1.4";
    object      p;
}
// * * * * * * * * * * * * * * * * * * * * * * * * * * * * * * * * * * * * * //

dimensions      [0 2 -2 0 0 0 0];

internalField   nonuniform List<scalar> 
1936
(
-2.17479e-05
-3347.77
-6340.34
-5429.27
-4200.6
-3609.83
-3387.52
-3869.34
-5862.98
-7277.15
-5563.12
-3521.03
-3001.89
-3010.89
-3705.48
-5590.83
-6815.86
-5405.24
-3469.9
-2850.51
-2864.12
-3549.34
-5831.42
-7252.19
-5429.37
-3338.04
-2780.92
-2800.02
-3471.97
-5371.38
-6840.92
-5568
-3470.45
-2802.36
-2839.32
-3707.5
-6206.23
-7151.87
-4844.74
-2960.18
-2661.91
-2780.83
-4157.67
-6633.86
-85.4277
-3299.35
-6278.86
-5425.52
-4221.65
-3649.21
-3429.82
-3873.17
-5813.65
-7202.84
-5516.53
-3529.7
-3051.14
-3065.15
-3729.06
-5568.94
-6767.1
-5381.17
-3496.12
-2907.92
-2912.84
-3549.27
-5771.23
-7174.97
-5387.46
-3346.95
-2829.99
-2856.25
-3499.04
-5354.9
-6790.9
-5536.35
-3493.86
-2862.19
-2888.39
-3701.11
-6139.59
-7077.39
-4812.87
-2984.2
-2719.6
-2832.66
-4160.31
-6587.93
-361.576
-3165.22
-6047.04
-5418.18
-4296.88
-3747.25
-3531.66
-3905.61
-5687.8
-6969.4
-5402.07
-3574.1
-3165.91
-3201.61
-3813.7
-5510.96
-6605.87
-5318.91
-3586.4
-3048.66
-3029.04
-3574.17
-5612.72
-6932.39
-5288.14
-3394.97
-2945.4
-2995.9
-3593.6
-5315.64
-6625
-5449.69
-3578.03
-3007.53
-3007.24
-3712.69
-5953.97
-6843.24
-4751.48
-3064.71
-2849.88
-2973.93
-4194.5
-6440.14
-747.654
-3024.48
-5694.43
-5364.18
-4388.87
-3876.58
-3677.37
-3977.51
-5518.75
-6624.89
-5252.12
-3662.19
-3329.38
-3383.46
-3928.6
-5414.48
-6353.26
-5221.91
-3711.15
-3235.61
-3195.35
-3637.2
-5399.58
-6571.72
-5153.61
-3488
-3112.35
-3182.47
-3722.11
-5244.05
-6364.13
-5319.25
-3696.19
-3200.92
-3178.71
-3757.42
-5696
-6493.79
-4676.74
-3198.99
-3032.27
-3167.4
-4239.97
-6205.17
-1186.32
-2923.94
-5280.68
-5251.52
-4467.53
-4011.07
-3842.43
-4078.71
-5335.38
-6228.71
-5093.87
-3783.95
-3519.31
-3577.89
-4046.44
-5289.72
-6048.79
-5101.99
-3841.85
-3435.38
-3387.97
-3731.84
-5170.86
-6153.74
-5005.31
-3615.27
-3309.64
-3383.88
-3855.45
-5144.74
-6048.88
-5163.92
-3820.83
-3407.17
-3377.09
-3831.06
-5412.7
-6088.61
-4600.62
-3369.52
-3241.7
-3375.89
-4280.09
-5919.47
-1639.38
-2891.35
-4862.4
-5079.24
-4514.45
-4133.12
-4006.1
-4191.77
-5156.02
-5827.81
-4944.99
-3925.76
-3717.97
-3766.96
-4151.62
-5144.92
-5723.82
-4967.78
-3962.46
-3629.98
-3588.19
-3847.15
-4953.96
-5728.34
-4857.33
-3762.8
-3518.55
-3582.43
-3977.52
-5021.88
-5711.85
-4997.64
-3937.16
-3606.58
-3581.73
-3924.89
-5138.6
-5675.67
-4530.06
-3557.65
-3459.16
-3578.25
-4305.87
-5611.91
-2079.7
-2934
-4489.88
-4864.14
-4520.86
-4233.55
-4149.66
-4296.2
-4990.45
-5456.57
-4815.96
-4070.7
-3909.57
-3939.76
-4239.41
-4990.56
-5404.17
-4830.07
-4068.41
-3809.27
-3779.72
-3968.59
-4766.65
-5333.51
-4719.8
-3912.69
-3722.53
-3767.16
-4082.55
-4884.12
-5380.37
-4834.13
-4040.48
-3788.93
-3775.26
-4025.93
-4896.86
-5291.64
-4468.45
-3744.33
-3667.76
-3761.81
-4319.88
-5306.56
-2488.94
-3043.46
-4198.44
-4636.06
-4488.91
-4304.91
-4259.79
-4376
-4841.29
-5137.39
-4709.5
-4203.47
-4080.46
-4091.17
-4309.83
-4837.68
-5111.81
-4701.27
-4159.21
-3967.57
-3950.15
-4082.97
-4615.65
-4996.33
-4598.36
-4049.79
-3906.89
-3931.94
-4169.91
-4742.71
-5077.41
-4686.85
-4129.91
-3948.42
-3945.2
-4121.79
-4698.38
-4962.89
-4415.8
-3913.95
-3854.14
-3920.43
-4327.46
-5024.46
-2854.51
-3200.96
-4004.55
-4427.35
-4427.46
-4341.41
-4329.97
-4423.24
-4710.94
-4882.02
-4624.11
-4311.53
-4220.41
-4217.54
-4361.87
-4698.87
-4863.89
-4590.9
-4234.16
-4101.84
-4090.85
-4179.77
-4502.09
-4732.21
-4498.87
-4162.48
-4060.75
-4072.63
-4237.44
-4611.81
-4821
-4564.36
-4204.08
-4082.19
-4083.33
-4202.16
-4547.11
-4704.41
-4372.83
-4055.04
-4009.82
-4053.17
-4330.32
-4781.86
-3167.15
-3381.1
-3905.81
-4262.61
-4350.03
-4343.3
-4362.11
-4437.56
-4601.61
-4691.8
-4557.3
-4386.81
-4324.11
-4313.84
-4395.28
-4584.57
-4670.67
-4505.46
-4292.25
-4207.86
-4198.58
-4251.8
-4423.56
-4545.54
-4425.21
-4244.13
-4179.17
-4183.54
-4284.69
-4503.71
-4622.05
-4471.25
-4261.14
-4186.54
-4187.6
-4260.36
-4441.53
-4520.89
-4341.14
-4162.35
-4130.48
-4158.09
-4328.72
-4590
-3421.89
-3559.18
-3883.57
-4153.77
-4273.96
-4320.18
-4363.53
-4425.62
-4514.04
-4560.13
-4505.54
-4428.43
-4390.88
-4377.45
-4412.1
-4499.59
-4534.39
-4445.61
-4332.51
-4283.16
-4273.78
-4298.91
-4375.2
-4429.44
-4377.83
-4296.29
-4261.3
-4261.51
-4314.29
-4424.7
-4482.75
-4406.83
-4300.03
-4259.44
-4259.56
-4296.77
-4375.77
-4406.4
-4321.62
-4235.29
-4216.75
-4233.04
-4323.75
-4453.66
-3620.94
-3714.77
-3909.93
-4098.62
-4215.36
-4287.25
-4344.84
-4397.14
-4446.82
-4474.76
-4465.3
-4442.03
-4424.16
-4410.61
-4415.74
-4442.71
-4449.08
-4407.31
-4355.56
-4329.4
-4320.39
-4326.1
-4350.18
-4368.58
-4352.59
-4325.37
-4310.88
-4308.64
-4329.3
-4373.94
-4397.09
-4366.46
-4322.07
-4303.71
-4303.04
-4316.25
-4340.71
-4346.57
-4312.92
-4279.41
-4271.47
-4279.2
-4317.67
-4369.39
-3770.93
-3839.44
-3958.8
-4083.15
-4181.24
-4256.41
-4316.13
-4362.22
-4397.13
-4421.19
-4433.33
-4436.34
-4431.55
-4419.74
-4410.36
-4408.17
-4402.28
-4384.68
-4364.99
-4352.76
-4344.77
-4339.95
-4340.76
-4343.85
-4342.36
-4338.87
-4335.4
-4331.89
-4334.59
-4345.91
-4352.33
-4343.99
-4331.42
-4325.98
-4324.74
-4324.98
-4326.01
-4322.66
-4311.74
-4302.85
-4301.01
-4302.66
-4312.72
-4326.1
-3886.4
-3933.52
-4008.9
-4091.6
-4167.89
-4234.04
-4288.44
-4330.05
-4361.4
-4386.56
-4406.88
-4419.92
-4422.41
-4413.9
-4400.23
-4388.41
-4379.43
-4371.98
-4366.13
-4361.08
-4354.41
-4346.19
-4339.8
-4338
-4340.04
-4343.42
-4343.87
-4339.93
-4335.05
-4333.16
-4333.36
-4333.27
-4333.46
-4334.02
-4332.62
-4328.25
-4322.48
-4317.47
-4314.24
-4313.68
-4313.83
-4311.94
-4310.11
-4309.25
-3977.06
-4006.54
-4054.46
-4110.27
-4167.22
-4220.59
-4266.96
-4304.8
-4335.43
-4361.49
-4383.42
-4398.65
-4404
-4399.1
-4387.98
-4376.54
-4368.63
-4364.95
-4363.6
-4361.41
-4356.18
-4348.55
-4341.83
-4339.17
-4340.69
-4343.81
-4344.44
-4340.48
-4334.08
-4328.86
-4327.31
-4329.16
-4332.61
-4334.97
-4333.91
-4329.21
-4323.37
-4319
-4317.59
-4318.03
-4317.77
-4314.57
-4309.66
-4305.53
-4049.03
-4066.04
-4095.75
-4133
-4173.84
-4214.89
-4252.82
-4286.27
-4315.28
-4340.43
-4361.26
-4375.99
-4382.75
-4381.6
-4375.28
-4367.94
-4362.75
-4360.56
-4359.87
-4358.34
-4354.42
-4348.83
-4343.8
-4341.29
-4341.47
-4342.53
-4342.03
-4338.58
-4333.39
-4329.04
-4327.39
-4328.73
-4331.44
-4333.24
-4332.37
-4329.06
-4324.92
-4321.77
-4320.29
-4319.7
-4318.44
-4315.21
-4310.99
-4307.74
-4105.85
-4115.35
-4133.29
-4157.46
-4185.65
-4215.57
-4245.39
-4273.38
-4298.92
-4321.49
-4340.23
-4353.95
-4361.8
-4364.09
-4362.53
-4359.58
-4357.22
-4356.07
-4355.41
-4354.07
-4351.36
-4347.75
-4344.41
-4342.32
-4341.51
-4341.03
-4339.66
-4336.85
-4333.25
-4330.25
-4328.91
-4329.33
-4330.55
-4331.25
-4330.51
-4328.46
-4325.89
-4323.58
-4321.88
-4320.43
-4318.58
-4315.97
-4313.19
-4311.19
-4150.27
-4155.67
-4166.47
-4181.85
-4200.73
-4221.78
-4243.77
-4265.69
-4286.5
-4305.42
-4321.57
-4334.15
-4342.74
-4347.61
-4349.67
-4350.2
-4350.26
-4350.27
-4350.06
-4349.23
-4347.62
-4345.5
-4343.42
-4341.8
-4340.62
-4339.49
-4337.93
-4335.79
-4333.42
-4331.43
-4330.31
-4330.04
-4330.13
-4330
-4329.25
-4327.86
-4326.14
-4324.41
-4322.78
-4321.16
-4319.38
-4317.45
-4315.71
-4314.55
-4184.64
-4187.87
-4194.51
-4204.29
-4216.71
-4231.1
-4246.7
-4262.81
-4278.67
-4293.58
-4306.87
-4317.97
-4326.6
-4332.82
-4337.08
-4339.89
-4341.77
-4343.01
-4343.65
-4343.67
-4343.09
-4342.12
-4341.01
-4339.93
-4338.91
-4337.82
-4336.53
-4335.02
-4333.47
-4332.12
-4331.13
-4330.5
-4330.01
-4329.44
-4328.6
-4327.51
-4326.25
-4324.91
-4323.54
-4322.15
-4320.75
-4319.42
-4318.34
-4317.68
-4210.96
-4213
-4217.2
-4223.5
-4231.67
-4241.34
-4252.1
-4263.5
-4275.09
-4286.33
-4296.79
-4306.09
-4314
-4320.48
-4325.61
-4329.59
-4332.64
-4334.9
-4336.46
-4337.39
-4337.79
-4337.79
-4337.52
-4337.08
-4336.52
-4335.83
-4335
-4334.06
-4333.09
-4332.16
-4331.35
-4330.64
-4329.97
-4329.25
-4328.44
-4327.53
-4326.55
-4325.52
-4324.47
-4323.44
-4322.45
-4321.57
-4320.91
-4320.52
-4230.86
-4232.2
-4234.94
-4239.08
-4244.49
-4250.99
-4258.33
-4266.27
-4274.51
-4282.78
-4290.77
-4298.24
-4305
-4310.96
-4316.1
-4320.43
-4324.01
-4326.9
-4329.17
-4330.88
-4332.09
-4332.9
-4333.38
-4333.61
-4333.62
-4333.46
-4333.15
-4332.71
-4332.2
-4331.64
-4331.07
-4330.48
-4329.88
-4329.24
-4328.56
-4327.84
-4327.09
-4326.34
-4325.59
-4324.88
-4324.22
-4323.67
-4323.27
-4323.04
-4245.58
-4246.49
-4248.33
-4251.11
-4254.76
-4259.19
-4264.25
-4269.8
-4275.68
-4281.71
-4287.72
-4293.56
-4299.1
-4304.23
-4308.9
-4313.08
-4316.74
-4319.9
-4322.58
-4324.79
-4326.59
-4328.02
-4329.12
-4329.93
-4330.5
-4330.86
-4331.04
-4331.06
-4330.96
-4330.76
-4330.48
-4330.13
-4329.74
-4329.29
-4328.81
-4328.3
-4327.78
-4327.26
-4326.76
-4326.29
-4325.88
-4325.54
-4325.3
-4325.17
-4255.3
-4255.96
-4257.27
-4259.26
-4261.89
-4265.09
-4268.78
-4272.87
-4277.26
-4281.84
-4286.52
-4291.19
-4295.76
-4300.14
-4304.27
-4308.11
-4311.62
-4314.79
-4317.61
-4320.08
-4322.21
-4324.02
-4325.53
-4326.77
-4327.77
-4328.54
-4329.1
-4329.5
-4329.74
-4329.85
-4329.85
-4329.75
-4329.58
-4329.35
-4329.06
-4328.75
-4328.42
-4328.09
-4327.77
-4327.47
-4327.21
-4327
-4326.85
-4326.77
-4260.81
-4261.33
-4262.37
-4263.95
-4266.03
-4268.59
-4271.54
-4274.85
-4278.43
-4282.22
-4286.13
-4290.1
-4294.06
-4297.94
-4301.68
-4305.25
-4308.6
-4311.7
-4314.54
-4317.1
-4319.39
-4321.41
-4323.16
-4324.65
-4325.91
-4326.94
-4327.77
-4328.41
-4328.88
-4329.21
-4329.41
-4329.5
-4329.5
-4329.43
-4329.3
-4329.12
-4328.92
-4328.71
-4328.5
-4328.3
-4328.12
-4327.98
-4327.88
-4327.83
-4263.67
-4264.12
-4265.01
-4266.37
-4268.19
-4270.41
-4272.99
-4275.89
-4279.05
-4282.42
-4285.93
-4289.52
-4293.15
-4296.74
-4300.26
-4303.66
-4306.9
-4309.95
-4312.79
-4315.4
-4317.77
-4319.9
-4321.78
-4323.42
-4324.83
-4326.03
-4327.01
-4327.81
-4328.43
-4328.9
-4329.23
-4329.44
-4329.55
-4329.57
-4329.53
-4329.44
-4329.32
-4329.17
-4329.02
-4328.88
-4328.75
-4328.64
-4328.57
-4328.53
-4264.99
-4265.41
-4266.23
-4267.48
-4269.16
-4271.21
-4273.61
-4276.3
-4279.25
-4282.41
-4285.71
-4289.12
-4292.58
-4296.03
-4299.44
-4302.75
-4305.94
-4308.98
-4311.83
-4314.47
-4316.9
-4319.1
-4321.06
-4322.8
-4324.31
-4325.6
-4326.69
-4327.57
-4328.29
-4328.84
-4329.24
-4329.52
-4329.69
-4329.78
-4329.79
-4329.74
-4329.66
-4329.55
-4329.43
-4329.31
-4329.2
-4329.12
-4329.05
-4329.02
-4265.44
-4265.84
-4266.62
-4267.83
-4269.43
-4271.41
-4273.72
-4276.33
-4279.18
-4282.25
-4285.47
-4288.79
-4292.18
-4295.58
-4298.95
-4302.25
-4305.43
-4308.47
-4311.35
-4314.03
-4316.5
-4318.75
-4320.77
-4322.57
-4324.14
-4325.5
-4326.64
-4327.59
-4328.35
-4328.94
-4329.39
-4329.7
-4329.9
-4330.01
-4330.04
-4330.02
-4329.95
-4329.85
-4329.75
-4329.64
-4329.54
-4329.45
-4329.39
-4329.36
-4265.4
-4265.79
-4266.57
-4267.75
-4269.34
-4271.3
-4273.58
-4276.16
-4278.99
-4282.03
-4285.23
-4288.55
-4291.93
-4295.32
-4298.7
-4302
-4305.21
-4308.28
-4311.18
-4313.89
-4316.4
-4318.69
-4320.75
-4322.59
-4324.19
-4325.58
-4326.75
-4327.72
-4328.51
-4329.12
-4329.58
-4329.9
-4330.11
-4330.22
-4330.25
-4330.22
-4330.15
-4330.06
-4329.95
-4329.83
-4329.73
-4329.65
-4329.59
-4329.56
-4265.19
-4265.58
-4266.35
-4267.54
-4269.13
-4271.09
-4273.38
-4275.97
-4278.81
-4281.86
-4285.08
-4288.42
-4291.82
-4295.24
-4298.64
-4301.97
-4305.2
-4308.3
-4311.22
-4313.96
-4316.5
-4318.81
-4320.89
-4322.74
-4324.36
-4325.75
-4326.92
-4327.89
-4328.67
-4329.28
-4329.72
-4330.03
-4330.23
-4330.32
-4330.34
-4330.3
-4330.22
-4330.11
-4329.98
-4329.86
-4329.76
-4329.67
-4329.61
-4329.58
-4264.98
-4265.37
-4266.14
-4267.34
-4268.94
-4270.92
-4273.24
-4275.86
-4278.73
-4281.82
-4285.07
-4288.44
-4291.88
-4295.33
-4298.76
-4302.12
-4305.38
-4308.49
-4311.44
-4314.19
-4316.73
-4319.04
-4321.12
-4322.96
-4324.57
-4325.94
-4327.1
-4328.04
-4328.79
-4329.36
-4329.78
-4330.05
-4330.21
-4330.28
-4330.27
-4330.2
-4330.09
-4329.96
-4329.82
-4329.69
-4329.57
-4329.48
-4329.41
-4329.38
-4264.89
-4265.27
-4266.05
-4267.26
-4268.89
-4270.89
-4273.25
-4275.9
-4278.81
-4281.94
-4285.23
-4288.63
-4292.1
-4295.59
-4299.04
-4302.42
-4305.69
-4308.81
-4311.76
-4314.51
-4317.04
-4319.34
-4321.4
-4323.21
-4324.79
-4326.12
-4327.23
-4328.13
-4328.83
-4329.35
-4329.71
-4329.93
-4330.04
-4330.06
-4330
-4329.89
-4329.75
-4329.59
-4329.43
-4329.28
-4329.15
-4329.05
-4328.98
-4328.95
-4264.97
-4265.36
-4266.14
-4267.37
-4269.02
-4271.06
-4273.45
-4276.13
-4279.08
-4282.23
-4285.55
-4288.98
-4292.46
-4295.96
-4299.43
-4302.82
-4306.09
-4309.22
-4312.16
-4314.89
-4317.4
-4319.67
-4321.7
-4323.47
-4325
-4326.28
-4327.33
-4328.17
-4328.8
-4329.25
-4329.54
-4329.69
-4329.73
-4329.67
-4329.55
-4329.38
-4329.19
-4328.99
-4328.8
-4328.63
-4328.49
-4328.38
-4328.31
-4328.28
-4265.3
-4265.68
-4266.47
-4267.71
-4269.39
-4271.44
-4273.84
-4276.54
-4279.49
-4282.66
-4285.98
-4289.42
-4292.91
-4296.42
-4299.89
-4303.28
-4306.54
-4309.66
-4312.58
-4315.3
-4317.78
-4320.02
-4322
-4323.73
-4325.2
-4326.42
-4327.41
-4328.17
-4328.72
-4329.09
-4329.3
-4329.37
-4329.32
-4329.18
-4328.97
-4328.72
-4328.45
-4328.19
-4327.94
-4327.74
-4327.58
-4327.46
-4327.4
-4327.38
-4265.89
-4266.28
-4267.06
-4268.3
-4269.97
-4272.01
-4274.4
-4277.08
-4280.02
-4283.17
-4286.48
-4289.91
-4293.4
-4296.9
-4300.36
-4303.74
-4307
-4310.1
-4313.01
-4315.7
-4318.15
-4320.35
-4322.29
-4323.97
-4325.39
-4326.55
-4327.47
-4328.15
-4328.63
-4328.92
-4329.03
-4329.01
-4328.86
-4328.62
-4328.31
-4327.96
-4327.59
-4327.23
-4326.91
-4326.63
-4326.42
-4326.29
-4326.23
-4326.22
-4266.8
-4267.18
-4267.94
-4269.13
-4270.75
-4272.73
-4275.06
-4277.69
-4280.59
-4283.71
-4287
-4290.41
-4293.88
-4297.37
-4300.82
-4304.19
-4307.44
-4310.52
-4313.41
-4316.08
-4318.5
-4320.67
-4322.57
-4324.2
-4325.57
-4326.67
-4327.52
-4328.14
-4328.54
-4328.74
-4328.77
-4328.65
-4328.4
-4328.06
-4327.63
-4327.17
-4326.68
-4326.19
-4325.74
-4325.35
-4325.05
-4324.84
-4324.78
-4324.79
-4268.09
-4268.41
-4269.11
-4270.16
-4271.67
-4273.54
-4275.77
-4278.33
-4281.16
-4284.23
-4287.48
-4290.86
-4294.32
-4297.8
-4301.24
-4304.6
-4307.83
-4310.9
-4313.77
-4316.42
-4318.82
-4320.96
-4322.83
-4324.42
-4325.74
-4326.79
-4327.58
-4328.14
-4328.47
-4328.59
-4328.54
-4328.33
-4327.98
-4327.53
-4326.99
-4326.4
-4325.77
-4325.13
-4324.52
-4323.96
-4323.5
-4323.14
-4323.03
-4323.02
-4269.87
-4270
-4270.53
-4271.33
-4272.65
-4274.36
-4276.46
-4278.92
-4281.67
-4284.69
-4287.9
-4291.26
-4294.7
-4298.16
-4301.59
-4304.95
-4308.17
-4311.23
-4314.09
-4316.73
-4319.11
-4321.22
-4323.06
-4324.62
-4325.9
-4326.9
-4327.65
-4328.15
-4328.42
-4328.48
-4328.35
-4328.06
-4327.62
-4327.07
-4326.42
-4325.7
-4324.93
-4324.13
-4323.34
-4322.55
-4321.87
-4321.23
-4320.98
-4320.8
-4272.29
-4271.89
-4272.14
-4272.54
-4273.61
-4275.12
-4277.08
-4279.43
-4282.11
-4285.07
-4288.25
-4291.58
-4295.01
-4298.46
-4301.89
-4305.24
-4308.46
-4311.51
-4314.36
-4316.99
-4319.35
-4321.45
-4323.27
-4324.8
-4326.04
-4327.02
-4327.72
-4328.17
-4328.39
-4328.39
-4328.2
-4327.84
-4327.33
-4326.69
-4325.95
-4325.12
-4324.21
-4323.25
-4322.26
-4321.22
-4320.25
-4319.2
-4318.68
-4318
-4275.47
-4274
-4273.8
-4273.68
-4274.47
-4275.77
-4277.59
-4279.84
-4282.45
-4285.36
-4288.51
-4291.83
-4295.24
-4298.69
-4302.12
-4305.46
-4308.68
-4311.74
-4314.58
-4317.2
-4319.56
-4321.64
-4323.44
-4324.95
-4326.17
-4327.11
-4327.79
-4328.2
-4328.38
-4328.34
-4328.1
-4327.68
-4327.11
-4326.4
-4325.58
-4324.65
-4323.63
-4322.52
-4321.34
-4320.05
-4318.77
-4317.17
-4316.24
-4314.49
-4279.5
-4276.14
-4275.36
-4274.66
-4275.17
-4276.27
-4277.98
-4280.14
-4282.7
-4285.57
-4288.7
-4292
-4295.41
-4298.86
-4302.28
-4305.63
-4308.85
-4311.9
-4314.75
-4317.36
-4319.71
-4321.79
-4323.57
-4325.07
-4326.28
-4327.2
-4327.85
-4328.24
-4328.39
-4328.31
-4328.03
-4327.58
-4326.96
-4326.2
-4325.31
-4324.3
-4323.19
-4321.96
-4320.63
-4319.11
-4317.52
-4315.32
-4313.84
-4310.18
-4284.31
-4278.11
-4276.66
-4275.41
-4275.68
-4276.63
-4278.24
-4280.34
-4282.86
-4285.71
-4288.82
-4292.12
-4295.52
-4298.97
-4302.4
-4305.74
-4308.97
-4312.02
-4314.87
-4317.48
-4319.82
-4321.89
-4323.67
-4325.16
-4326.35
-4327.26
-4327.89
-4328.27
-4328.39
-4328.3
-4328
-4327.51
-4326.86
-4326.06
-4325.13
-4324.07
-4322.89
-4321.58
-4320.13
-4318.42
-4316.57
-4313.82
-4311.7
-4305.17
-4289.54
-4279.67
-4277.58
-4275.91
-4276.01
-4276.84
-4278.4
-4280.46
-4282.95
-4285.79
-4288.89
-4292.18
-4295.59
-4299.04
-4302.46
-4305.81
-4309.03
-4312.09
-4314.94
-4317.54
-4319.89
-4321.96
-4323.73
-4325.21
-4326.4
-4327.3
-4327.92
-4328.29
-4328.4
-4328.29
-4327.98
-4327.47
-4326.8
-4325.98
-4325.02
-4323.93
-4322.71
-4321.35
-4319.82
-4317.99
-4315.97
-4312.78
-4310.04
-4299.8
-4294.48
-4280.65
-4278.07
-4276.16
-4276.16
-4276.95
-4278.47
-4280.51
-4282.99
-4285.82
-4288.92
-4292.21
-4295.62
-4299.06
-4302.49
-4305.84
-4309.07
-4312.12
-4314.97
-4317.58
-4319.92
-4321.99
-4323.76
-4325.24
-4326.42
-4327.32
-4327.94
-4328.3
-4328.41
-4328.29
-4327.97
-4327.46
-4326.78
-4325.95
-4324.97
-4323.87
-4322.63
-4321.24
-4319.68
-4317.79
-4315.66
-4312.24
-4309
-4294.79
-4298.43
-4281.08
-4278.24
-4276.25
-4276.22
-4276.98
-4278.49
-4280.53
-4283.01
-4285.83
-4288.93
-4292.22
-4295.63
-4299.07
-4302.5
-4305.85
-4309.08
-4312.13
-4314.98
-4317.59
-4319.93
-4321.99
-4323.77
-4325.25
-4326.43
-4327.32
-4327.94
-4328.3
-4328.41
-4328.29
-4327.96
-4327.45
-4326.77
-4325.93
-4324.96
-4323.85
-4322.61
-4321.2
-4319.63
-4317.72
-4315.56
-4312.05
-4308.56
-4290.82
)
;

boundaryField
{
    movingWall
    {
        type            zeroGradient;
    }
    fixedWalls
    {
        type            zeroGradient;
    }
    frontAndBack
    {
        type            empty;
    }
    defaultFaces
    {
        type            empty;
    }
}


// ************************************************************************* //
