/*--------------------------------*- C++ -*----------------------------------*\
  =========                 |
  \\      /  F ield         | OpenFOAM: The Open Source CFD Toolbox
   \\    /   O peration     | Website:  https://openfoam.org
    \\  /    A nd           | Version:  7
     \\/     M anipulation  |
\*---------------------------------------------------------------------------*/
FoamFile
{
    version     2.0;
    format      ascii;
    class       volScalarField;
    location    "3";
    object      p;
}
// * * * * * * * * * * * * * * * * * * * * * * * * * * * * * * * * * * * * * //

dimensions      [0 2 -2 0 0 0 0];

internalField   nonuniform List<scalar> 
900
(
1.07952e-10
-0.000115675
-0.000233483
-0.00032169
-0.000354184
-0.000318913
-0.000213147
-3.83707e-05
0.000202446
0.000505944
0.000868606
0.00128655
0.00175515
0.00226858
0.00281947
0.00339855
0.00399452
0.00459399
0.00518162
0.00574052
0.00625286
0.00670081
0.00706782
0.00734015
0.00750886
0.00757222
0.00753871
0.00743121
0.00728886
0.00715902
0.000114369
-2.62379e-06
-8.42495e-05
-0.00013409
-0.000138756
-8.81075e-05
2.1572e-05
0.000190897
0.000419038
0.000704271
0.00104415
0.00143544
0.00187387
0.00235389
0.0028684
0.0034085
0.0039634
0.00452055
0.00506567
0.00558327
0.00605733
0.0064723
0.00681426
0.00707252
0.00724116
0.00732062
0.00731961
0.00725757
0.00715939
0.00702984
0.000235534
7.61455e-05
-7.49155e-06
-4.90466e-05
-4.57554e-05
9.71561e-06
0.000119962
0.000285559
0.000506253
0.000781066
0.00110826
0.00148519
0.00190812
0.00237193
0.00286989
0.00339347
0.00393233
0.00447408
0.00500479
0.00550929
0.00597189
0.00637738
0.00671234
0.00696657
0.00713462
0.00721689
0.00722117
0.00716467
0.00706159
0.00688697
0.000329269
0.000120469
2.30418e-05
-2.10931e-05
-1.7523e-05
3.82243e-05
0.000147068
0.000308928
0.000523657
0.000790756
0.0011091
0.00147672
0.00189048
0.00234582
0.00283652
0.00335441
0.00388935
0.00442907
0.00495952
0.00546521
0.00592999
0.00633806
0.00667536
0.00693114
0.00709936
0.00717971
0.007179
0.00711318
0.00699002
0.00676291
0.000364799
0.000111225
-2.27759e-06
-5.31962e-05
-5.31433e-05
1.91133e-07
0.000106221
0.000264181
0.00047393
0.000735372
0.00104799
0.00141049
0.00182044
0.00227394
0.00276527
0.00328666
0.0038281
0.00437723
0.0049195
0.00543861
0.00591726
0.00633827
0.00668615
0.0069488
0.00711909
0.00719585
0.00718542
0.00710383
0.00695619
0.00668088
0.000323174
3.10346e-05
-9.87161e-05
-0.000158524
-0.000164226
-0.000114993
-1.25758e-05
0.000141714
0.000347772
0.000605905
0.000916218
0.00127815
0.00169005
0.00214871
0.00264905
0.00318366
0.00374263
0.00431326
0.0048802
0.00542581
0.00593095
0.00637626
0.00674395
0.00701981
0.00719514
0.00726797
0.00724479
0.00714324
0.00696863
0.00664972
0.000193763
-0.000131763
-0.000277154
-0.00034667
-0.000359186
-0.00031486
-0.000216288
-6.51498e-05
0.000138577
0.000395664
0.000706907
0.00107257
0.00149187
0.00196247
0.00247995
0.00303739
0.00362495
0.00422947
0.00483449
0.00542052
0.00596587
0.00644811
0.00684614
0.00714281
0.00732731
0.00739681
0.00735872
0.00723369
0.00702946
0.00666867
-3.0064e-05
-0.000385927
-0.000546389
-0.000625841
-0.00064557
-0.000606427
-0.000511639
-0.000363096
-0.000160542
9.73597e-05
0.000412207
0.000785228
0.00121668
0.00170524
0.00224742
0.00283689
0.00346397
0.00411508
0.00477236
0.00541402
0.00601505
0.00654887
0.00698993
0.00731692
0.00751611
0.00758368
0.00752855
0.00737592
0.00713786
0.00673258
-0.00035352
-0.000738985
-0.000914482
-0.00100406
-0.00103124
-0.00099744
-0.000906418
-0.000760188
-0.000558166
-0.000298334
2.18542e-05
0.000404777
0.000851965
0.00136341
0.00193681
0.00256677
0.00324402
0.00395473
0.00467953
0.0053939
0.00606867
0.0066719
0.00717195
0.00754175
0.00776332
0.00783127
0.00775656
0.00757058
0.00729171
0.00683427
-0.000781815
-0.00119815
-0.00138931
-0.00148947
-0.00152449
-0.00149639
-0.00140949
-0.0012659
-0.00106465
-0.000802929
-0.000477071
-8.33179e-05
0.000381439
0.000918877
0.00152837
0.00220594
0.00294316
0.00372644
0.00453502
0.00534138
0.00611141
0.00680627
0.00738616
0.00781587
0.00807099
0.00814329
0.00804595
0.0078185
0.00748806
0.00696478
-0.00132094
-0.00177101
-0.00197911
-0.00209067
-0.00213424
-0.00211263
-0.00203083
-0.00189113
-0.00169213
-0.00143016
-0.00110024
-0.00069699
-0.00021535
0.000348531
0.000996314
0.00172615
0.00253112
0.0033992
0.00430829
0.0052281
0.00611892
0.0069334
0.00762091
0.00813462
0.00844021
0.00852408
0.00840112
0.00812118
0.00772334
0.00711259
-0.00197809
-0.00246605
-0.00269293
-0.00281708
-0.00287031
-0.00285651
-0.00278158
-0.00264814
-0.00245444
-0.00219585
-0.00186597
-0.00145753
-0.000963124
-0.000376175
0.000308037
0.0010907
0.00196724
0.0029301
0.00395545
0.0050114
0.00605263
0.00702176
0.0078541
0.00848642
0.00886897
0.00897798
0.00882802
0.00848148
0.00799365
0.00726223
-0.00276187
-0.00329306
-0.00354102
-0.00367924
-0.00374358
-0.00373939
-0.00367392
-0.00355036
-0.00336673
-0.00311749
-0.00279474
-0.00238912
-0.00189056
-0.00128916
-0.00057627
0.00025406
0.00120315
0.00226167
0.00341443
0.00462797
0.00585199
0.00701837
0.00804502
0.00884602
0.00934767
0.00950751
0.00933453
0.00890499
0.00829567
0.00739288
-0.00368253
-0.00426346
-0.00453518
-0.00468908
-0.00476604
-0.00477357
-0.0047208
-0.00461189
-0.00444486
-0.00421343
-0.00390828
-0.00351792
-0.0030294
-0.00242905
-0.00170353
-0.000841117
0.000165834
0.00131551
0.00259859
0.00398491
0.00542294
0.00683525
0.00812012
0.00916165
0.00984984
0.0101087
0.00992995
0.00940204
0.00862881
0.0074778
-0.00475213
-0.0053908
-0.0056892
-0.00586015
-0.00595095
-0.00597214
-0.00593552
-0.00584679
-0.0057044
-0.00550165
-0.00522806
-0.00487022
-0.00441241
-0.00383709
-0.00312565
-0.00225956
-0.00122277
-6.6405e-06
0.00139129
0.00294951
0.00462233
0.00632892
0.00794951
0.00933183
0.0103131
0.0107593
0.0106214
0.00998994
0.00899941
0.00748565
-0.00598506
-0.00669147
-0.00701946
-0.00720803
-0.00731282
-0.00734866
-0.00733109
-0.00726816
-0.00715932
-0.00699796
-0.006773
-0.00646972
-0.00607019
-0.00555349
-0.00489598
-0.00407191
-0.0030549
-0.00182146
-0.000357467
0.00133945
0.00324002
0.00527321
0.00731154
0.00916603
0.0106029
0.0113929
0.0114016
0.0106932
0.00942711
0.0073849
-0.00739888
-0.00818581
-0.00854592
-0.00875094
-0.00886759
-0.00891686
-0.00891948
-0.00888681
-0.0088201
-0.00871356
-0.00855635
-0.00833346
-0.00802605
-0.00761121
-0.00706174
-0.0063458
-0.00542702
-0.0042661
-0.00282778
-0.00107889
0.00098657
0.00333229
0.0058496
0.00832842
0.0104526
0.011848
0.0122183
0.0115361
0.00995316
0.00715317
-0.00901581
-0.00990007
-0.0102936
-0.0105105
-0.0106328
-0.0106902
-0.0107105
-0.0107097
-0.0106915
-0.010652
-0.0105815
-0.0104664
-0.0102888
-0.0100264
-0.00965161
-0.00912984
-0.00841818
-0.00746361
-0.00620324
-0.00456914
-0.00249457
5.67221e-05
0.00304437
0.00628319
0.00938816
0.0117909
0.0129175
0.01252
0.0106493
0.00679512
-0.0108654
-0.0118695
-0.012295
-0.0125133
-0.0126278
-0.0126811
-0.0127105
-0.0127376
-0.0127698
-0.0128054
-0.0128373
-0.0128548
-0.0128439
-0.0127864
-0.0126592
-0.0124312
-0.01206
-0.0114863
-0.010626
-0.0093629
-0.0075576
-0.00505083
-0.00174034
0.00230279
0.00669073
0.0106434
0.0131702
0.0135846
0.0116293
0.00638133
-0.0129893
-0.0141434
-0.0145938
-0.0147919
-0.0148738
-0.0149
-0.0149202
-0.014963
-0.0150393
-0.0151502
-0.0152922
-0.0154592
-0.0156436
-0.015836
-0.0160238
-0.0161879
-0.0162973
-0.0162989
-0.0161005
-0.0155438
-0.0143842
-0.0123395
-0.0090516
-0.00434797
0.00151757
0.00761971
0.0124473
0.0145827
0.0130735
0.0061372
-0.0154493
-0.0167939
-0.0172496
-0.0173877
-0.0173933
-0.017353
-0.017332
-0.0173658
-0.0174683
-0.017643
-0.0178897
-0.0182083
-0.0185999
-0.0190675
-0.0196153
-0.0202453
-0.0209501
-0.0216985
-0.0224077
-0.0228881
-0.0227685
-0.0217197
-0.0189653
-0.0139732
-0.00667815
0.00204014
0.0101913
0.0153536
0.0152936
0.00662816
-0.0183439
-0.0199296
-0.0203462
-0.0203512
-0.0202074
-0.0200373
-0.0199238
-0.0199077
-0.0200033
-0.0202146
-0.0205436
-0.0209955
-0.0215813
-0.0223187
-0.0232328
-0.0243533
-0.025706
-0.0272941
-0.0290606
-0.0308326
-0.0322411
-0.0324585
-0.0307074
-0.0259227
-0.0175155
-0.0060378
0.00630378
0.0160108
0.018887
0.00907878
-0.0218398
-0.0237187
-0.024
-0.0237415
-0.0233286
-0.0229316
-0.0226492
-0.0225223
-0.0225604
-0.0227637
-0.0231337
-0.023679
-0.0244189
-0.0253858
-0.0266258
-0.028197
-0.0301603
-0.0325559
-0.0353561
-0.0383896
-0.0412219
-0.0429811
-0.042501
-0.0382972
-0.0291912
-0.0151596
0.00181798
0.0174494
0.0250484
0.015794
-0.0262414
-0.0284271
-0.0283689
-0.027616
-0.0267441
-0.0259767
-0.0254181
-0.0250975
-0.0250104
-0.0251464
-0.0255014
-0.0260841
-0.0269187
-0.0280483
-0.0295361
-0.0314628
-0.033916
-0.0369622
-0.0405906
-0.0446232
-0.048586
-0.0515454
-0.0520658
-0.0483418
-0.0386561
-0.0223173
-0.00065939
0.0218777
0.0360726
0.0305159
-0.0321425
-0.0344747
-0.033649
-0.0320026
-0.0303791
-0.0290391
-0.028063
-0.0274459
-0.0271545
-0.0271579
-0.02744
-0.0280033
-0.0288721
-0.030094
-0.0317409
-0.0339043
-0.0366817
-0.040142
-0.0442605
-0.0488234
-0.0533147
-0.056788
-0.0574868
-0.0534872
-0.0426705
-0.0237812
0.0026868
0.0329557
0.0558105
0.0583821
-0.0407894
-0.0425094
-0.0400199
-0.0368186
-0.0340175
-0.0318372
-0.0302734
-0.0292497
-0.0286811
-0.0285016
-0.0286736
-0.0291861
-0.0300557
-0.0313267
-0.0330689
-0.0353693
-0.0383139
-0.0419477
-0.0462063
-0.0508106
-0.0551343
-0.0580713
-0.0578377
-0.0522934
-0.0391152
-0.0166052
0.0155827
0.0549879
0.0892777
0.105335
-0.0551639
-0.0535125
-0.047503
-0.0417108
-0.0371546
-0.0338176
-0.0314981
-0.0299906
-0.0291237
-0.0287695
-0.0288555
-0.0293466
-0.0302431
-0.0315768
-0.0334039
-0.0357917
-0.0387935
-0.042403
-0.0464806
-0.0506471
-0.0541553
-0.0557683
-0.0534934
-0.0450528
-0.0278725
0.000181887
0.0399584
0.0908291
0.140503
0.178974
-0.0829093
-0.0684978
-0.0558768
-0.045962
-0.0389138
-0.0341389
-0.0310005
-0.0290638
-0.0280041
-0.0276032
-0.0277295
-0.0283137
-0.0293341
-0.0308044
-0.0327604
-0.0352403
-0.0382519
-0.0417207
-0.0454109
-0.0488188
-0.0510556
-0.0507159
-0.0458286
-0.0336456
-0.0112346
0.0242405
0.074611
0.14055
0.211672
0.294263
-0.135263
-0.083659
-0.0627568
-0.0470252
-0.0369937
-0.0310004
-0.0275156
-0.0256168
-0.0247673
-0.0246513
-0.0250858
-0.0259753
-0.027283
-0.029011
-0.0311795
-0.0338016
-0.0368461
-0.0401824
-0.0435006
-0.0461996
-0.0472599
-0.0451302
-0.0378291
-0.022357
0.00483321
0.0479052
0.110891
0.198961
0.308101
0.478927
-0.307326
-0.0930653
-0.0450021
-0.0279939
-0.0194476
-0.0157471
-0.0148083
-0.0151709
-0.0161437
-0.0174661
-0.0190418
-0.0208426
-0.0228802
-0.0251903
-0.0278129
-0.0307677
-0.034019
-0.0374232
-0.040657
-0.0431264
-0.0438719
-0.0414431
-0.033578
-0.0173323
0.0109188
0.056662
0.127472
0.241446
0.417393
0.762088
)
;

boundaryField
{
    movingWall
    {
        type            zeroGradient;
    }
    fixedWalls
    {
        type            zeroGradient;
    }
    frontAndBack
    {
        type            empty;
    }
}


// ************************************************************************* //
