/*--------------------------------*- C++ -*----------------------------------*\
  =========                 |
  \\      /  F ield         | OpenFOAM: The Open Source CFD Toolbox
   \\    /   O peration     | Website:  https://openfoam.org
    \\  /    A nd           | Version:  7
     \\/     M anipulation  |
\*---------------------------------------------------------------------------*/
FoamFile
{
    version     2.0;
    format      ascii;
    class       surfaceScalarField;
    location    "3";
    object      phi;
}
// * * * * * * * * * * * * * * * * * * * * * * * * * * * * * * * * * * * * * //

dimensions      [0 3 -1 0 0 0 0];

internalField   nonuniform List<scalar> 
1740
(
2.69319e-07
-2.6932e-07
-8.06532e-07
1.07585e-06
-3.2272e-06
2.42067e-06
-6.60922e-06
3.38202e-06
-1.05591e-05
3.94987e-06
-1.47608e-05
4.20175e-06
-1.89895e-05
4.22866e-06
-2.30936e-05
4.10413e-06
-2.697e-05
3.87641e-06
-3.05422e-05
3.57218e-06
-3.37452e-05
3.20302e-06
-3.65168e-05
2.77154e-06
-3.87929e-05
2.27614e-06
-4.05073e-05
1.71436e-06
-4.15925e-05
1.08521e-06
-4.19833e-05
3.9085e-07
-4.16213e-05
-3.62068e-07
-4.04602e-05
-1.16112e-06
-3.84736e-05
-1.98657e-06
-3.56633e-05
-2.81031e-06
-3.20687e-05
-3.59453e-06
-2.7778e-05
-4.29074e-06
-2.29386e-05
-4.83935e-06
-1.77685e-05
-5.17013e-06
-1.25642e-05
-5.20431e-06
-7.70409e-06
-4.86011e-06
-3.63546e-06
-4.06864e-06
-8.26918e-07
-2.80854e-06
3.49754e-07
-1.17668e-06
3.49748e-07
-1.0738e-06
8.04475e-07
-5.04164e-06
5.0437e-06
-1.16423e-05
9.0213e-06
-2.0198e-05
1.19378e-05
-2.99814e-05
1.37333e-05
-4.03522e-05
1.45726e-05
-5.08054e-05
1.46819e-05
-6.0965e-05
1.42637e-05
-7.0553e-05
1.34645e-05
-7.93554e-05
1.23746e-05
-8.71933e-05
1.10409e-05
-9.39042e-05
9.48239e-06
-9.93315e-05
7.70345e-06
-0.000103322
5.70454e-06
-0.000105726
3.4896e-06
-0.000106407
1.07138e-06
-0.000105247
-1.52165e-06
-0.000102162
-4.24609e-06
-9.7116e-05
-7.03258e-06
-9.01396e-05
-9.78668e-06
-8.13507e-05
-1.23834e-05
-7.09763e-05
-1.46652e-05
-5.93738e-05
-1.64418e-05
-4.70484e-05
-1.74955e-05
-3.46597e-05
-1.7593e-05
-2.30075e-05
-1.65123e-05
-1.29812e-05
-1.40949e-05
-5.45359e-06
-1.03362e-05
-1.10263e-06
-5.52764e-06
-7.52885e-07
-2.50553e-06
3.31001e-06
-9.31042e-06
1.18486e-05
-1.9579e-05
1.92899e-05
-3.23628e-05
2.47215e-05
-4.67147e-05
2.80852e-05
-6.18018e-05
2.96596e-05
-7.69494e-05
2.98294e-05
-9.16364e-05
2.89507e-05
-0.000105464
2.72923e-05
-0.000118119
2.5029e-05
-0.000129337
2.2259e-05
-0.000138883
1.90288e-05
-0.000146537
1.53571e-05
-0.000152086
1.12539e-05
-0.000155331
6.7348e-06
-0.000156092
1.83233e-06
-0.000154218
-3.396e-06
-0.000149607
-8.85696e-06
-0.000142226
-1.44139e-05
-0.000132133
-1.98797e-05
-0.000119506
-2.50101e-05
-0.000104672
-2.94993e-05
-8.813e-05
-3.29837e-05
-7.05718e-05
-3.50537e-05
-5.2882e-05
-3.52829e-05
-3.61119e-05
-3.32824e-05
-2.14133e-05
-2.87936e-05
-9.92015e-06
-2.18293e-05
-2.57586e-06
-1.28719e-05
-3.32874e-06
-3.67451e-06
6.98452e-06
-1.29113e-05
2.10854e-05
-2.63028e-05
3.26813e-05
-4.25754e-05
4.09942e-05
-6.05849e-05
4.60947e-05
-7.93594e-05
4.84342e-05
-9.81162e-05
4.85862e-05
-0.000116244
4.70789e-05
-0.00013327
4.43177e-05
-0.000148814
4.05727e-05
-0.000162556
3.60018e-05
-0.000174214
3.06861e-05
-0.00018352
2.46636e-05
-0.000190224
1.7958e-05
-0.00019409
1.06005e-05
-0.000194905
2.64759e-06
-0.000192495
-5.80681e-06
-0.00018674
-1.46114e-05
-0.000177605
-2.35489e-05
-0.000165163
-3.23219e-05
-0.00014963
-4.0543e-05
-0.000131399
-4.77305e-05
-0.000111067
-5.33151e-05
-8.94575e-05
-5.66637e-05
-6.76122e-05
-5.71282e-05
-4.67647e-05
-5.41298e-05
-2.82685e-05
-4.72898e-05
-1.34914e-05
-3.66064e-05
-3.69405e-06
-2.26693e-05
-7.02279e-06
-4.56596e-06
1.15505e-05
-1.5788e-05
3.23074e-05
-3.17693e-05
4.86626e-05
-5.0922e-05
6.01469e-05
-7.19105e-05
6.70831e-05
-9.36445e-05
7.01683e-05
-0.000115263
7.02047e-05
-0.000136099
6.79145e-05
-0.000155632
6.38509e-05
-0.000173446
5.83864e-05
-0.000189186
5.17426e-05
-0.000202537
4.40371e-05
-0.000213202
3.53284e-05
-0.000220898
2.5654e-05
-0.000225358
1.50603e-05
-0.000226338
3.62758e-06
-0.000223633
-8.51217e-06
-0.000217097
-2.11468e-05
-0.000206676
-3.39699e-05
-0.000192438
-4.65603e-05
-0.000174613
-5.83674e-05
-0.000153638
-6.87063e-05
-0.000130183
-7.67699e-05
-0.00010518
-8.16668e-05
-7.98138e-05
-8.2494e-05
-5.54905e-05
-7.84531e-05
-3.37643e-05
-6.9016e-05
-1.62416e-05
-5.41291e-05
-4.48502e-06
-3.44259e-05
-1.15078e-05
-5.24275e-06
1.67932e-05
-1.80756e-05
4.51403e-05
-3.62134e-05
6.68004e-05
-5.77868e-05
8.17203e-05
-8.12792e-05
9.05755e-05
-0.000105492
9.43806e-05
-0.000129498
9.42116e-05
-0.000152594
9.10097e-05
-0.000174232
8.54893e-05
-0.000193976
7.81304e-05
-0.000211453
6.92198e-05
-0.000226326
5.89102e-05
-0.000238275
4.72774e-05
-0.000246989
3.43681e-05
-0.000252167
2.02385e-05
-0.000253527
4.98716e-06
-0.000250818
-1.12208e-05
-0.000243851
-2.81141e-05
-0.000232527
-4.52936e-05
-0.000216885
-6.22028e-05
-0.000197146
-7.81066e-05
-0.000173767
-9.2085e-05
-0.000147485
-0.000103052
-0.000119343
-0.000109809
-9.06837e-05
-0.000111153
-6.31128e-05
-0.000106024
-3.84162e-05
-9.37126e-05
-1.84548e-05
-7.40905e-05
-5.06228e-06
-4.78184e-05
-1.65701e-05
-5.78462e-06
2.25779e-05
-1.99739e-05
5.93296e-05
-3.99742e-05
8.68008e-05
-6.36699e-05
0.000105416
-8.93761e-05
0.000116282
-0.000115791
0.000120795
-0.000141932
0.000120352
-0.000167064
0.000116142
-0.000190628
0.000109054
-0.000212179
9.96813e-05
-0.000231336
8.83762e-05
-0.000247747
7.5322e-05
-0.000261075
6.06051e-05
-0.000270979
4.42721e-05
-0.000277118
2.63778e-05
-0.000279158
7.02727e-06
-0.000276787
-1.35927e-05
-0.000269741
-3.51598e-05
-0.000257852
-5.71828e-05
-0.000241094
-7.89607e-05
-0.000219651
-9.95495e-05
-0.000193984
-0.000117752
-0.000164888
-0.000132147
-0.000133535
-0.000141163
-0.000101464
-0.000143224
-7.05336e-05
-0.000136954
-4.28154e-05
-0.000121431
-2.04564e-05
-9.64495e-05
-5.54335e-06
-6.27315e-05
-2.21134e-05
-6.2627e-06
2.88406e-05
-2.16785e-05
7.47454e-05
-4.33922e-05
0.000108514
-6.90661e-05
0.00013109
-9.68572e-05
0.000144073
-0.000125365
0.000149303
-0.000153555
0.000148542
-0.000180671
0.000143258
-0.000206148
0.000134531
-0.000229541
0.000123074
-0.000250469
0.000109304
-0.000268575
9.34278e-05
-0.000283502
7.55325e-05
-0.000294881
5.5651e-05
-0.000302323
3.38198e-05
-0.000305427
1.01311e-05
-0.000303794
-1.52253e-05
-0.00029706
-4.18937e-05
-0.000284945
-6.92978e-05
-0.000267321
-9.65854e-05
-0.000244293
-0.000122577
-0.000216299
-0.000145747
-0.000184188
-0.000164258
-0.000149281
-0.00017607
-0.000113369
-0.000179136
-7.8641e-05
-0.000171683
-4.75355e-05
-0.000152536
-2.25466e-05
-0.000121438
-6.02335e-06
-7.92547e-05
-2.81368e-05
-6.73165e-06
3.55722e-05
-2.33519e-05
9.13656e-05
-4.6758e-05
0.000131921
-7.43992e-05
0.000158731
-0.000104278
0.000173952
-0.000134899
0.000179924
-0.000165178
0.000178822
-0.000194344
0.000172424
-0.000221834
0.000162021
-0.000247212
0.000148453
-0.000270106
0.000132197
-0.000290158
0.00011348
-0.000306999
9.23743e-05
-0.00032023
6.88817e-05
-0.000329407
4.29973e-05
-0.000334049
1.4773e-05
-0.000333648
-1.5627e-05
-0.000327698
-4.78436e-05
-0.000315763
-8.12322e-05
-0.000297558
-0.000114791
-0.000273055
-0.000147079
-0.000242623
-0.000176179
-0.000207145
-0.000199736
-0.000168111
-0.000215103
-0.00012763
-0.000219617
-8.83266e-05
-0.000210986
-5.31336e-05
-0.000187729
-2.49958e-05
-0.000149576
-6.57558e-06
-9.76749e-05
-3.47124e-05
-7.23058e-06
4.28028e-05
-2.51174e-05
0.000109252
-5.0298e-05
0.000157101
-8.0001e-05
0.000188434
-0.000112071
0.000206022
-0.000144916
0.000212769
-0.000177409
0.000211315
-0.000208767
0.000203782
-0.00023844
0.000191694
-0.000266012
0.000176025
-0.000291128
0.000157313
-0.000313442
0.000135794
-0.000332581
0.000111513
-0.000348118
8.44191e-05
-0.000359556
5.44354e-05
-0.00036632
2.15372e-05
-0.00036777
-1.4177e-05
-0.00036322
-5.23937e-05
-0.000352021
-9.24316e-05
-0.000333654
-0.000133158
-0.00030788
-0.000172853
-0.000274921
-0.000209138
-0.000235646
-0.00023901
-0.000191718
-0.000259032
-0.000145632
-0.000265703
-0.000100597
-0.000256021
-6.02238e-05
-0.000228102
-2.80849e-05
-0.000181715
-7.26565e-06
-0.000118494
-4.1978e-05
-7.78698e-06
5.05898e-05
-2.70658e-05
0.000128531
-5.4181e-05
0.000184217
-8.61187e-05
0.000220372
-0.000120553
0.000240456
-0.000155794
0.000248009
-0.000190672
0.000246193
-0.000224405
0.000237515
-0.000256464
0.000223753
-0.000286465
0.000206026
-0.000314089
0.000184936
-0.000339015
0.00016072
-0.000360882
0.00013338
-0.000379249
0.000102786
-0.00039357
6.87561e-05
-0.000403174
3.11415e-05
-0.000407275
-1.00759e-05
-0.000404959
-5.47098e-05
-0.0003953
-0.000102091
-0.000377453
-0.000151006
-0.000350845
-0.000199461
-0.000315428
-0.000244555
-0.000271951
-0.000282487
-0.00022221
-0.000308773
-0.000169157
-0.000318757
-0.000116767
-0.00030841
-6.96113e-05
-0.000275258
-3.2176e-05
-0.00021915
-8.17353e-06
-0.000142497
-5.01516e-05
-8.42105e-06
5.90108e-05
-2.92657e-05
0.000149376
-5.85349e-05
0.000213486
-9.29362e-05
0.000254773
-0.000129955
0.000277475
-0.000167794
0.000285849
-0.000205249
0.000283647
-0.000241544
0.00027381
-0.00027619
0.000258398
-0.000308853
0.000238689
-0.000339267
0.000215351
-0.000367163
0.000188616
-0.000392214
0.000158431
-0.000413988
0.000124561
-0.000431913
8.66806e-05
-0.000445229
4.4458e-05
-0.00045301
-2.29541e-06
-0.000454063
-5.36567e-05
-0.000447125
-0.000109029
-0.000430901
-0.00016723
-0.00040432
-0.000226042
-0.000366861
-0.000282015
-0.000318962
-0.000330386
-0.00026243
-0.000365304
-0.000200699
-0.000380489
-0.00013874
-0.000370368
-8.24887e-05
-0.00033151
-3.78164e-05
-0.000263823
-9.42393e-06
-0.000170889
-5.95755e-05
-9.15029e-06
6.81611e-05
-3.17763e-05
0.000172002
-6.34668e-05
0.000245176
-0.000100602
0.000291908
-0.000140449
0.000317322
-0.000181099
0.000326499
-0.000221312
0.00032386
-0.000260337
0.000312835
-0.000297739
0.0002958
-0.000333258
0.000274209
-0.000366711
0.000248803
-0.000397906
0.000219811
-0.000426589
0.000187114
-0.00045238
0.000150352
-0.000474716
0.000109016
-0.000492792
6.25348e-05
-0.000505505
1.04171e-05
-0.000511458
-4.77034e-05
-0.000508929
-0.000111558
-0.000496045
-0.000180114
-0.000471014
-0.000251073
-0.000432547
-0.000320481
-0.000380443
-0.00038249
-0.000316252
-0.000429495
-0.000243814
-0.000452928
-0.000169335
-0.000444847
-0.000100688
-0.000400157
-4.58769e-05
-0.000318634
-1.12271e-05
-0.000205539
-7.08026e-05
-9.99396e-06
7.81551e-05
-3.46601e-05
0.000196668
-6.90855e-05
0.000279601
-0.000109257
0.00033208
-0.00015219
0.000360255
-0.000195852
0.00037016
-0.000238974
0.000366983
-0.000280846
0.000354707
-0.00032111
0.000336063
-0.000359607
0.000312706
-0.000396266
0.000285462
-0.000431019
0.000254564
-0.000463727
0.000219822
-0.000494119
0.000180743
-0.000521706
0.000136603
-0.000545699
8.65278e-05
-0.000564897
2.9615e-05
-0.000577677
-3.49237e-05
-0.00058184
-0.000107395
-0.000574795
-0.000187158
-0.000553762
-0.000272106
-0.000516276
-0.000357968
-0.000460987
-0.000437779
-0.000388694
-0.000501788
-0.000303361
-0.000538261
-0.000212598
-0.00053561
-0.000126954
-0.000485801
-5.77155e-05
-0.000387872
-1.39293e-05
-0.000249325
-8.47319e-05
-1.0978e-05
8.91331e-05
-3.79973e-05
0.000223687
-7.55238e-05
0.000317128
-0.000119067
0.000375623
-0.000165346
0.000406535
-0.000212192
0.000417005
-0.000258319
0.000413111
-0.000303075
0.000399463
-0.000346206
0.000379194
-0.000387685
0.000354185
-0.00042759
0.000325368
-0.000466019
0.000292993
-0.000503012
0.000256815
-0.000538476
0.000216207
-0.000572089
0.000170216
-0.000603175
0.000117614
-0.000630551
5.69906e-05
-0.000652426
-1.30488e-05
-0.000666141
-9.36795e-05
-0.000668287
-0.000185012
-0.000654812
-0.000285581
-0.000621578
-0.000391202
-0.000565382
-0.000493975
-0.00048548
-0.00058169
-0.000385335
-0.000638406
-0.000273876
-0.000647068
-0.000165135
-0.000594542
-7.53319e-05
-0.000477676
-1.80652e-05
-0.000306592
-0.000102797
-1.21411e-05
0.000101274
-4.19022e-05
0.000253448
-8.29654e-05
0.000358191
-0.000130251
0.000422909
-0.00018013
0.000456413
-0.000230285
0.00046716
-0.000279429
0.000462255
-0.000326991
0.000447026
-0.000372851
0.000425054
-0.000417144
0.000398478
-0.000460135
0.000368359
-0.000502133
0.000334991
-0.000543419
0.000298101
-0.000584164
0.000256953
-0.000624324
0.000210376
-0.000663475
0.000156765
-0.000700604
9.41201e-05
-0.000733872
2.02192e-05
-0.000760314
-6.72382e-05
-0.000775645
-0.000169681
-0.000774328
-0.000286898
-0.000750049
-0.00041548
-0.000696923
-0.000547101
-0.000611563
-0.00066705
-0.000495816
-0.000754153
-0.000359309
-0.000783575
-0.000220107
-0.000733744
-0.000101451
-0.000596331
-2.44056e-05
-0.000383637
-0.000127203
-1.35429e-05
0.000114817
-4.65451e-05
0.000286451
-9.16748e-05
0.000403321
-0.000143117
0.000474351
-0.00019683
0.000510127
-0.000250348
0.000520677
-0.0003024
0.000514308
-0.000352532
0.000497157
-0.000400784
0.000473305
-0.000447482
0.000445176
-0.000493109
0.000413986
-0.000538223
0.000380105
-0.000583399
0.000343277
-0.000629154
0.000302708
-0.000675831
0.000257053
-0.000723418
0.000204351
-0.00077127
0.000141972
-0.000817701
6.66503e-05
-0.000859669
-2.52697e-05
-0.000892135
-0.000137216
-0.000908037
-0.000270995
-0.000898553
-0.000424964
-0.000854355
-0.0005913
-0.000768156
-0.000753249
-0.000638539
-0.00088377
-0.000474291
-0.000947823
-0.000297158
-0.000910877
-0.000139464
-0.000754026
-3.40026e-05
-0.000489098
-0.000161205
-1.52769e-05
0.000130094
-5.21828e-05
0.000323357
-0.000102038
0.000453176
-0.000158097
0.00053041
-0.000215842
0.000567871
-0.00027266
0.000577495
-0.000327341
0.000568989
-0.000379582
0.000549398
-0.000429617
0.000523341
-0.000477984
0.000493543
-0.000525395
0.000461397
-0.000572677
0.000427386
-0.000620725
0.000391326
-0.000670453
0.000352436
-0.000722678
0.000309279
-0.000777931
0.000259604
-0.000836125
0.000200166
-0.000896064
0.000126589
-0.000954819
3.34848e-05
-0.00100704
-8.4998e-05
-0.0010444
-0.000233633
-0.00105567
-0.000413693
-0.00102775
-0.000619224
-0.000948391
-0.000832604
-0.000810932
-0.00102123
-0.000620585
-0.00113817
-0.000400576
-0.00113089
-0.000193155
-0.000961447
-4.82636e-05
-0.000633989
-0.000209469
-1.7492e-05
0.000147586
-5.92047e-05
0.000365069
-0.000114615
0.000508586
-0.000175792
0.000591587
-0.000237675
0.000629754
-0.000297547
0.000637368
-0.000354319
0.00062576
-0.000407893
0.000602973
-0.000458729
0.000574177
-0.000507584
0.000542397
-0.000555393
0.000509206
-0.000603234
0.000475227
-0.000652305
0.000440397
-0.000703904
0.000404035
-0.00075934
0.000364715
-0.000819748
0.000320013
-0.000885743
0.00026616
-0.000956856
0.000197703
-0.00103074
0.000107372
-0.00110222
-1.35169e-05
-0.00116254
-0.000173317
-0.00119883
-0.000377401
-0.00119475
-0.000623307
-0.00113283
-0.000894525
-0.00099934
-0.00115472
-0.000792165
-0.00134534
-0.000531143
-0.00139191
-0.000266041
-0.00122655
-6.90845e-05
-0.000830946
-0.000278553
-2.04305e-05
0.000168016
-6.82058e-05
0.000412845
-0.000130211
0.000570591
-0.000197002
0.000658379
-0.000262946
0.000695697
-0.000325309
0.000699731
-0.000383229
0.000683681
-0.000436896
0.00065664
-0.000487026
0.000624306
-0.000534592
0.000589963
-0.000580723
0.000555337
-0.000626687
0.000521191
-0.000673909
0.00048762
-0.00072398
0.000454106
-0.000778608
0.000419342
-0.000839473
0.000380878
-0.000907905
0.000334593
-0.00098433
0.000274128
-0.00106744
0.000190481
-0.00115304
7.2079e-05
-0.00123289
-9.34643e-05
-0.00129451
-0.000315783
-0.00131986
-0.000597953
-0.00128731
-0.000927071
-0.00117538
-0.00126665
-0.000970734
-0.00154999
-0.000682388
-0.00168025
-0.000359886
-0.00154905
-9.8955e-05
-0.00109188
-0.000377508
-2.44997e-05
0.000192516
-8.01066e-05
0.000468452
-0.000149973
0.000640458
-0.000222752
0.000731158
-0.000292285
0.00076523
-0.000356017
0.000763462
-0.000413493
0.000741157
-0.000465299
0.000708446
-0.000512457
0.000671463
-0.000556151
0.000633658
-0.000597656
0.000596842
-0.000638344
0.000561878
-0.000679735
0.000529011
-0.000723542
0.000497912
-0.00077167
0.00046747
-0.000826136
0.000435344
-0.00088884
0.000397296
-0.000961113
0.000346402
-0.001043
0.000272369
-0.0011324
0.000161483
-0.00122227
-3.60145e-06
-0.00130378
-0.000234275
-0.00135941
-0.000542319
-0.00136625
-0.000920232
-0.00129638
-0.00133652
-0.00112309
-0.00172328
-0.000836327
-0.00196702
-0.000471795
-0.00191358
-0.000140689
-0.00142298
-0.000518197
-3.04156e-05
0.000222932
-9.63555e-05
0.000534391
-0.000175511
0.000719613
-0.000254238
0.000809886
-0.000326096
0.000837088
-0.000389079
0.000826445
-0.000443427
0.000795505
-0.000490293
0.000755312
-0.000531083
0.000712253
-0.00056721
0.000669784
-0.000600053
0.000629685
-0.000631003
0.000592829
-0.000661533
0.000559542
-0.00069327
0.000529649
-0.000728043
0.000502244
-0.000767895
0.000475195
-0.000814988
0.000444389
-0.000871369
0.000402783
-0.000938511
0.000339511
-0.00101649
0.000239464
-0.00110388
8.37821e-05
-0.00119285
-0.000145298
-0.00127271
-0.000462465
-0.00132286
-0.00087008
-0.00131278
-0.00134659
-0.0012037
-0.00183237
-0.000961082
-0.00220963
-0.000590153
-0.00228451
-0.0001962
-0.00181694
-0.000714397
-3.94947e-05
0.000262426
-0.000119269
0.000614166
-0.000209011
0.000809356
-0.000292597
0.000893472
-0.00036395
0.000908441
-0.00042228
0.000884774
-0.000468975
0.000842201
-0.000506018
0.000792354
-0.000535337
0.000741572
-0.000558636
0.000693084
-0.000577414
0.000648463
-0.000593037
0.000608452
-0.000606831
0.000573335
-0.000620167
0.000542984
-0.000634559
0.000516636
-0.000651758
0.000492395
-0.000673839
0.00046647
-0.000703233
0.000432178
-0.000742657
0.000378935
-0.000794841
0.000291648
-0.000862165
0.000151106
-0.000943596
-6.38672e-05
-0.00103515
-0.000370912
-0.00112344
-0.000781789
-0.00118151
-0.00128853
-0.00116441
-0.00184947
-0.00101403
-0.00236002
-0.000691615
-0.00260692
-0.000263891
-0.00224466
-0.000978288
-5.42464e-05
0.000316673
-0.000152554
0.000712473
-0.000253183
0.000909984
-0.000338119
0.000978408
-0.000403104
0.000973426
-0.000449698
0.000931369
-0.00048113
0.000873632
-0.0005006
0.000811824
-0.00051079
0.000751763
-0.000513836
0.000696129
-0.000511434
0.000646061
-0.000504959
0.000601977
-0.000495568
0.000563945
-0.000484309
0.000531725
-0.000472245
0.000504571
-0.00046063
0.00048078
-0.00045115
0.000456989
-0.000446221
0.000427249
-0.000449302
0.000382016
-0.000465115
0.000307461
-0.000499663
0.000185654
-0.000558672
-4.85821e-06
-0.000645963
-0.000283622
-0.000758546
-0.000669206
-0.000879664
-0.00116741
-0.000968103
-0.00176103
-0.000951069
-0.00237705
-0.000742029
-0.00281596
-0.000335028
-0.00265166
-0.00131332
-7.9525e-05
0.000396198
-0.00020188
0.000834829
-0.000310326
0.00101843
-0.000387767
0.00105585
-0.000434707
0.00102037
-0.00045691
0.000953572
-0.000460443
0.000877165
-0.000450269
0.00080165
-0.000430126
0.000731621
-0.000402753
0.000668756
-0.00037014
0.000613447
-0.000333717
0.000565555
-0.000294498
0.000524726
-0.000253205
0.000490432
-0.000210436
0.000461803
-0.000166889
0.000437233
-0.000123705
0.000413805
-8.29719e-05
0.000386515
-4.83792e-05
0.000347423
-2.58209e-05
0.000284903
-2.35051e-05
0.000183339
-5.20894e-05
2.37261e-05
-0.000121606
-0.000214105
-0.000240899
-0.000549913
-0.000408285
-0.00100002
-0.000597402
-0.00157191
-0.000736766
-0.00223769
-0.000701766
-0.00285096
-0.000390849
-0.00296258
-0.00170416
-0.000124567
0.000520765
-0.000274355
0.000984617
-0.000377714
0.00112179
-0.000427171
0.00110531
-0.000433444
0.00102664
-0.000409278
0.000929405
-0.000364833
0.000832721
-0.000307347
0.000744164
-0.000241768
0.000666042
-0.000171379
0.000598367
-9.83445e-05
0.000540413
-2.40162e-05
0.000491227
5.08452e-05
0.000449864
0.000125887
0.00041539
0.000200996
0.000386695
0.000276022
0.000362207
0.000350405
0.000339423
0.0004226
0.00031432
0.00048934
0.000280682
0.00054475
0.000229494
0.000579456
0.000148633
0.000579754
2.34283e-05
0.000530763
-0.000165115
0.00041532
-0.000434469
0.000220783
-0.000805487
-4.85954e-05
-0.00130253
-0.000344618
-0.00194167
-0.000530286
-0.00266529
-0.000405001
-0.00308786
-0.00210917
-0.000205978
0.000726743
-0.000369939
0.00114858
-0.000427976
0.00117983
-0.000404276
0.00108161
-0.000328437
0.0009508
-0.000223089
0.000824057
-0.000102814
0.000712446
2.34361e-05
0.000617914
0.000150456
0.000539022
0.000275252
0.000473571
0.000396296
0.000419369
0.000512956
0.000374566
0.000625189
0.000337631
0.000733331
0.000307248
0.000837885
0.00028214
0.000939284
0.000260808
0.00103751
0.000241192
0.00113158
0.000220256
0.00121875
0.000193514
0.00129361
0.000154629
0.00134698
9.52635e-05
0.00136418
6.22395e-06
0.00132889
-0.000129825
0.00121822
-0.000323793
0.00100823
-0.000595496
0.000680483
-0.000974787
0.000248606
-0.00150979
-0.000179085
-0.0022376
-0.000337239
-0.00292971
-0.0024464
-0.000337151
0.00106389
-0.000421841
0.00123327
-0.00033029
0.00108827
-0.000147625
0.00089894
7.07939e-05
0.000732382
0.000296798
0.000598054
0.000516384
0.00049286
0.000723427
0.000410871
0.000915788
0.000346661
0.00109335
0.000296011
0.00125693
0.000255784
0.00140783
0.000223669
0.00154752
0.000197938
0.00167753
0.00017724
0.00179927
0.000160404
0.00191384
0.000146235
0.00202175
0.000133284
0.00212242
0.00011959
0.00221354
0.000102389
0.0022903
7.78682e-05
0.00234411
4.14547e-05
0.00236252
-1.219e-05
0.00232639
-9.36917e-05
0.00221213
-0.000209529
0.00198988
-0.000373248
0.00162503
-0.000609938
0.00108735
-0.000972104
0.000430268
-0.00158052
-7.01493e-05
-0.00242929
-0.00251655
-0.000297626
0.00136152
-3.79316e-05
0.000973573
0.000399072
0.000651271
0.000824661
0.000473351
0.00120749
0.000349548
0.00154342
0.000262133
0.00183505
0.000201223
0.00208764
0.000158282
0.00230703
0.000127268
0.00249866
0.000104389
0.0026672
8.72404e-05
0.00281664
7.4231e-05
0.00295031
6.42635e-05
0.00307101
5.6547e-05
0.00318096
5.0454e-05
0.00328179
4.54012e-05
0.00337433
4.074e-05
0.00345827
3.5654e-05
0.00353159
2.90721e-05
0.00358979
1.96614e-05
0.00362531
5.93412e-06
0.00362895
-1.5823e-05
0.00358217
-4.69126e-05
0.00346269
-9.00515e-05
0.00324059
-0.000151145
0.0028737
-0.000243056
0.00230117
-0.00039957
0.00147167
-0.000751019
0.000497976
-0.0014556
-0.00201858
0.00136152
0.00233509
0.00298636
0.00345972
0.00380926
0.0040714
0.00427262
0.0044309
0.00455817
0.00466256
0.0047498
0.00482403
0.00488829
0.00494484
0.00499529
0.0050407
0.00508144
0.00511709
0.00514616
0.00516582
0.00517176
0.00515593
0.00510902
0.00501897
0.00486783
0.00462477
0.0042252
0.00347418
0.00201858
)
;

boundaryField
{
    movingWall
    {
        type            calculated;
        value           uniform 0;
    }
    fixedWalls
    {
        type            calculated;
        value           uniform 0;
    }
    frontAndBack
    {
        type            empty;
        value           nonuniform 0();
    }
}


// ************************************************************************* //
