/*--------------------------------*- C++ -*----------------------------------*\
  =========                 |
  \\      /  F ield         | OpenFOAM: The Open Source CFD Toolbox
   \\    /   O peration     | Website:  https://openfoam.org
    \\  /    A nd           | Version:  7
     \\/     M anipulation  |
\*---------------------------------------------------------------------------*/
FoamFile
{
    version     2.0;
    format      ascii;
    class       volScalarField;
    location    "4.5";
    object      p;
}
// * * * * * * * * * * * * * * * * * * * * * * * * * * * * * * * * * * * * * //

dimensions      [0 2 -2 0 0 0 0];

internalField   nonuniform List<scalar> 
900
(
-1.76533e-08
-0.000117455
-0.000246068
-0.000348615
-0.000397373
-0.000377943
-0.00028554
-0.000120088
0.0001166
0.000422056
0.000793469
0.00122746
0.00171955
0.00226349
0.00285064
0.00346939
0.0041049
0.00473909
0.00535114
0.0059185
0.00641848
0.00683025
0.00713726
0.00732964
0.00740638
0.00737699
0.00726336
0.00710141
0.00692525
0.00681476
0.000115875
-3.17563e-06
-9.18315e-05
-0.000150898
-0.00016528
-0.000123567
-2.0976e-05
0.000143992
0.000371254
0.000659744
0.00100758
0.0014119
0.00186852
0.00237143
0.00291236
0.00348043
0.00406179
0.00464026
0.00519721
0.00571291
0.00616791
0.00654482
0.00683047
0.00701783
0.00710771
0.00710955
0.00704193
0.00693262
0.00681234
0.00670265
0.000248672
8.22801e-05
-8.46835e-06
-5.733e-05
-6.07714e-05
-1.08371e-05
9.54766e-05
0.000259121
0.000480276
0.000758466
0.00109248
0.00148011
0.00191778
0.0024001
0.00291936
0.00346525
0.00402493
0.00458243
0.00511988
0.00561815
0.00605835
0.00642362
0.00670126
0.00688469
0.0069749
0.00698092
0.00691981
0.00681653
0.00669227
0.0065345
0.000357829
0.000135054
2.86737e-05
-2.23749e-05
-2.40369e-05
2.81483e-05
0.000134889
0.000296008
0.000511512
0.000781302
0.00110482
0.00148068
0.00190613
0.00237661
0.0028852
0.00342225
0.00397519
0.00452832
0.00506356
0.00556125
0.00600165
0.00636695
0.0066435
0.00682405
0.00690916
0.00690753
0.00683579
0.00671833
0.00657076
0.00636099
0.000409236
0.00013252
7.15652e-06
-5.1229e-05
-5.5928e-05
-5.27642e-06
9.93463e-05
0.000256655
0.000466448
0.000728992
0.00104445
0.00141235
0.00183097
0.00229672
0.00280358
0.00334251
0.00390117
0.0044637
0.00501117
0.00552248
0.00597594
0.00635158
0.00663368
0.00681343
0.00689067
0.00687414
0.00678129
0.00663812
0.0064588
0.00619747
0.000378803
5.344e-05
-9.17142e-05
-0.000160304
-0.000171253
-0.00012499
-2.45764e-05
0.000127824
0.000331917
0.000588423
0.000898329
0.00126221
0.00167951
0.00214782
0.00266211
0.003214
0.00379132
0.00437768
0.00495269
0.00549296
0.00597374
0.00637156
0.0066674
0.00684996
0.00691794
0.00688062
0.00675767
0.0065791
0.00636134
0.00605048
0.000250459
-0.000118
-0.000282471
-0.000362615
-0.00038176
-0.000341873
-0.000247296
-0.00010079
9.74477e-05
0.000348739
0.00065504
0.00101815
0.00143889
0.00191623
0.00244633
0.00302165
0.00363018
0.00425487
0.00487338
0.00545917
0.00598326
0.00641723
0.00673721
0.00692814
0.006987
0.00692394
0.00676235
0.00653869
0.00627509
0.00591384
1.26057e-05
-0.000394509
-0.000577467
-0.000669743
-0.00069831
-0.000666312
-0.000579046
-0.000439617
-0.000247933
-1.89321e-06
0.000301611
0.000665824
0.00109319
0.00158438
0.00213712
0.00274501
0.00339643
0.00407378
0.00475246
0.00540211
0.00598823
0.00647568
0.00683375
0.00704173
0.00709372
0.00700077
0.0067914
0.00651122
0.00619131
0.00577247
-0.000344024
-0.000786956
-0.000987852
-0.00109273
-0.00113181
-0.00110923
-0.00103105
-0.000900525
-0.000717128
-0.000477818
-0.000178142
0.000186836
0.000621529
0.00112872
0.00170829
0.0023556
0.00305981
0.00380338
0.00455952
0.00529363
0.00596439
0.00652788
0.00694373
0.00718272
0.00723384
0.00710827
0.00684083
0.00648945
0.00609762
0.00560495
-0.000827528
-0.00130499
-0.00152382
-0.00164204
-0.00169301
-0.00168182
-0.00161522
-0.00149658
-0.00132484
-0.00109591
-0.000803827
-0.000441726
-2.84759e-06
0.000518286
0.00112446
0.0018136
0.0025764
0.00339773
0.00424831
0.00508954
0.00587244
0.00654187
0.00704415
0.00733706
0.00740039
0.00724312
0.00690683
0.00646543
0.00597903
0.00538424
-0.00144548
-0.00195754
-0.0021949
-0.00232765
-0.00239241
-0.00239531
-0.00234391
-0.00224175
-0.00208726
-0.00187531
-0.00159836
-0.00124741
-0.000813026
-0.000286448
0.00033884
0.00106438
0.00188335
0.00278975
0.0037488
0.0047201
0.00564733
0.00646212
0.00709273
0.00747727
0.00757915
0.00739968
0.00698587
0.0064316
0.0058191
0.00507791
-0.00220527
-0.00275311
-0.00301019
-0.00315917
-0.00324022
-0.00326081
-0.00322955
-0.00315038
-0.00302146
-0.00283675
-0.00258725
-0.00226182
-0.00184811
-0.00133366
-0.000707331
3.9353e-05
0.000909648
0.00188695
0.00295713
0.00407659
0.00518255
0.00619251
0.00701166
0.00754896
0.0077393
0.00756529
0.00707378
0.00638205
0.00560166
0.00464884
-0.00311421
-0.00370007
-0.00397856
-0.00414586
-0.0042462
-0.00428884
-0.00428394
-0.00423628
-0.00414415
-0.00400107
-0.00379694
-0.00351884
-0.00315169
-0.00267916
-0.00208467
-0.00135278
-0.00047233
0.000555256
0.00172296
0.00299446
0.00430836
0.00557116
0.00666141
0.00744702
0.00781539
0.00770959
0.00716197
0.00631315
0.00531316
0.0040567
-0.00417963
-0.00480684
-0.00510877
-0.00529659
-0.00541933
-0.00548875
-0.00551726
-0.00551123
-0.0054698
-0.00538677
-0.00525181
-0.00505108
-0.00476766
-0.00438189
-0.00387182
-0.00321393
-0.00238556
-0.00137067
-0.000157011
0.00123837
0.0027682
0.0043387
0.00580375
0.00697837
0.00767561
0.00776293
0.00722728
0.00622235
0.00494567
0.00326076
-0.00540893
-0.00608219
-0.00640975
-0.00661989
-0.00676751
-0.00686787
-0.00693674
-0.00698305
-0.00700787
-0.00700647
-0.00696966
-0.0068843
-0.00673345
-0.00649606
-0.0061464
-0.00565338
-0.00497967
-0.0040837
-0.00293527
-0.00150179
0.000204242
0.00211117
0.00406253
0.00581514
0.0070756
0.00758018
0.00721135
0.00610278
0.00450054
0.00222491
-0.0068099
-0.00753585
-0.00789102
-0.008124
-0.00829712
-0.00843059
-0.00854495
-0.00865313
-0.00875947
-0.00886233
-0.00895561
-0.00902937
-0.00906966
-0.00905759
-0.00896735
-0.0087632
-0.00839531
-0.00779681
-0.00688817
-0.00558373
-0.00382283
-0.00161463
0.000909061
0.0034598
0.0056108
0.00689408
0.00698874
0.00593265
0.00399396
0.000927278
-0.00839145
-0.0091796
-0.00956361
-0.00981728
-0.0100128
-0.0101773
-0.010338
-0.0105136
-0.0107134
-0.0109407
-0.0111949
-0.0114724
-0.0117665
-0.0120657
-0.01235
-0.0125851
-0.0127132
-0.0126419
-0.0122352
-0.0113239
-0.00974354
-0.00737925
-0.00427787
-0.000728886
0.00270612
0.00528149
0.00633314
0.00566126
0.00346713
-0.000619916
-0.0101651
-0.0110292
-0.0114416
-0.011709
-0.0119172
-0.0121033
-0.0123038
-0.0125448
-0.0128424
-0.0132068
-0.0136454
-0.0141647
-0.0147698
-0.0154628
-0.0162376
-0.0170699
-0.0179017
-0.0186195
-0.0190288
-0.0188454
-0.0178013
-0.0155649
-0.0120214
-0.00738011
-0.00228789
0.00219649
0.00491346
0.00520371
0.00300701
-0.00233012
-0.0121476
-0.0131078
-0.0135445
-0.0138106
-0.0140115
-0.0141985
-0.0144202
-0.0147126
-0.0150998
-0.0156007
-0.0162328
-0.0170154
-0.0179702
-0.019119
-0.0204774
-0.0220408
-0.0237607
-0.0255111
-0.0270525
-0.028009
-0.0278543
-0.0261239
-0.022432
-0.0167945
-0.00982911
-0.00285526
0.00237497
0.00447518
0.00278737
-0.00396727
-0.0143661
-0.0154515
-0.0159018
-0.016138
-0.0162955
-0.0164459
-0.016654
-0.0169672
-0.0174186
-0.0180362
-0.0188488
-0.0198907
-0.0212026
-0.0228302
-0.0248164
-0.0271832
-0.0299002
-0.0328385
-0.0357185
-0.0380598
-0.0391596
-0.0383463
-0.0349096
-0.0285796
-0.0197955
-0.00997908
-0.00143533
0.00350971
0.00314364
-0.00501982
-0.0168667
-0.0181185
-0.0185582
-0.0187137
-0.0187679
-0.0188215
-0.01896
-0.0192431
-0.0197123
-0.020404
-0.0213581
-0.0226232
-0.0242598
-0.0263382
-0.0289295
-0.0320839
-0.035792
-0.0399277
-0.044181
-0.0479819
-0.0504401
-0.050861
-0.0480463
-0.041432
-0.0311543
-0.0185059
-0.00612421
0.00268994
0.00469711
-0.0045144
-0.0197316
-0.021204
-0.0215828
-0.02157
-0.0214257
-0.0212924
-0.02128
-0.0214595
-0.0218786
-0.0225795
-0.0236102
-0.025032
-0.0269224
-0.0293731
-0.0324793
-0.0363144
-0.0408853
-0.0460675
-0.0515283
-0.0566763
-0.0606595
-0.0620318
-0.0599111
-0.0533064
-0.0419506
-0.0267868
-0.0104371
0.00303965
0.00853803
-0.000783746
-0.0231122
-0.024865
-0.0250791
-0.0247489
-0.0242605
-0.0238127
-0.0235403
-0.0235217
-0.023805
-0.0244331
-0.0254581
-0.0269494
-0.0289968
-0.0317071
-0.0351907
-0.0395331
-0.0447452
-0.0506931
-0.0570179
-0.0630842
-0.06794
-0.0701988
-0.0686091
-0.0619997
-0.0497693
-0.0324162
-0.0122195
0.00641914
0.0164568
0.00875753
-0.0273016
-0.0293605
-0.0291973
-0.0282982
-0.0272485
-0.0263137
-0.0256458
-0.025319
-0.0253721
-0.0258408
-0.0267749
-0.0282463
-0.0303503
-0.0332004
-0.0369113
-0.0415663
-0.047163
-0.0535408
-0.0602987
-0.0668003
-0.072133
-0.0745903
-0.072946
-0.0658645
-0.0524785
-0.0328613
-0.00878957
0.0154834
0.0311771
0.0277471
-0.0328924
-0.0351129
-0.0341373
-0.0322518
-0.0303274
-0.0286845
-0.0274647
-0.0267154
-0.0264498
-0.0266855
-0.0274614
-0.0288443
-0.0309273
-0.0338206
-0.0376314
-0.0424278
-0.0481829
-0.0547056
-0.0615591
-0.0680057
-0.0729663
-0.0749784
-0.0725267
-0.0641639
-0.0488175
-0.0261949
0.00235857
0.0333505
0.0564156
0.0607566
-0.0411528
-0.0427942
-0.0401093
-0.0365687
-0.0333384
-0.0307202
-0.0287846
-0.0275133
-0.0268689
-0.0268347
-0.0274273
-0.0286982
-0.0307294
-0.0336169
-0.0374477
-0.0422594
-0.047985
-0.0543823
-0.0609557
-0.0668919
-0.071028
-0.0718774
-0.0677668
-0.0570843
-0.0385413
-0.0116454
0.022794
0.0627244
0.0961996
0.11291
-0.0551334
-0.0534613
-0.0472205
-0.0410003
-0.0359029
-0.0320148
-0.0292227
-0.0273819
-0.0263655
-0.0260975
-0.0265556
-0.0277637
-0.0297792
-0.0326734
-0.0365015
-0.0412597
-0.0468285
-0.0529032
-0.0589206
-0.0639956
-0.0668919
-0.0660204
-0.0595449
-0.045616
-0.0226402
0.0103068
0.0530148
0.10424
0.152801
0.191228
-0.0826176
-0.0682829
-0.0553938
-0.0449871
-0.0373101
-0.0319002
-0.0282207
-0.0258948
-0.0246439
-0.0242954
-0.0247668
-0.0260417
-0.0281452
-0.0311162
-0.0349724
-0.039664
-0.0450159
-0.0506602
-0.0559641
-0.0599674
-0.0613682
-0.0584911
-0.0493712
-0.0317759
-0.00362236
0.0368358
0.090397
0.157157
0.227154
0.309718
-0.134985
-0.0835872
-0.0623125
-0.0460596
-0.0353394
-0.02865
-0.0245717
-0.0222429
-0.0211714
-0.0210836
-0.0218416
-0.0233952
-0.0257442
-0.0289032
-0.032861
-0.0375334
-0.0427067
-0.0479735
-0.0526651
-0.0557796
-0.0559355
-0.051381
-0.0401742
-0.0197019
0.0128021
0.0605474
0.126666
0.21594
0.324592
0.494716
-0.307321
-0.0931642
-0.0448182
-0.027234
-0.0179571
-0.0135164
-0.0119338
-0.0118148
-0.0125146
-0.0138144
-0.0156598
-0.0180625
-0.0210649
-0.0247096
-0.029003
-0.0338713
-0.0391087
-0.0443184
-0.0488541
-0.0517672
-0.0517874
-0.047258
-0.03587
-0.0151751
0.0178944
0.0680317
0.14199
0.257276
0.432995
0.777125
)
;

boundaryField
{
    movingWall
    {
        type            zeroGradient;
    }
    fixedWalls
    {
        type            zeroGradient;
    }
    frontAndBack
    {
        type            empty;
    }
}


// ************************************************************************* //
