/*--------------------------------*- C++ -*----------------------------------*\
  =========                 |
  \\      /  F ield         | OpenFOAM: The Open Source CFD Toolbox
   \\    /   O peration     | Website:  https://openfoam.org
    \\  /    A nd           | Version:  7
     \\/     M anipulation  |
\*---------------------------------------------------------------------------*/
FoamFile
{
    version     2.0;
    format      ascii;
    class       volVectorField;
    location    "3.9";
    object      U;
}
// * * * * * * * * * * * * * * * * * * * * * * * * * * * * * * * * * * * * * //

dimensions      [0 1 -1 0 0 0 0];

internalField   nonuniform List<vector> 
900
(
(6.01488e-05 -5.94279e-05 0)
(2.80755e-05 1.20494e-05 0)
(-0.000270053 9.53701e-05 0)
(-0.000765673 0.000155065 0)
(-0.00139863 0.00019039 0)
(-0.00211211 0.000206995 0)
(-0.00285999 0.000211086 0)
(-0.00360894 0.000207335 0)
(-0.00433538 0.000198557 0)
(-0.00502182 0.000186105 0)
(-0.00565375 0.00017034 0)
(-0.00621756 0.000151031 0)
(-0.00669927 0.000127662 0)
(-0.00708403 9.96705e-05 0)
(-0.00735622 6.66449e-05 0)
(-0.0075001 2.84852e-05 0)
(-0.00750101 -1.44372e-05 0)
(-0.00734688 -6.12229e-05 0)
(-0.00703015 -0.0001102 0)
(-0.00655 -0.00015894 0)
(-0.00591453 -0.000204272 0)
(-0.00514271 -0.000242387 0)
(-0.00426574 -0.000269068 0)
(-0.00332762 -0.000279974 0)
(-0.00238442 -0.000270904 0)
(-0.00150243 -0.000238105 0)
(-0.000753988 -0.000179053 0)
(-0.000207635 -9.49593e-05 0)
(7.75432e-05 2.57547e-06 0)
(7.39803e-05 7.2961e-05 0)
(-1.02954e-05 -2.94772e-05 0)
(-0.000361005 0.000359191 0)
(-0.00126993 0.000760822 0)
(-0.00258003 0.00106679 0)
(-0.0041812 0.00126509 0)
(-0.00596428 0.00137016 0)
(-0.0078307 0.00140338 0)
(-0.00970187 0.00138393 0)
(-0.0115172 0.00132553 0)
(-0.0132287 0.00123633 0)
(-0.0147962 0.00112011 0)
(-0.0161829 0.000977629 0)
(-0.0173532 0.000808075 0)
(-0.0182713 0.00061026 0)
(-0.0189011 0.000383698 0)
(-0.0192083 0.000129518 0)
(-0.0191622 -0.000148789 0)
(-0.0187391 -0.000444382 0)
(-0.0179266 -0.000746819 0)
(-0.0167282 -0.00104173 0)
(-0.0151674 -0.00131099 0)
(-0.0132921 -0.00153351 0)
(-0.0111765 -0.0016866 0)
(-0.00892201 -0.0017479 0)
(-0.00665409 -0.00169773 0)
(-0.00451657 -0.00152208 0)
(-0.00266024 -0.00121735 0)
(-0.00122094 -0.00079921 0)
(-0.000300119 -0.000319717 0)
(1.02118e-05 7.81365e-05 0)
(-9.80133e-05 0.000271336 0)
(-0.000793607 0.00127553 0)
(-0.00229157 0.00222208 0)
(-0.00431475 0.00295147 0)
(-0.00671345 0.00343744 0)
(-0.00934814 0.00370307 0)
(-0.0120885 0.00378897 0)
(-0.0148268 0.00373528 0)
(-0.0174768 0.00357328 0)
(-0.0199684 0.00332345 0)
(-0.0222419 0.00299677 0)
(-0.0242431 0.00259739 0)
(-0.0259204 0.0021256 0)
(-0.027223 0.00158073 0)
(-0.0281013 0.000963694 0)
(-0.0285087 0.000279317 0)
(-0.0284046 -0.000461694 0)
(-0.0277589 -0.00124077 0)
(-0.0265575 -0.00203059 0)
(-0.0248082 -0.00279445 0)
(-0.0225469 -0.00348688 0)
(-0.0198422 -0.0040557 0)
(-0.0167985 -0.00444567 0)
(-0.0135559 -0.00460366 0)
(-0.0102856 -0.00448529 0)
(-0.00718093 -0.00406307 0)
(-0.00444084 -0.00333749 0)
(-0.00224041 -0.00235249 0)
(-0.000717546 -0.00121811 0)
(-7.04442e-05 -0.000179088 0)
(-0.00016959 0.000797712 0)
(-0.00117136 0.00265526 0)
(-0.00319993 0.00428263 0)
(-0.00584707 0.00551825 0)
(-0.00892029 0.00634023 0)
(-0.0122551 0.00678798 0)
(-0.0156993 0.00692492 0)
(-0.0191259 0.00681454 0)
(-0.0224322 0.00650784 0)
(-0.0255334 0.00603961 0)
(-0.0283563 0.00542977 0)
(-0.0308346 0.00468715 0)
(-0.0329053 0.00381426 0)
(-0.0345067 0.00281192 0)
(-0.0355792 0.00168363 0)
(-0.0360667 0.00043953 0)
(-0.0359207 -0.000900077 0)
(-0.0351052 -0.00230187 0)
(-0.0336036 -0.00371722 0)
(-0.0314256 -0.00508148 0)
(-0.0286145 -0.00631518 0)
(-0.0252535 -0.00732779 0)
(-0.0214691 -0.00802428 0)
(-0.0174304 -0.00831465 0)
(-0.0133436 -0.00812583 0)
(-0.00943993 -0.00741572 0)
(-0.005957 -0.0061899 0)
(-0.00310393 -0.004521 0)
(-0.00105935 -0.00257157 0)
(-0.000130473 -0.000648762 0)
(-0.000223423 0.00151158 0)
(-0.00148129 0.00444026 0)
(-0.00396943 0.00686815 0)
(-0.00715652 0.00867216 0)
(-0.0108065 0.009858 0)
(-0.0147307 0.0104934 0)
(-0.0187589 0.0106704 0)
(-0.022751 0.0104788 0)
(-0.0265938 0.00999113 0)
(-0.0301932 0.00925748 0)
(-0.0334678 0.00830749 0)
(-0.0363433 0.00715526 0)
(-0.0387484 0.0058058 0)
(-0.0406132 0.00426169 0)
(-0.0418693 0.00252933 0)
(-0.0424516 0.000624677 0)
(-0.0423027 -0.00142143 0)
(-0.0413783 -0.00355883 0)
(-0.0396556 -0.00571452 0)
(-0.0371413 -0.00779154 0)
(-0.0338812 -0.00967071 0)
(-0.0299677 -0.0112164 0)
(-0.0255449 -0.0122866 0)
(-0.0208076 -0.0127483 0)
(-0.015995 -0.0124949 0)
(-0.0113768 -0.0114674 0)
(-0.00723085 -0.00967538 0)
(-0.00380365 -0.00721818 0)
(-0.00131557 -0.00430231 0)
(-0.00016708 -0.00127556 0)
(-0.000263508 0.00237622 0)
(-0.00173263 0.00657103 0)
(-0.00461413 0.00991241 0)
(-0.0082691 0.0123422 0)
(-0.0124199 0.0139144 0)
(-0.0168541 0.0147382 0)
(-0.0213853 0.0149423 0)
(-0.0258636 0.014647 0)
(-0.0301692 0.0139482 0)
(-0.034203 0.0129125 0)
(-0.0378791 0.0115794 0)
(-0.0411182 0.00996816 0)
(-0.0438433 0.00808556 0)
(-0.0459773 0.00593513 0)
(-0.0474431 0.00352517 0)
(-0.0481651 0.000876679 0)
(-0.0480739 -0.00196928 0)
(-0.0471125 -0.00494501 0)
(-0.0452457 -0.00795102 0)
(-0.0424709 -0.0108539 0)
(-0.0388298 -0.0134886 0)
(-0.0344189 -0.0156659 0)
(-0.029397 -0.0171879 0)
(-0.0239858 -0.0178688 0)
(-0.0184624 -0.0175612 0)
(-0.0131428 -0.0161848 0)
(-0.00835419 -0.013752 0)
(-0.00438858 -0.0103894 0)
(-0.00150828 -0.00634739 0)
(-0.000186366 -0.00201588 0)
(-0.000294652 0.00336228 0)
(-0.00194162 0.00899404 0)
(-0.0051646 0.0133535 0)
(-0.00923256 0.016464 0)
(-0.0138296 0.0184442 0)
(-0.0187206 0.0194579 0)
(-0.0237045 0.0196786 0)
(-0.0286236 0.0192621 0)
(-0.0333542 0.0183307 0)
(-0.0377957 0.0169684 0)
(-0.0418603 0.0152244 0)
(-0.0454663 0.013122 0)
(-0.0485326 0.0106684 0)
(-0.0509757 0.00786582 0)
(-0.0527087 0.00472215 0)
(-0.0536431 0.00126095 0)
(-0.0536931 -0.00246845 0)
(-0.0527825 -0.00638179 0)
(-0.0508561 -0.0103519 0)
(-0.0478928 -0.0142051 0)
(-0.0439217 -0.0177228 0)
(-0.039037 -0.020652 0)
(-0.0334095 -0.022725 0)
(-0.0272906 -0.0236894 0)
(-0.0210046 -0.0233454 0)
(-0.0149278 -0.0215837 0)
(-0.00945307 -0.0184194 0)
(-0.00493089 -0.0140123 0)
(-0.00166849 -0.00866888 0)
(-0.000195239 -0.00284013 0)
(-0.000320842 0.00445064 0)
(-0.00212468 0.0116716 0)
(-0.00565503 0.017147 0)
(-0.0101003 0.0209922 0)
(-0.0151096 0.0234043 0)
(-0.0204267 0.0246126 0)
(-0.0258373 0.0248444 0)
(-0.0311776 0.0242968 0)
(-0.0363228 0.0231214 0)
(-0.0411728 0.0214205 0)
(-0.045641 0.0192529 0)
(-0.0496454 0.0166443 0)
(-0.0531025 0.0135997 0)
(-0.0559227 0.010117 0)
(-0.0580088 0.00619936 0)
(-0.0592562 0.00186852 0)
(-0.0595577 -0.00282199 0)
(-0.0588102 -0.00777435 0)
(-0.0569281 -0.0128341 0)
(-0.0538602 -0.0177836 0)
(-0.049611 -0.0223428 0)
(-0.0442618 -0.0261803 0)
(-0.0379905 -0.0289399 0)
(-0.0310808 -0.0302815 0)
(-0.0239158 -0.0299336 0)
(-0.0169531 -0.0277469 0)
(-0.0106755 -0.023739 0)
(-0.00551314 -0.0181167 0)
(-0.00182775 -0.0112665 0)
(-0.000198947 -0.00373625 0)
(-0.000344955 0.00563117 0)
(-0.00229569 0.0145826 0)
(-0.00611654 0.0212676 0)
(-0.0109217 0.0259021 0)
(-0.016328 0.0287724 0)
(-0.0220591 0.0301846 0)
(-0.0278891 0.0304281 0)
(-0.0336502 0.0297474 0)
(-0.0392185 0.0283268 0)
(-0.0444973 0.0262883 0)
(-0.0494038 0.0236999 0)
(-0.0538588 0.0205876 0)
(-0.0577782 0.0169512 0)
(-0.0610677 0.012779 0)
(-0.0636193 0.00806398 0)
(-0.0653104 0.00281946 0)
(-0.066007 -0.0029037 0)
(-0.0655705 -0.00900026 0)
(-0.0638723 -0.0152912 0)
(-0.0608158 -0.0215135 0)
(-0.0563627 -0.0273161 0)
(-0.0505652 -0.032272 0)
(-0.0435967 -0.0359103 0)
(-0.035772 -0.0377722 0)
(-0.0275463 -0.0374839 0)
(-0.0194853 -0.0348366 0)
(-0.0121988 -0.0298493 0)
(-0.00623054 -0.0227963 0)
(-0.00201872 -0.0141836 0)
(-0.000201304 -0.00470898 0)
(-0.000368971 0.00690065 0)
(-0.0024655 0.0177195 0)
(-0.00657487 0.0257069 0)
(-0.0117386 0.031186 0)
(-0.0175416 0.0345433 0)
(-0.0236888 0.0361723 0)
(-0.0299442 0.0364336 0)
(-0.0361378 0.0356256 0)
(-0.0421494 0.0339689 0)
(-0.0478889 0.0316073 0)
(-0.0532806 0.0286171 0)
(-0.0582514 0.0250228 0)
(-0.0627205 0.0208146 0)
(-0.0665915 0.0159661 0)
(-0.069747 0.010452 0)
(-0.0720452 0.00426799 0)
(-0.0733222 -0.00254803 0)
(-0.0733946 -0.00989363 0)
(-0.072076 -0.0175728 0)
(-0.0692041 -0.0252789 0)
(-0.0646727 -0.0325828 0)
(-0.0584779 -0.0389414 0)
(-0.0507663 -0.0437349 0)
(-0.0418737 -0.0463397 0)
(-0.0323379 -0.0462329 0)
(-0.0228674 -0.0431101 0)
(-0.0142516 -0.0369842 0)
(-0.00720432 -0.0282249 0)
(-0.00228077 -0.0175158 0)
(-0.000205908 -0.00578055 0)
(-0.000394228 0.00826099 0)
(-0.00264231 0.0210863 0)
(-0.00705015 0.0304699 0)
(-0.0125834 0.0368499 0)
(-0.0187946 0.0407243 0)
(-0.0253697 0.0425853 0)
(-0.032064 0.0428747 0)
(-0.0387078 0.0419514 0)
(-0.0451874 0.0400777 0)
(-0.0514229 0.0374205 0)
(-0.0573506 0.0340647 0)
(-0.0629084 0.0300314 0)
(-0.0680237 0.0252971 0)
(-0.0726033 0.0198139 0)
(-0.0765246 0.0135291 0)
(-0.0796288 0.00640785 0)
(-0.0817203 -0.00153985 0)
(-0.0825637 -0.0102268 0)
(-0.0818988 -0.0194587 0)
(-0.0794723 -0.0288941 0)
(-0.0750754 -0.038023 0)
(-0.068607 -0.0461658 0)
(-0.060147 -0.0525111 0)
(-0.0500265 -0.0562064 0)
(-0.0388673 -0.0565043 0)
(-0.02756 -0.0529425 0)
(-0.0171479 -0.0455034 0)
(-0.00860231 -0.0346845 0)
(-0.00266842 -0.0214289 0)
(-0.000217689 -0.00699562 0)
(-0.000421654 0.00971785 0)
(-0.00283238 0.0246955 0)
(-0.00755804 0.0355723 0)
(-0.0134814 0.0429101 0)
(-0.0201196 0.0473311 0)
(-0.0271396 0.0494393 0)
(-0.0342886 0.0497685 0)
(-0.0413995 0.0487468 0)
(-0.0483689 0.046683 0)
(-0.0551318 0.0437706 0)
(-0.0616417 0.0401038 0)
(-0.0678541 0.0356986 0)
(-0.0737123 0.0305145 0)
(-0.0791346 0.0244751 0)
(-0.0840015 0.0174897 0)
(-0.0881439 0.00947825 0)
(-0.0913337 0.000402835 0)
(-0.0932823 -0.00968986 0)
(-0.0936439 -0.020632 0)
(-0.0920409 -0.0320678 0)
(-0.0881178 -0.0434154 0)
(-0.0816182 -0.0538441 0)
(-0.0724927 -0.0623013 0)
(-0.0610156 -0.0676193 0)
(-0.0478746 -0.0687131 0)
(-0.0341786 -0.0648534 0)
(-0.021321 -0.0559333 0)
(-0.0106626 -0.0426063 0)
(-0.00326109 -0.0261878 0)
(-0.000244534 -0.00843138 0)
(-0.000452003 0.0112799 0)
(-0.003041 0.0285669 0)
(-0.00811172 0.041038 0)
(-0.0144529 0.0493898 0)
(-0.0215417 0.0543838 0)
(-0.0290242 0.0567511 0)
(-0.0366404 0.0571303 0)
(-0.0442285 0.0560285 0)
(-0.0516991 0.0538076 0)
(-0.0590075 0.0506916 0)
(-0.0661309 0.0467863 0)
(-0.0730506 0.0421028 0)
(-0.0797357 0.0365805 0)
(-0.0861275 0.0301091 0)
(-0.0921222 0.0225489 0)
(-0.0975521 0.0137573 0)
(-0.102167 0.00362348 0)
(-0.105627 -0.00788438 0)
(-0.107488 -0.0206593 0)
(-0.107218 -0.0343712 0)
(-0.104266 -0.048394 0)
(-0.098144 -0.0617442 0)
(-0.088584 -0.0730803 0)
(-0.0757169 -0.0808105 0)
(-0.0602419 -0.0833501 0)
(-0.0435008 -0.0795235 0)
(-0.0273467 -0.0690104 0)
(-0.0137141 -0.0526232 0)
(-0.0041724 -0.0321973 0)
(-0.000298759 -0.010213 0)
(-0.000486108 0.0129583 0)
(-0.00327378 0.0327262 0)
(-0.00872449 0.0468975 0)
(-0.0155172 0.0563167 0)
(-0.0230821 0.0619034 0)
(-0.0310419 0.064534 0)
(-0.0391298 0.0649673 0)
(-0.0471917 0.0638008 0)
(-0.0551567 0.0614578 0)
(-0.0630055 0.0581984 0)
(-0.0707464 0.0541433 0)
(-0.0783956 0.0493008 0)
(-0.0859599 0.0435905 0)
(-0.0934178 0.0368633 0)
(-0.100698 0.028921 0)
(-0.107653 0.0195395 0)
(-0.114029 0.00850332 0)
(-0.119441 -0.00434008 0)
(-0.123344 -0.0189947 0)
(-0.125035 -0.0352257 0)
(-0.123711 -0.052415 0)
(-0.118574 -0.0694499 0)
(-0.109024 -0.0846643 0)
(-0.0949225 -0.095922 0)
(-0.0768716 -0.100925 0)
(-0.0564076 -0.0977771 0)
(-0.0359325 -0.0857087 0)
(-0.0181868 -0.065624 0)
(-0.00555742 -0.040051 0)
(-0.000398345 -0.0125336 0)
(-0.0005252 0.0147678 0)
(-0.00353815 0.0372064 0)
(-0.00941308 0.0531885 0)
(-0.0166972 0.0637223 0)
(-0.0247643 0.0699093 0)
(-0.0332102 0.0727937 0)
(-0.0417611 0.0732731 0)
(-0.0502733 0.0720488 0)
(-0.0586985 0.0696148 0)
(-0.0670482 0.0662744 0)
(-0.0753684 0.0621691 0)
(-0.0837192 0.0573088 0)
(-0.0921568 0.0515956 0)
(-0.100713 0.0448418 0)
(-0.109368 0.0367827 0)
(-0.118019 0.0270948 0)
(-0.126432 0.0154258 0)
(-0.134192 0.00145165 0)
(-0.140671 -0.0150212 0)
(-0.144992 -0.033933 0)
(-0.146063 -0.0547609 0)
(-0.142705 -0.0763237 0)
(-0.133873 -0.0966284 0)
(-0.119001 -0.112886 0)
(-0.0984166 -0.121838 0)
(-0.0737134 -0.12049 0)
(-0.0478487 -0.107216 0)
(-0.0246033 -0.0827892 0)
(-0.00761792 -0.0505827 0)
(-0.000568567 -0.0156774 0)
(-0.000571324 0.0167277 0)
(-0.00384539 0.0420504 0)
(-0.0102017 0.059957 0)
(-0.0180251 0.0716413 0)
(-0.0266206 0.0784169 0)
(-0.035552 0.0815244 0)
(-0.044539 0.0820218 0)
(-0.0534509 0.0807295 0)
(-0.0622655 0.0782234 0)
(-0.0710293 0.0748578 0)
(-0.0798311 0.0708023 0)
(-0.0887814 0.0660754 0)
(-0.0979954 0.0605686 0)
(-0.107571 0.0540582 0)
(-0.11756 0.0462108 0)
(-0.127926 0.0365892 0)
(-0.138482 0.024673 0)
(-0.148825 0.00991153 0)
(-0.158266 -0.00816972 0)
(-0.165776 -0.0297789 0)
(-0.169984 -0.0546094 0)
(-0.169303 -0.0815168 0)
(-0.162161 -0.108234 0)
(-0.147404 -0.131266 0)
(-0.124844 -0.146162 0)
(-0.095854 -0.148378 0)
(-0.0637702 -0.134806 0)
(-0.0335407 -0.105574 0)
(-0.0106079 -0.0649069 0)
(-0.000845934 -0.0200462 0)
(-0.000627963 0.0188651 0)
(-0.00421332 0.0473153 0)
(-0.0111275 0.0672613 0)
(-0.0195494 0.0801129 0)
(-0.0286987 0.0874364 0)
(-0.0381028 0.0907043 0)
(-0.0474751 0.0911614 0)
(-0.056701 0.0897643 0)
(-0.0657874 0.087181 0)
(-0.0748183 0.0838257 0)
(-0.0839263 0.079904 0)
(-0.0932745 0.075452 0)
(-0.10304 0.0703596 0)
(-0.113395 0.0643756 0)
(-0.124472 0.0571002 0)
(-0.13632 0.0479748 0)
(-0.148833 0.0362853 0)
(-0.161657 0.0212043 0)
(-0.174095 0.00190407 0)
(-0.185026 -0.0222147 0)
(-0.192879 -0.0511878 0)
(-0.195705 -0.0840544 0)
(-0.191401 -0.118403 0)
(-0.17812 -0.150085 0)
(-0.154887 -0.17334 0)
(-0.122428 -0.181634 0)
(-0.0839992 -0.169548 0)
(-0.0455451 -0.13559 0)
(-0.0148408 -0.0844349 0)
(-0.00128751 -0.0261921 0)
(-0.000701039 0.0212191 0)
(-0.00467036 0.0530804 0)
(-0.0122474 0.0751779 0)
(-0.0213425 0.0891825 0)
(-0.03107 0.0969702 0)
(-0.0409164 0.100291 0)
(-0.0505918 0.100607 0)
(-0.060002 0.0990287 0)
(-0.0691855 0.0963259 0)
(-0.0782629 0.0929791 0)
(-0.0874077 0.0892368 0)
(-0.0968302 0.0851618 0)
(-0.106764 0.0806534 0)
(-0.117448 0.0754441 0)
(-0.1291 0.0690771 0)
(-0.141859 0.0608738 0)
(-0.155719 0.0499152 0)
(-0.170423 0.0350667 0)
(-0.185344 0.0150921 0)
(-0.199374 -0.0110945 0)
(-0.210881 -0.0440023 0)
(-0.21772 -0.083011 0)
(-0.217377 -0.125784 0)
(-0.207311 -0.167731 0)
(-0.185551 -0.201878 0)
(-0.151661 -0.21945 0)
(-0.108042 -0.211813 0)
(-0.060951 -0.174312 0)
(-0.0206906 -0.110833 0)
(-0.0019884 -0.0348595 0)
(-0.000800728 0.0238489 0)
(-0.00526184 0.0594592 0)
(-0.0136483 0.0838088 0)
(-0.0235117 0.0989035 0)
(-0.0338368 0.107009 0)
(-0.0440691 0.110214 0)
(-0.0539231 0.110232 0)
(-0.0633318 0.108343 0)
(-0.0723684 0.105425 0)
(-0.0811869 0.102028 0)
(-0.0899936 0.0984473 0)
(-0.0990325 0.0947773 0)
(-0.108577 0.090937 0)
(-0.118916 0.086656 0)
(-0.13033 0.0814347 0)
(-0.143048 0.0744892 0)
(-0.157169 0.0647056 0)
(-0.172571 0.0506441 0)
(-0.188788 0.0306475 0)
(-0.204877 0.00310718 0)
(-0.219334 -0.033066 0)
(-0.230084 -0.0777402 0)
(-0.234475 -0.128935 0)
(-0.229438 -0.182011 0)
(-0.211951 -0.22918 0)
(-0.179974 -0.259555 0)
(-0.134091 -0.260613 0)
(-0.0795538 -0.222542 0)
(-0.028558 -0.14586 0)
(-0.00310803 -0.0470343 0)
(-0.000945006 0.026846 0)
(-0.00606075 0.0666159 0)
(-0.0154623 0.0932913 0)
(-0.0262111 0.109336 0)
(-0.0371383 0.117525 0)
(-0.0476576 0.120362 0)
(-0.057504 0.119851 0)
(-0.0666517 0.117457 0)
(-0.0752131 0.114164 0)
(-0.0833725 0.110585 0)
(-0.0913563 0.10706 0)
(-0.0994231 0.103716 0)
(-0.10786 0.100498 0)
(-0.116977 0.0971445 0)
(-0.127089 0.0931316 0)
(-0.138484 0.087598 0)
(-0.151366 0.0792723 0)
(-0.165775 0.0664556 0)
(-0.181487 0.0471174 0)
(-0.197887 0.0191643 0)
(-0.213816 -0.0190781 0)
(-0.227579 -0.0681397 0)
(-0.236769 -0.126658 0)
(-0.238137 -0.19047 0)
(-0.227826 -0.251696 0)
(-0.202023 -0.298012 0)
(-0.158632 -0.312945 0)
(-0.100143 -0.279597 0)
(-0.0387575 -0.190982 0)
(-0.0049006 -0.0639798 0)
(-0.00116709 0.0303559 0)
(-0.00718712 0.0747912 0)
(-0.017889 0.103807 0)
(-0.0296569 0.120538 0)
(-0.0411514 0.128448 0)
(-0.0517832 0.130558 0)
(-0.0613412 0.129203 0)
(-0.0698644 0.126033 0)
(-0.0775154 0.122129 0)
(-0.0845069 0.118156 0)
(-0.0910745 0.114481 0)
(-0.0974716 0.111262 0)
(-0.103971 0.108467 0)
(-0.110869 0.105849 0)
(-0.118478 0.102885 0)
(-0.127113 0.0986749 0)
(-0.137063 0.0918526 0)
(-0.148538 0.0805498 0)
(-0.161607 0.0624748 0)
(-0.176093 0.0351722 0)
(-0.191413 -0.00352962 0)
(-0.206529 -0.0549415 0)
(-0.219633 -0.118487 0)
(-0.227812 -0.191038 0)
(-0.226874 -0.265577 0)
(-0.211521 -0.329574 0)
(-0.176579 -0.363521 0)
(-0.120101 -0.342415 0)
(-0.0512843 -0.246668 0)
(-0.00773534 -0.0872161 0)
(-0.00153163 0.0346177 0)
(-0.00884411 0.0843378 0)
(-0.0212312 0.115585 0)
(-0.034142 0.132543 0)
(-0.0460759 0.139632 0)
(-0.0565077 0.140519 0)
(-0.0653407 0.137902 0)
(-0.0727189 0.133608 0)
(-0.0788754 0.12879 0)
(-0.0840575 0.124133 0)
(-0.0885054 0.120018 0)
(-0.0924536 0.11661 0)
(-0.0961408 0.113895 0)
(-0.0998208 0.111648 0)
(-0.103772 0.109361 0)
(-0.108305 0.106143 0)
(-0.113764 0.100615 0)
(-0.120513 0.0908575 0)
(-0.128911 0.0744709 0)
(-0.139261 0.0488004 0)
(-0.151727 0.0113275 0)
(-0.166042 -0.0398373 0)
(-0.181257 -0.105129 0)
(-0.195361 -0.182847 0)
(-0.204537 -0.267774 0)
(-0.202778 -0.348785 0)
(-0.18219 -0.405331 0)
(-0.135418 -0.405076 0)
(-0.0654552 -0.311432 0)
(-0.0120659 -0.11838 0)
(-0.0021704 0.0400394 0)
(-0.0113861 0.0957698 0)
(-0.0259453 0.128888 0)
(-0.0400376 0.145297 0)
(-0.0520782 0.150773 0)
(-0.0617412 0.149771 0)
(-0.0691465 0.145371 0)
(-0.074606 0.139538 0)
(-0.0784588 0.133451 0)
(-0.0810048 0.127779 0)
(-0.0824964 0.122882 0)
(-0.0831501 0.118914 0)
(-0.0831642 0.11586 0)
(-0.0827391 0.113513 0)
(-0.082101 0.111402 0)
(-0.0815313 0.108685 0)
(-0.0813988 0.104052 0)
(-0.082187 0.0956602 0)
(-0.084508 0.0811669 0)
(-0.0890918 0.0579071 0)
(-0.0967286 0.0232207 0)
(-0.108027 -0.0251048 0)
(-0.123104 -0.0884797 0)
(-0.141102 -0.166746 0)
(-0.159341 -0.257122 0)
(-0.172266 -0.351498 0)
(-0.170452 -0.431106 0)
(-0.141334 -0.459304 0)
(-0.079517 -0.380952 0)
(-0.0182674 -0.158885 0)
(-0.00335914 0.0473455 0)
(-0.0154427 0.109818 0)
(-0.032698 0.143942 0)
(-0.0477355 0.158526 0)
(-0.0591152 0.161251 0)
(-0.0669617 0.157502 0)
(-0.0717725 0.150703 0)
(-0.0741194 0.14288 0)
(-0.0745003 0.135167 0)
(-0.0733002 0.128165 0)
(-0.0708059 0.122174 0)
(-0.0672313 0.117306 0)
(-0.0627443 0.113528 0)
(-0.0574964 0.11064 0)
(-0.0516586 0.108212 0)
(-0.0454685 0.105491 0)
(-0.0392889 0.101301 0)
(-0.0336667 0.0939829 0)
(-0.0293822 0.0814021 0)
(-0.0274721 0.0610711 0)
(-0.0292003 0.0303955 0)
(-0.0359165 -0.01301 0)
(-0.0487111 -0.0711401 0)
(-0.0680043 -0.145151 0)
(-0.0927897 -0.2348 0)
(-0.119182 -0.336094 0)
(-0.138101 -0.435078 0)
(-0.133226 -0.495902 0)
(-0.0904121 -0.447741 0)
(-0.0262465 -0.209274 0)
(-0.00567393 0.0578785 0)
(-0.022123 0.127457 0)
(-0.0423518 0.160718 0)
(-0.0573606 0.171427 0)
(-0.0664038 0.16983 0)
(-0.0704899 0.162286 0)
(-0.0707307 0.152425 0)
(-0.068081 0.142198 0)
(-0.0632639 0.13259 0)
(-0.0567892 0.124066 0)
(-0.0490031 0.116816 0)
(-0.0401341 0.110874 0)
(-0.030333 0.106164 0)
(-0.0197115 0.102476 0)
(-0.00838752 0.099421 0)
(0.00345581 0.0963465 0)
(0.0154954 0.0922551 0)
(0.0271857 0.0857407 0)
(0.0376819 0.0749797 0)
(0.0457902 0.0578039 0)
(0.0499672 0.0318629 0)
(0.0483593 -0.00517425 0)
(0.0391724 -0.0555137 0)
(0.020839 -0.121145 0)
(-0.00745036 -0.203806 0)
(-0.0443735 -0.303726 0)
(-0.0833893 -0.414172 0)
(-0.10692 -0.50631 0)
(-0.0937941 -0.501554 0)
(-0.0348234 -0.26837 0)
(-0.0102761 0.0742498 0)
(-0.0332591 0.149785 0)
(-0.0555265 0.178389 0)
(-0.0676496 0.182037 0)
(-0.0707947 0.174071 0)
(-0.0675338 0.161596 0)
(-0.0599001 0.148128 0)
(-0.0493553 0.135303 0)
(-0.0368901 0.123807 0)
(-0.0231418 0.11387 0)
(-0.00850446 0.105512 0)
(0.00679635 0.0986494 0)
(0.0226425 0.0931306 0)
(0.0389727 0.0887201 0)
(0.0557341 0.0850565 0)
(0.0728147 0.0815894 0)
(0.089964 0.07751 0)
(0.106701 0.0716954 0)
(0.12222 0.0626873 0)
(0.13532 0.0487274 0)
(0.144361 0.0278512 0)
(0.147227 -0.00200806 0)
(0.141697 -0.0429164 0)
(0.125346 -0.0971573 0)
(0.0958986 -0.167516 0)
(0.0519302 -0.257483 0)
(-0.00442936 -0.368239 0)
(-0.0577092 -0.483732 0)
(-0.0841058 -0.530473 0)
(-0.0411427 -0.332941 0)
(-0.0192537 0.101268 0)
(-0.0511285 0.176834 0)
(-0.0700816 0.193831 0)
(-0.0718104 0.185882 0)
(-0.0618133 0.169301 0)
(-0.0450125 0.151139 0)
(-0.0245275 0.134113 0)
(-0.00225404 0.119142 0)
(0.0206928 0.10639 0)
(0.0437026 0.0957302 0)
(0.0664739 0.0869478 0)
(0.0888934 0.0798067 0)
(0.11096 0.07406 0)
(0.132727 0.0694354 0)
(0.154249 0.0655944 0)
(0.175516 0.0620831 0)
(0.196384 0.0582786 0)
(0.216481 0.053343 0)
(0.235113 0.0461971 0)
(0.251178 0.03553 0)
(0.263085 0.0198522 0)
(0.268675 -0.00246672 0)
(0.265513 -0.03306 0)
(0.25061 -0.0740247 0)
(0.220676 -0.128238 0)
(0.172286 -0.20075 0)
(0.10288 -0.299201 0)
(0.0218715 -0.424264 0)
(-0.0539941 -0.522791 0)
(-0.0399518 -0.396529 0)
(-0.0343998 0.144815 0)
(-0.0728627 0.201274 0)
(-0.0686045 0.195757 0)
(-0.0432235 0.171801 0)
(-0.00806685 0.146145 0)
(0.0302607 0.123615 0)
(0.0684913 0.104984 0)
(0.105159 0.0898937 0)
(0.139676 0.0777655 0)
(0.17193 0.0680538 0)
(0.202047 0.0603024 0)
(0.230257 0.0541392 0)
(0.256834 0.0492503 0)
(0.282047 0.0453492 0)
(0.30612 0.0421389 0)
(0.329186 0.0392724 0)
(0.351222 0.0363146 0)
(0.371981 0.0327092 0)
(0.390895 0.0277584 0)
(0.407019 0.0206173 0)
(0.418887 0.0103062 0)
(0.424532 -0.00427834 0)
(0.421452 -0.0241591 0)
(0.40639 -0.0508481 0)
(0.375444 -0.0866107 0)
(0.324251 -0.136186 0)
(0.24638 -0.209953 0)
(0.144283 -0.325789 0)
(0.0103676 -0.465874 0)
(-0.0184672 -0.440602 0)
(-0.0374013 0.236269 0)
(-0.0468308 0.20451 0)
(0.0292702 0.15414 0)
(0.10168 0.118139 0)
(0.169029 0.0911899 0)
(0.229136 0.0712361 0)
(0.281651 0.056705 0)
(0.327312 0.0460537 0)
(0.367142 0.0381214 0)
(0.402133 0.0321377 0)
(0.433159 0.0275898 0)
(0.460965 0.0241184 0)
(0.486174 0.0214565 0)
(0.509297 0.0193885 0)
(0.53072 0.0177186 0)
(0.550694 0.016243 0)
(0.569291 0.0147264 0)
(0.586361 0.0128857 0)
(0.601456 0.0103799 0)
(0.613783 0.00682002 0)
(0.622025 0.00176103 0)
(0.62467 -0.00518018 0)
(0.619429 -0.0146667 0)
(0.603333 -0.0274168 0)
(0.57229 -0.0445145 0)
(0.522146 -0.0690106 0)
(0.442911 -0.10862 0)
(0.333348 -0.18974 0)
(0.142751 -0.336966 0)
(0.0603117 -0.413452 0)
(0.231284 0.158544 0)
(0.291649 0.117253 0)
(0.441632 0.0761146 0)
(0.540928 0.0507913 0)
(0.608282 0.0344116 0)
(0.657893 0.0235727 0)
(0.69587 0.01649 0)
(0.72556 0.0118711 0)
(0.749307 0.00881741 0)
(0.768773 0.00676353 0)
(0.785107 0.00536334 0)
(0.799118 0.00439938 0)
(0.811388 0.00372899 0)
(0.82234 0.00325275 0)
(0.832265 0.00289397 0)
(0.841327 0.00258433 0)
(0.849559 0.00225372 0)
(0.856842 0.00182443 0)
(0.862873 0.00120562 0)
(0.86715 0.000309883 0)
(0.868935 -0.00096827 0)
(0.867225 -0.00258549 0)
(0.860537 -0.00482353 0)
(0.847502 -0.00786163 0)
(0.825391 -0.0118565 0)
(0.792242 -0.0177302 0)
(0.736328 -0.0275225 0)
(0.65813 -0.0496542 0)
(0.455082 -0.110563 0)
(0.313393 -0.177783 0)
)
;

boundaryField
{
    movingWall
    {
        type            fixedValue;
        value           uniform (1 0 0);
    }
    fixedWalls
    {
        type            noSlip;
    }
    frontAndBack
    {
        type            empty;
    }
}


// ************************************************************************* //
