/*--------------------------------*- C++ -*----------------------------------*\
  =========                 |
  \\      /  F ield         | OpenFOAM: The Open Source CFD Toolbox
   \\    /   O peration     | Website:  https://openfoam.org
    \\  /    A nd           | Version:  7
     \\/     M anipulation  |
\*---------------------------------------------------------------------------*/
FoamFile
{
    version     2.0;
    format      ascii;
    class       volScalarField;
    location    "4.1";
    object      p;
}
// * * * * * * * * * * * * * * * * * * * * * * * * * * * * * * * * * * * * * //

dimensions      [0 2 -2 0 0 0 0];

internalField   nonuniform List<scalar> 
900
(
-2.5852e-09
-0.000115482
-0.000240525
-0.000339173
-0.000384233
-0.000361798
-0.000267441
-0.000101355
0.000134419
0.000437217
0.00080407
0.00123151
0.00171508
0.00224875
0.00282434
0.00343102
0.00405507
0.00467981
0.00528599
0.00585261
0.00635818
0.00678245
0.00710853
0.00732512
0.00742876
0.00742571
0.00733412
0.00718598
0.00702088
0.00690405
0.000114009
-2.99092e-06
-8.92019e-05
-0.000145777
-0.000158036
-0.000114872
-1.16911e-05
0.000152864
0.000378585
0.000664288
0.001008
0.00140681
0.00185661
0.00235159
0.00288391
0.00344333
0.00401696
0.00458967
0.00514407
0.00566156
0.00612354
0.00651294
0.00681612
0.00702479
0.00713769
0.0071617
0.00711266
0.0070162
0.00690215
0.00678667
0.000242954
8.01314e-05
-8.13085e-06
-5.50042e-05
-5.70503e-05
-6.45449e-06
9.97369e-05
0.000262444
0.000481798
0.000757255
0.00108753
0.00147037
0.00190224
0.0023779
0.00289003
0.00342888
0.00398238
0.00453563
0.00507185
0.005573
0.00602095
0.00639914
0.00669443
0.00689903
0.00701194
0.0070397
0.00699684
0.0069063
0.00678753
0.00662442
0.000347902
0.000130732
2.73559e-05
-2.18046e-05
-2.24511e-05
2.99076e-05
0.000136084
0.000295983
0.000509628
0.000776883
0.00109711
0.00146884
0.00188932
0.00235407
0.00285645
0.0033873
0.00393481
0.00448429
0.00501881
0.00551982
0.00596849
0.00634739
0.00664256
0.00684549
0.00695476
0.00697642
0.00692441
0.00682091
0.00667944
0.00646366
0.000395845
0.000127183
5.5761e-06
-5.07965e-05
-5.46274e-05
-4.05377e-06
9.97994e-05
0.000255835
0.000463925
0.000724308
0.00103705
0.00140153
0.00181593
0.00227667
0.0027779
0.00331102
0.00386442
0.00442327
0.00496988
0.00548447
0.00594647
0.0063365
0.00663867
0.00684301
0.00694718
0.00695706
0.00688701
0.00676041
0.00658899
0.00632217
0.000364043
4.93483e-05
-9.11681e-05
-0.000157453
-0.000167465
-0.000121274
-2.15532e-05
0.00012981
0.000332631
0.000587593
0.000895533
0.00125681
0.00167067
0.00213457
0.00264356
0.00318964
0.00376133
0.00434335
0.00491673
0.00545965
0.00594882
0.00636173
0.00667945
0.00688956
0.00698849
0.00698222
0.0068868
0.00672895
0.00652211
0.00620717
0.000237806
-0.000117458
-0.00027639
-0.000353828
-0.00037177
-0.00033168
-0.000237397
-9.1342e-05
0.00010641
0.000357116
0.000662514
0.00102409
0.00144233
0.00191593
0.00244101
0.00301029
0.00361246
0.0042316
0.00484704
0.00543415
0.00596588
0.00641526
0.00675894
0.00698093
0.00707579
0.00704992
0.0069223
0.00672523
0.006477
0.00611414
6.85032e-06
-0.000384863
-0.000561447
-0.000650541
-0.000677448
-0.000644675
-0.000556927
-0.000416927
-0.000224468
2.24381e-05
0.000326599
0.000690826
0.00111708
0.00160559
0.00215385
0.00275558
0.00339979
0.00407004
0.00474362
0.00539246
0.00598454
0.00648691
0.00686999
0.00711259
0.00720636
0.00715809
0.00699096
0.00674523
0.006447
0.00603084
-0.000336933
-0.000762773
-0.000956589
-0.00105774
-0.0010945
-0.00107022
-0.000990305
-0.000857627
-0.00067155
-0.000429202
-0.000126521
0.00024087
0.00067673
0.0011832
0.00175964
0.00240128
0.00309786
0.0038329
0.00458157
0.00531184
0.0059856
0.006562
0.00700283
0.00727917
0.00737787
0.00730547
0.00709036
0.00678361
0.00642224
0.00593958
-0.000800725
-0.00126008
-0.00147129
-0.00158518
-0.00163288
-0.00161863
-0.00154847
-0.00142535
-0.00124814
-0.00101296
-0.000714316
-0.000346011
9.7888e-05
0.000621953
0.0012281
0.00191381
0.00267017
0.00348243
0.00432335
0.00515702
0.00593824
0.00661612
0.00714056
0.00747115
0.00758645
0.00749084
0.00721846
0.00683437
0.00639043
0.00581761
-0.0013915
-0.00188521
-0.00211462
-0.00224233
-0.00230256
-0.00230051
-0.00224296
-0.00213304
-0.0019691
-0.00174624
-0.00145739
-0.00109431
-0.0006485
-0.000112359
0.000519404
0.00124752
0.00206524
0.00296394
0.00391255
0.00487263
0.00579175
0.00660688
0.00725194
0.0076693
0.00782332
0.00771181
0.00737374
0.00689181
0.00633766
0.00563689
-0.00211643
-0.00264657
-0.00289557
-0.00303866
-0.00311353
-0.00312661
-0.00308571
-0.00299432
-0.00285044
-0.0026482
-0.00237901
-0.00203241
-0.00159705
-0.00106174
-0.000416836
0.000344017
0.00122149
0.00220125
0.00326553
0.00437254
0.0054631
0.00646077
0.0072789
0.0078346
0.00806809
0.00796172
0.00755506
0.00695178
0.00624976
0.00536396
-0.00298305
-0.00355281
-0.00382328
-0.00398368
-0.00407575
-0.00410761
-0.00408854
-0.00402279
-0.00390835
-0.00373866
-0.00350381
-0.0031913
-0.00278687
-0.00227537
-0.001642
-0.000873958
3.63719e-05
0.00108423
0.00226047
0.00352552
0.00481888
0.00605251
0.0071155
0.00788956
0.00827505
0.00822201
0.00775949
0.00701292
0.0061145
0.00496086
-0.00399941
-0.00461312
-0.00490732
-0.00508708
-0.00519901
-0.00525364
-0.00526239
-0.00523089
-0.00515769
-0.00503614
-0.00485554
-0.00460191
-0.00425853
-0.00380649
-0.00322552
-0.00249521
-0.00159862
-0.000529569
0.000729447
0.00214007
0.00365278
0.00517612
0.00657552
0.00768656
0.00834715
0.00844546
0.00797524
0.00707669
0.00592466
0.00438737
-0.00517421
-0.00583759
-0.00615794
-0.00635876
-0.0064927
-0.00657366
-0.00661623
-0.00662831
-0.00660987
-0.00655507
-0.00645348
-0.00629077
-0.00604899
-0.00570665
-0.00523881
-0.00461735
-0.0038109
-0.00278656
-0.00154043
-4.62419e-05
0.0016646
0.00351283
0.00535064
0.00696167
0.0080932
0.00852434
0.00816482
0.00714398
0.00568197
0.00360528
-0.00651712
-0.00723784
-0.00758662
-0.00780905
-0.00796551
-0.0080747
-0.0081557
-0.00821992
-0.00826993
-0.00830199
-0.00830748
-0.00827363
-0.00818356
-0.0080158
-0.00774343
-0.00733274
-0.00674126
-0.00591761
-0.00481109
-0.00336029
-0.00154174
0.00061424
0.00297622
0.00528528
0.00717224
0.00824175
0.00823412
0.00720545
0.00540216
0.00258638
-0.00803959
-0.00882812
-0.00920693
-0.00944912
-0.00962531
-0.00976098
-0.00988154
-0.0100034
-0.0101332
-0.010271
-0.0104118
-0.0105471
-0.0106646
-0.0107469
-0.0107701
-0.0106998
-0.0104862
-0.0100566
-0.00931133
-0.00813528
-0.00640783
-0.00406046
-0.00115432
0.00204732
0.00505271
0.00721973
0.00799068
0.00722497
0.00512296
0.00132859
-0.00975629
-0.0106272
-0.0110361
-0.0112918
-0.0114791
-0.011633
-0.0117879
-0.0119667
-0.0121819
-0.0124386
-0.0127383
-0.0130795
-0.0134586
-0.0138682
-0.0142943
-0.0147101
-0.0150656
-0.0152727
-0.015187
-0.0146003
-0.0132876
-0.0110039
-0.00766198
-0.00345224
0.00105018
0.00490927
0.0071149
0.00712368
0.00491999
-0.000109894
-0.0116878
-0.0126618
-0.0130973
-0.0133527
-0.0135329
-0.0136869
-0.0138605
-0.0140855
-0.0143812
-0.0147597
-0.0152305
-0.0158025
-0.016485
-0.0172866
-0.0182113
-0.0192497
-0.0203629
-0.0214567
-0.0223498
-0.0227454
-0.022235
-0.0203989
-0.0168978
-0.0117362
-0.00546774
0.000706111
0.00519899
0.00679206
0.00494032
-0.00154144
-0.0138656
-0.0149718
-0.0154241
-0.0156524
-0.0157925
-0.0159131
-0.0160753
-0.0163212
-0.0166777
-0.0171647
-0.0178008
-0.0186075
-0.0196104
-0.020839
-0.0223223
-0.0240773
-0.0260866
-0.0282617
-0.0303942
-0.0321009
-0.0327925
-0.0318453
-0.0285948
-0.0227481
-0.0146856
-0.00573649
0.00193475
0.00618204
0.00546891
-0.00252422
-0.0163403
-0.0176193
-0.0180653
-0.0182186
-0.0182628
-0.0182953
-0.0183964
-0.0186194
-0.0189982
-0.0195599
-0.0203322
-0.0213495
-0.0226551
-0.0243019
-0.0263471
-0.0288387
-0.0317868
-0.0351161
-0.0386008
-0.0417885
-0.0439441
-0.0442232
-0.0416316
-0.0355083
-0.0259099
-0.0140632
-0.00252745
0.00552613
0.00704758
-0.0021654
-0.0191986
-0.0207032
-0.0210939
-0.0210881
-0.0209468
-0.0208078
-0.020774
-0.0209088
-0.021251
-0.0218319
-0.0226866
-0.0238609
-0.0254146
-0.0274224
-0.0299682
-0.033129
-0.0369401
-0.0413391
-0.0460873
-0.0506913
-0.0543501
-0.0558765
-0.0541397
-0.0480905
-0.037368
-0.0228586
-0.00716983
0.0056676
0.0106664
0.00113795
-0.0225961
-0.0243837
-0.0246169
-0.0243071
-0.0238407
-0.0234095
-0.0231395
-0.0230993
-0.0233271
-0.023854
-0.0247182
-0.0259731
-0.0276915
-0.0299651
-0.0328978
-0.0365864
-0.041081
-0.0463222
-0.052055
-0.0577404
-0.0624939
-0.0650606
-0.0640398
-0.0581144
-0.0465305
-0.0297043
-0.00992073
0.008348
0.018029
0.00996057
-0.0268285
-0.0289214
-0.0287861
-0.0279253
-0.0269222
-0.0260325
-0.0253964
-0.0250768
-0.025101
-0.0254924
-0.0262865
-0.027539
-0.0293294
-0.0317593
-0.0349424
-0.0389816
-0.043925
-0.049699
-0.0560214
-0.0623096
-0.0676146
-0.0706197
-0.0697641
-0.0635444
-0.0508972
-0.031784
-0.00794273
0.0162547
0.0318411
0.0280072
-0.0324882
-0.0347379
-0.0338
-0.0319739
-0.0301243
-0.0285577
-0.0274013
-0.0266892
-0.0264223
-0.0266051
-0.0272623
-0.0284448
-0.0302316
-0.0327244
-0.0360344
-0.0402559
-0.0454168
-0.0514117
-0.0579127
-0.0642766
-0.0694861
-0.0721619
-0.0706331
-0.0632769
-0.0487921
-0.0267668
0.00161528
0.0327065
0.0559175
0.0599849
-0.0408367
-0.0424985
-0.0398605
-0.0364005
-0.0332725
-0.03076
-0.0289163
-0.0277082
-0.0270857
-0.0270189
-0.0275106
-0.0285967
-0.0303477
-0.0328539
-0.0362113
-0.0404888
-0.0456768
-0.0516184
-0.0579219
-0.063873
-0.0683771
-0.0699684
-0.066862
-0.0572803
-0.039721
-0.0135096
0.0207102
0.0607246
0.0945057
0.111175
-0.0549073
-0.0532415
-0.0470538
-0.0409312
-0.0359582
-0.0321988
-0.0295195
-0.0277605
-0.026782
-0.0264949
-0.0268638
-0.027899
-0.0296482
-0.0321806
-0.0355641
-0.0398289
-0.0449137
-0.0505958
-0.056408
-0.0615558
-0.0648628
-0.0647507
-0.059295
-0.0464883
-0.0245448
0.0076448
0.0500007
0.101313
0.150187
0.188682
-0.0824507
-0.0681007
-0.0552703
-0.0449722
-0.0374356
-0.0321703
-0.028617
-0.026384
-0.0251799
-0.02482
-0.0252093
-0.0263201
-0.0281702
-0.0308001
-0.034243
-0.0384838
-0.0434041
-0.0487117
-0.0538604
-0.0579689
-0.059782
-0.0576278
-0.0494846
-0.0329651
-0.00581581
0.033877
0.0870342
0.153786
0.224067
0.306659
-0.134816
-0.083376
-0.0621799
-0.0460398
-0.0354707
-0.0289371
-0.0249946
-0.0227663
-0.0217478
-0.0216539
-0.0223359
-0.0237341
-0.0258439
-0.0286837
-0.0322596
-0.0365216
-0.0413089
-0.0462824
-0.0508504
-0.0540823
-0.0546489
-0.0507371
-0.0404091
-0.020923
0.0106523
0.0576771
0.123391
0.212582
0.321389
0.491636
-0.307096
-0.0929177
-0.0446317
-0.0271707
-0.0180523
-0.0137752
-0.0123375
-0.0123288
-0.0130916
-0.0143964
-0.0161785
-0.0184415
-0.0212243
-0.0245741
-0.0285136
-0.0330005
-0.0378767
-0.0428063
-0.0472091
-0.0501941
-0.0505295
-0.0466208
-0.0360393
-0.0162327
0.0159748
0.0654107
0.138937
0.254102
0.429924
0.774156
)
;

boundaryField
{
    movingWall
    {
        type            zeroGradient;
    }
    fixedWalls
    {
        type            zeroGradient;
    }
    frontAndBack
    {
        type            empty;
    }
}


// ************************************************************************* //
