/*--------------------------------*- C++ -*----------------------------------*\
  =========                 |
  \\      /  F ield         | OpenFOAM: The Open Source CFD Toolbox
   \\    /   O peration     | Website:  https://openfoam.org
    \\  /    A nd           | Version:  7
     \\/     M anipulation  |
\*---------------------------------------------------------------------------*/
FoamFile
{
    version     2.0;
    format      ascii;
    class       volVectorField;
    location    "4.1";
    object      U;
}
// * * * * * * * * * * * * * * * * * * * * * * * * * * * * * * * * * * * * * //

dimensions      [0 1 -1 0 0 0 0];

internalField   nonuniform List<vector> 
900
(
(6.08693e-05 -6.01344e-05 0)
(2.99678e-05 1.14548e-05 0)
(-0.000268406 9.52878e-05 0)
(-0.00076665 0.000155721 0)
(-0.0014048 0.000191827 0)
(-0.00212607 0.000209159 0)
(-0.00288414 0.000213872 0)
(-0.00364524 0.000210611 0)
(-0.00438529 0.000202177 0)
(-0.00508619 0.000189911 0)
(-0.00573276 0.000174154 0)
(-0.00631061 0.000154637 0)
(-0.00680491 0.000130801 0)
(-0.00719979 0.000102038 0)
(-0.00747858 6.79071e-05 0)
(-0.00762449 2.83152e-05 0)
(-0.00762197 -1.6303e-05 0)
(-0.00745835 -6.49256e-05 0)
(-0.00712607 -0.00011568 0)
(-0.00662498 -0.000165881 0)
(-0.00596468 -0.000212072 0)
(-0.00516642 -0.000250194 0)
(-0.00426432 -0.000275872 0)
(-0.00330546 -0.000284765 0)
(-0.00234864 -0.00027289 0)
(-0.00146189 -0.000236943 0)
(-0.000717659 -0.000175046 0)
(-0.000182054 -8.93031e-05 0)
(8.82819e-05 7.01349e-06 0)
(7.51851e-05 7.42515e-05 0)
(-9.67199e-06 -3.14123e-05 0)
(-0.000360818 0.000358908 0)
(-0.00127438 0.000764063 0)
(-0.00259467 0.00107454 0)
(-0.00421226 0.00127768 0)
(-0.0060181 0.00138741 0)
(-0.00791309 0.0014247 0)
(-0.00981767 0.00140846 0)
(-0.0116699 0.00135219 0)
(-0.0134201 0.00126391 0)
(-0.0150264 0.00114724 0)
(-0.0164498 0.00100277 0)
(-0.0176526 0.000829474 0)
(-0.0185964 0.00062601 0)
(-0.0192428 0.000391854 0)
(-0.019555 0.000128301 0)
(-0.0195003 -0.000160713 0)
(-0.0190541 -0.000467529 0)
(-0.0182042 -0.000780563 0)
(-0.0169556 -0.00108405 0)
(-0.0153355 -0.00135841 0)
(-0.0133968 -0.00158129 0)
(-0.0112203 -0.0017293 0)
(-0.00891375 -0.00178023 0)
(-0.00660865 -0.0017156 0)
(-0.00445254 -0.00152372 0)
(-0.00259668 -0.00120423 0)
(-0.0011736 -0.000776725 0)
(-0.000277935 -0.000297937 0)
(1.44166e-05 8.86047e-05 0)
(-9.80783e-05 0.00026979 0)
(-0.000797945 0.00128015 0)
(-0.00230824 0.00223665 0)
(-0.0043521 0.00297803 0)
(-0.00678053 0.00347678 0)
(-0.00945405 0.00375474 0)
(-0.0122415 0.00385143 0)
(-0.0150337 0.00380615 0)
(-0.0177424 0.00364957 0)
(-0.0202949 0.00340171 0)
(-0.0226288 0.00307312 0)
(-0.0246868 0.00266751 0)
(-0.026414 0.00218475 0)
(-0.027756 0.00162387 0)
(-0.0286597 0.000985841 0)
(-0.0290751 0.000276046 0)
(-0.028959 -0.000493532 0)
(-0.0282797 -0.0013022 0)
(-0.0270236 -0.00211974 0)
(-0.0252009 -0.00290601 0)
(-0.0228525 -0.003612 0)
(-0.0200539 -0.00418257 0)
(-0.0169185 -0.00456084 0)
(-0.0135956 -0.00469412 0)
(-0.0102644 -0.00454098 0)
(-0.00712378 -0.0040795 0)
(-0.00437407 -0.00331776 0)
(-0.0021866 -0.00230844 0)
(-0.000690065 -0.0011701 0)
(-6.41978e-05 -0.000153269 0)
(-0.000170827 0.000799847 0)
(-0.00118239 0.00267211 0)
(-0.00323361 0.00431892 0)
(-0.00591459 0.00557672 0)
(-0.00903309 0.00642186 0)
(-0.0124244 0.00689175 0)
(-0.015935 0.00704794 0)
(-0.0194361 0.00695237 0)
(-0.0228224 0.0066549 0)
(-0.0260059 0.00618942 0)
(-0.0289099 0.00557507 0)
(-0.0314642 0.00481994 0)
(-0.0336016 0.00392583 0)
(-0.0352559 0.00289315 0)
(-0.0363629 0.0017256 0)
(-0.0368626 0.00043442 0)
(-0.0367029 -0.000957712 0)
(-0.0358459 -0.00241372 0)
(-0.0342753 -0.00387986 0)
(-0.0320036 -0.00528547 0)
(-0.0290801 -0.00654494 0)
(-0.0255964 -0.00756256 0)
(-0.02169 -0.00824045 0)
(-0.0175415 -0.00848926 0)
(-0.0133675 -0.0082409 0)
(-0.00940687 -0.00746267 0)
(-0.00589969 -0.00617297 0)
(-0.00305162 -0.00445909 0)
(-0.001031 -0.00249771 0)
(-0.00012378 -0.00060734 0)
(-0.000226096 0.00152152 0)
(-0.00150041 0.00447867 0)
(-0.00402332 0.00693897 0)
(-0.00725925 0.00877789 0)
(-0.0109716 0.00999927 0)
(-0.0149711 0.0106682 0)
(-0.0190859 0.0108741 0)
(-0.0231734 0.0107044 0)
(-0.0271174 0.0102299 0)
(-0.0308204 0.0094994 0)
(-0.0341968 0.00854124 0)
(-0.0371678 0.00736838 0)
(-0.0396571 0.00598485 0)
(-0.0415897 0.00439264 0)
(-0.0428916 0.00259845 0)
(-0.0434928 0.000619987 0)
(-0.0433315 -0.00150835 0)
(-0.0423608 -0.00373073 0)
(-0.0405576 -0.00596649 0)
(-0.0379313 -0.00810956 0)
(-0.0345343 -0.0100314 0)
(-0.0304686 -0.0115885 0)
(-0.025891 -0.0126343 0)
(-0.0210106 -0.0130362 0)
(-0.01608 -0.0126948 0)
(-0.0113789 -0.0115647 0)
(-0.00718965 -0.00967461 0)
(-0.00375602 -0.00714538 0)
(-0.00128727 -0.00420471 0)
(-0.000160011 -0.00121778 0)
(-0.000267702 0.00239862 0)
(-0.00176032 0.00664139 0)
(-0.00468941 0.0100319 0)
(-0.00840889 0.0125118 0)
(-0.0126396 0.0141337 0)
(-0.0171682 0.0150038 0)
(-0.0218061 0.0152473 0)
(-0.0264006 0.0149815 0)
(-0.0308288 0.0143001 0)
(-0.0349878 0.0132676 0)
(-0.0387872 0.0119221 0)
(-0.0421426 0.0102808 0)
(-0.0449718 0.00834927 0)
(-0.0471916 0.00613017 0)
(-0.0487185 0.0036321 0)
(-0.0494708 0.000878322 0)
(-0.0493736 -0.00208532 0)
(-0.0483659 -0.00518343 0)
(-0.0464111 -0.00830593 0)
(-0.0435088 -0.0113068 0)
(-0.0397068 -0.0140076 0)
(-0.0351124 -0.0162078 0)
(-0.0298991 -0.0177021 0)
(-0.0243056 -0.0183047 0)
(-0.0186263 -0.0178773 0)
(-0.0131909 -0.0163577 0)
(-0.00833418 -0.0137846 0)
(-0.00434689 -0.0103149 0)
(-0.00147955 -0.00622888 0)
(-0.000178492 -0.00194137 0)
(-0.00030029 0.00340183 0)
(-0.00197751 0.0091068 0)
(-0.00526038 0.0135357 0)
(-0.00940787 0.016714 0)
(-0.0141017 0.0187598 0)
(-0.0191053 0.0198336 0)
(-0.0242152 0.0201051 0)
(-0.0292708 0.0197266 0)
(-0.0341454 0.0188173 0)
(-0.038734 0.0174587 0)
(-0.0429447 0.0156979 0)
(-0.0466905 0.0135557 0)
(-0.0498844 0.0110375 0)
(-0.0524363 0.00814393 0)
(-0.0542521 0.00488305 0)
(-0.0552357 0.00128093 0)
(-0.055294 -0.00260725 0)
(-0.0543451 -0.00668754 0)
(-0.0523302 -0.0108191 0)
(-0.0492288 -0.0148113 0)
(-0.0450751 -0.0184279 0)
(-0.0399743 -0.0213992 0)
(-0.0341136 -0.0234466 0)
(-0.0277651 -0.0243158 0)
(-0.021275 -0.0238171 0)
(-0.0150392 -0.0218647 0)
(-0.00946277 -0.0185081 0)
(-0.00489758 -0.0139485 0)
(-0.00163891 -0.0085331 0)
(-0.000186035 -0.00274801 0)
(-0.000327715 0.00451162 0)
(-0.00216765 0.0118364 0)
(-0.00576857 0.0174048 0)
(-0.0103065 0.0213379 0)
(-0.0154277 0.023833 0)
(-0.0208737 0.0251166 0)
(-0.0264281 0.0254119 0)
(-0.0319243 0.0249118 0)
(-0.0372342 0.0237643 0)
(-0.0422541 0.0220689 0)
(-0.0468931 0.0198814 0)
(-0.0510642 0.0172245 0)
(-0.0546778 0.0141002 0)
(-0.0576373 0.0105041 0)
(-0.0598369 0.00643868 0)
(-0.0611631 0.00192819 0)
(-0.0614993 -0.00296741 0)
(-0.0607337 -0.00813894 0)
(-0.058774 -0.013415 0)
(-0.0555667 -0.0185568 0)
(-0.0511185 -0.0232604 0)
(-0.045521 -0.0271715 0)
(-0.0389696 -0.0299171 0)
(-0.0317724 -0.0311514 0)
(-0.0243409 -0.0306128 0)
(-0.0171602 -0.0281803 0)
(-0.0107329 -0.0239162 0)
(-0.00549532 -0.0180817 0)
(-0.00179834 -0.0111193 0)
(-0.000188012 -0.00362532 0)
(-0.000352754 0.00571703 0)
(-0.00234401 0.014807 0)
(-0.00624367 0.0216119 0)
(-0.011152 0.0263563 0)
(-0.0166822 0.0293287 0)
(-0.022556 0.0308329 0)
(-0.0285454 0.0311542 0)
(-0.03448 0.0305324 0)
(-0.0402333 0.0291478 0)
(-0.0457055 0.0271193 0)
(-0.0508099 0.0245109 0)
(-0.0554629 0.0213448 0)
(-0.0595745 0.0176163 0)
(-0.063043 0.0133103 0)
(-0.0657511 0.00841784 0)
(-0.0675654 0.00295368 0)
(-0.06834 -0.00302495 0)
(-0.0679238 -0.0094006 0)
(-0.0661769 -0.0159744 0)
(-0.0629949 -0.0224573 0)
(-0.0583375 -0.0284677 0)
(-0.0522635 -0.0335473 0)
(-0.0449637 -0.0371996 0)
(-0.0367807 -0.0389527 0)
(-0.0282064 -0.0384403 0)
(-0.019845 -0.0354853 0)
(-0.0123379 -0.0301628 0)
(-0.00624401 -0.0228192 0)
(-0.0019935 -0.0140362 0)
(-0.000188612 -0.00457887 0)
(-0.000377317 0.00701378 0)
(-0.00251702 0.0180092 0)
(-0.00671033 0.0261453 0)
(-0.0119839 0.0317582 0)
(-0.0179194 0.0352385 0)
(-0.0242198 0.0369783 0)
(-0.0306473 0.0373339 0)
(-0.0370301 0.0365989 0)
(-0.0432461 0.03499 0)
(-0.0492028 0.0326469 0)
(-0.0548221 0.0296416 0)
(-0.0600271 0.0259933 0)
(-0.064732 0.0216865 0)
(-0.0688331 0.0166891 0)
(-0.0722031 0.0109718 0)
(-0.0746879 0.00452983 0)
(-0.0761087 -0.00259388 0)
(-0.0762649 -0.0102853 0)
(-0.0749519 -0.0183264 0)
(-0.0719922 -0.0263802 0)
(-0.0672697 -0.0339796 0)
(-0.0607802 -0.0405394 0)
(-0.0526844 -0.0454012 0)
(-0.0433487 -0.0479163 0)
(-0.0333568 -0.0475611 0)
(-0.0234711 -0.0440644 0)
(-0.0145302 -0.0375073 0)
(-0.00727783 -0.0283539 0)
(-0.00226843 -0.0173904 0)
(-0.000192101 -0.00563377 0)
(-0.000402694 0.00840251 0)
(-0.00269459 0.0214439 0)
(-0.00718791 0.0310065 0)
(-0.0128338 0.0375459 0)
(-0.0191817 0.0415661 0)
(-0.0259165 0.0435588 0)
(-0.0327921 0.0439618 0)
(-0.0396379 0.0431296 0)
(-0.0463395 0.0413202 0)
(-0.0528163 0.0386962 0)
(-0.0590032 0.0353375 0)
(-0.0648362 0.0312586 0)
(-0.070239 0.0264283 0)
(-0.0751121 0.0207903 0)
(-0.0793231 0.0142848 0)
(-0.0826994 0.00687292 0)
(-0.0850282 -0.00143378 0)
(-0.0860505 -0.0105363 0)
(-0.0854793 -0.0202216 0)
(-0.0830355 -0.0301141 0)
(-0.0784881 -0.0396578 0)
(-0.0717244 -0.0481178 0)
(-0.0628309 -0.0546262 0)
(-0.0521695 -0.0582852 0)
(-0.0404177 -0.0583316 0)
(-0.0285394 -0.0543312 0)
(-0.0176524 -0.0463466 0)
(-0.00878097 -0.0349974 0)
(-0.00268376 -0.0213657 0)
(-0.000204342 -0.00684047 0)
(-0.000429776 0.00988748 0)
(-0.00288274 0.0251207 0)
(-0.0076915 0.0362073 0)
(-0.0137257 0.0437311 0)
(-0.0205002 0.0483225 0)
(-0.0276816 0.050586 0)
(-0.0350168 0.0510518 0)
(-0.0423388 0.0501439 0)
(-0.0495451 0.048167 0)
(-0.0565718 0.0453103 0)
(-0.0633731 0.0416625 0)
(-0.0699051 0.0372318 0)
(-0.0761095 0.0319675 0)
(-0.0819003 0.0257817 0)
(-0.0871495 0.0185724 0)
(-0.0916737 0.0102499 0)
(-0.0952221 0.000772706 0)
(-0.0974787 -0.00980669 0)
(-0.098062 -0.0213055 0)
(-0.0965519 -0.0333328 0)
(-0.0925543 -0.0452537 0)
(-0.0857849 -0.0561667 0)
(-0.0761883 -0.0649387 0)
(-0.0640657 -0.070327 0)
(-0.0501689 -0.0712036 0)
(-0.0357021 -0.0668529 0)
(-0.0221661 -0.0572562 0)
(-0.0110086 -0.0432222 0)
(-0.00332559 -0.0262541 0)
(-0.000234287 -0.00828557 0)
(-0.000459278 0.0114758 0)
(-0.00308658 0.0290557 0)
(-0.00823376 0.0417671 0)
(-0.014679 0.0503321 0)
(-0.0218983 0.055523 0)
(-0.0295385 0.0580719 0)
(-0.0373405 0.0586145 0)
(-0.0451438 0.0576544 0)
(-0.0528617 0.0555502 0)
(-0.0604526 0.052522 0)
(-0.0678975 0.0486697 0)
(-0.0751811 0.0439953 0)
(-0.0822744 0.038426 0)
(-0.0891171 0.031836 0)
(-0.0955989 0.0240686 0)
(-0.101538 0.0149646 0)
(-0.10666 0.00440066 0)
(-0.110591 -0.00766057 0)
(-0.112836 -0.0211047 0)
(-0.112808 -0.035568 0)
(-0.109894 -0.0503671 0)
(-0.10356 -0.0644308 0)
(-0.0935138 -0.0763062 0)
(-0.0799038 -0.0842863 0)
(-0.0634974 -0.0867011 0)
(-0.0457521 -0.0823599 0)
(-0.028665 -0.0710292 0)
(-0.014303 -0.053712 0)
(-0.00431322 -0.0324951 0)
(-0.000295225 -0.0101071 0)
(-0.000491997 0.0131771 0)
(-0.00331151 0.0332714 0)
(-0.00882756 0.0477117 0)
(-0.0157121 0.0573716 0)
(-0.0233959 0.0631828 0)
(-0.0315035 0.0660237 0)
(-0.0397699 0.0666511 0)
(-0.0480441 0.0656599 0)
(-0.0562595 0.063471 0)
(-0.0644027 0.0603415 0)
(-0.0724886 0.0563868 0)
(-0.0805406 0.0516052 0)
(-0.0885711 0.0459015 0)
(-0.0965611 0.039107 0)
(-0.104436 0.0309993 0)
(-0.112034 0.0213275 0)
(-0.119075 0.0098499 0)
(-0.125137 -0.00360598 0)
(-0.12961 -0.0190418 0)
(-0.131713 -0.0362066 0)
(-0.130569 -0.0544204 0)
(-0.125309 -0.0724638 0)
(-0.11529 -0.0885235 0)
(-0.10038 -0.100298 0)
(-0.0812427 -0.105347 0)
(-0.0595402 -0.101712 0)
(-0.0378502 -0.0886909 0)
(-0.0190976 -0.0674091 0)
(-0.00580481 -0.0407221 0)
(-0.000405851 -0.0125137 0)
(-0.000529129 0.0150044 0)
(-0.00356484 0.0377968 0)
(-0.00948927 0.0540737 0)
(-0.0168473 0.0648749 0)
(-0.0250153 0.0713148 0)
(-0.0335916 0.0744402 0)
(-0.0423056 0.0751476 0)
(-0.0510179 0.0741368 0)
(-0.0596862 0.0719014 0)
(-0.0683304 0.0687432 0)
(-0.0770064 0.064799 0)
(-0.085785 0.0600688 0)
(-0.0947323 0.0544377 0)
(-0.103886 0.0476931 0)
(-0.113228 0.039538 0)
(-0.122642 0.0296094 0)
(-0.131866 0.0175122 0)
(-0.140432 0.00288381 0)
(-0.147647 -0.0144871 0)
(-0.152549 -0.0345353 0)
(-0.153945 -0.056674 0)
(-0.150573 -0.079597 0)
(-0.141334 -0.101126 0)
(-0.125651 -0.118253 0)
(-0.103898 -0.127511 0)
(-0.0777827 -0.12578 0)
(-0.0504475 -0.111454 0)
(-0.025903 -0.0855361 0)
(-0.00800171 -0.0518066 0)
(-0.000592047 -0.015806 0)
(-0.000572699 0.0169751 0)
(-0.00385776 0.0426709 0)
(-0.010243 0.0608938 0)
(-0.0181166 0.0728704 0)
(-0.0267876 0.0799271 0)
(-0.0358238 0.0833071 0)
(-0.0449486 0.0840681 0)
(-0.0540365 0.0830311 0)
(-0.0630728 0.0807733 0)
(-0.0721143 0.07765 0)
(-0.0812622 0.0738277 0)
(-0.090641 0.0693151 0)
(-0.100379 0.0639845 0)
(-0.110584 0.0575823 0)
(-0.12131 0.0497325 0)
(-0.132507 0.0399437 0)
(-0.143961 0.0276336 0)
(-0.155213 0.0121904 0)
(-0.1655 -0.00690788 0)
(-0.173697 -0.029865 0)
(-0.178337 -0.0563103 0)
(-0.177751 -0.0849562 0)
(-0.170309 -0.113315 0)
(-0.154837 -0.137625 0)
(-0.131164 -0.15317 0)
(-0.100735 -0.155203 0)
(-0.0670373 -0.14056 0)
(-0.0352642 -0.10956 0)
(-0.0111539 -0.066891 0)
(-0.000891346 -0.0204016 0)
(-0.000626194 0.0191145 0)
(-0.00420821 0.0479468 0)
(-0.0111259 0.0682251 0)
(-0.0195683 0.0813908 0)
(-0.0287607 0.0890218 0)
(-0.0382348 0.0925929 0)
(-0.0477081 0.093349 0)
(-0.0570716 0.0922493 0)
(-0.0663404 0.0899661 0)
(-0.0756094 0.086917 0)
(-0.0850254 0.0833067 0)
(-0.094767 0.079162 0)
(-0.105026 0.0743515 0)
(-0.115986 0.0685876 0)
(-0.127781 0.0614169 0)
(-0.140448 0.0522095 0)
(-0.153847 0.0401672 0)
(-0.167572 0.0243781 0)
(-0.180848 0.00395135 0)
(-0.192467 -0.0217197 0)
(-0.200781 -0.0525958 0)
(-0.20378 -0.0875544 0)
(-0.199323 -0.123937 0)
(-0.185539 -0.157302 0)
(-0.161436 -0.18159 0)
(-0.127739 -0.190003 0)
(-0.0877678 -0.17696 0)
(-0.0476663 -0.141045 0)
(-0.0155656 -0.0873922 0)
(-0.0013626 -0.0268662 0)
(-0.000695586 0.0214602 0)
(-0.00464493 0.0537003 0)
(-0.012196 0.0761389 0)
(-0.0212763 0.090475 0)
(-0.0310073 0.0985932 0)
(-0.0408794 0.102245 0)
(-0.0506068 0.102892 0)
(-0.0601001 0.101649 0)
(-0.0694054 0.0992955 0)
(-0.0786544 0.0963164 0)
(-0.0880342 0.092962 0)
(-0.09777 0.0892862 0)
(-0.108109 0.0851642 0)
(-0.119301 0.0802855 0)
(-0.131561 0.0741269 0)
(-0.145015 0.0659213 0)
(-0.159623 0.0546448 0)
(-0.175076 0.0390597 0)
(-0.190682 0.0178579 0)
(-0.205265 -0.0100537 0)
(-0.217151 -0.0451013 0)
(-0.224185 -0.0864688 0)
(-0.223847 -0.131563 0)
(-0.213588 -0.175509 0)
(-0.191388 -0.211045 0)
(-0.156725 -0.22911 0)
(-0.111935 -0.2208 0)
(-0.0633422 -0.181341 0)
(-0.0215902 -0.114943 0)
(-0.00210265 -0.0359525 0)
(-0.00079116 0.0240697 0)
(-0.00521398 0.0600417 0)
(-0.013542 0.0847327 0)
(-0.0233507 0.10017 0)
(-0.0336332 0.108624 0)
(-0.0438382 0.11218 0)
(-0.0536826 0.112554 0)
(-0.0631034 0.111032 0)
(-0.0721795 0.108503 0)
(-0.0810744 0.105526 0)
(-0.0900054 0.102398 0)
(-0.0992289 0.099205 0)
(-0.109028 0.0958395 0)
(-0.119699 0.0919798 0)
(-0.131517 0.0870479 0)
(-0.144691 0.0801552 0)
(-0.159292 0.0700669 0)
(-0.175152 0.0552297 0)
(-0.19176 0.0339159 0)
(-0.208148 0.00452677 0)
(-0.222808 -0.0339181 0)
(-0.233698 -0.0810692 0)
(-0.238223 -0.134694 0)
(-0.233334 -0.189909 0)
(-0.215952 -0.238704 0)
(-0.183881 -0.269945 0)
(-0.137501 -0.270771 0)
(-0.0819396 -0.231013 0)
(-0.0295865 -0.151206 0)
(-0.00327 -0.0486413 0)
(-0.000931102 0.0270337 0)
(-0.0059896 0.0671333 0)
(-0.0152988 0.0941408 0)
(-0.0259505 0.110532 0)
(-0.0367843 0.119078 0)
(-0.0472159 0.122279 0)
(-0.0569809 0.122139 0)
(-0.066055 0.120129 0)
(-0.0745543 0.117249 0)
(-0.082669 0.114124 0)
(-0.0906332 0.111095 0)
(-0.0987134 0.108281 0)
(-0.107202 0.105596 0)
(-0.116409 0.10272 0)
(-0.126643 0.099039 0)
(-0.138173 0.0935764 0)
(-0.151178 0.0849306 0)
(-0.16567 0.0712888 0)
(-0.181406 0.0505639 0)
(-0.19778 0.0207024 0)
(-0.213673 -0.0198167 0)
(-0.227474 -0.0712963 0)
(-0.236872 -0.132137 0)
(-0.238677 -0.197994 0)
(-0.228992 -0.260878 0)
(-0.203834 -0.308321 0)
(-0.160811 -0.323529 0)
(-0.10209 -0.289052 0)
(-0.0398001 -0.197466 0)
(-0.00511142 -0.0661636 0)
(-0.00114899 0.0304974 0)
(-0.00709383 0.0752157 0)
(-0.0176708 0.104544 0)
(-0.0292995 0.121615 0)
(-0.0406485 0.129882 0)
(-0.0511283 0.132356 0)
(-0.0605266 0.131371 0)
(-0.0688813 0.128587 0)
(-0.0763558 0.125102 0)
(-0.0831654 0.121591 0)
(-0.089549 0.118428 0)
(-0.0957624 0.115758 0)
(-0.10208 0.113515 0)
(-0.108793 0.111388 0)
(-0.116209 0.108758 0)
(-0.124631 0.104601 0)
(-0.134333 0.0974214 0)
(-0.145518 0.0852475 0)
(-0.158263 0.0657536 0)
(-0.17243 0.0365598 0)
(-0.187501 -0.00431583 0)
(-0.202548 -0.0579428 0)
(-0.215877 -0.123516 0)
(-0.224663 -0.197794 0)
(-0.224717 -0.273773 0)
(-0.210608 -0.338935 0)
(-0.176865 -0.373571 0)
(-0.121098 -0.352061 0)
(-0.0521445 -0.253928 0)
(-0.00797906 -0.0899651 0)
(-0.0015101 0.0347014 0)
(-0.00873291 0.0846443 0)
(-0.0209679 0.116174 0)
(-0.0337022 0.133456 0)
(-0.0454416 0.140889 0)
(-0.055659 0.142125 0)
(-0.0642545 0.139863 0)
(-0.0713693 0.135938 0)
(-0.0772349 0.13152 0)
(-0.0820977 0.12731 0)
(-0.086197 0.12369 0)
(-0.089766 0.120816 0)
(-0.093041 0.118633 0)
(-0.096273 0.116852 0)
(-0.0997381 0.114867 0)
(-0.103747 0.111665 0)
(-0.108648 0.105743 0)
(-0.114823 0.0950936 0)
(-0.122661 0.0773057 0)
(-0.132517 0.0498282 0)
(-0.144636 0.0103576 0)
(-0.158844 -0.042734 0)
(-0.174283 -0.109658 0)
(-0.189039 -0.18865 0)
(-0.199344 -0.274597 0)
(-0.199136 -0.356546 0)
(-0.180306 -0.413945 0)
(-0.135072 -0.413951 0)
(-0.0658849 -0.318831 0)
(-0.0122998 -0.121563 0)
(-0.00214724 0.0400569 0)
(-0.0112658 0.0959401 0)
(-0.0256565 0.129301 0)
(-0.0395454 0.146007 0)
(-0.0513526 0.1518 0)
(-0.0607489 0.151118 0)
(-0.0678504 0.147041 0)
(-0.0729654 0.141543 0)
(-0.0764299 0.135818 0)
(-0.0785403 0.130553 0)
(-0.0795452 0.126108 0)
(-0.0796568 0.122626 0)
(-0.0790706 0.120055 0)
(-0.0779871 0.118125 0)
(-0.0766386 0.116268 0)
(-0.0753221 0.113532 0)
(-0.0744335 0.108495 0)
(-0.0744961 0.0992389 0)
(-0.0761724 0.0834267 0)
(-0.0802514 0.0585088 0)
(-0.0875868 0.0220443 0)
(-0.0988441 -0.027906 0)
(-0.114189 -0.0925334 0)
(-0.132827 -0.171621 0)
(-0.152137 -0.26253 0)
(-0.166594 -0.35742 0)
(-0.166696 -0.437733 0)
(-0.13958 -0.466578 0)
(-0.0793088 -0.387701 0)
(-0.0184214 -0.162233 0)
(-0.00333775 0.047295 0)
(-0.0153285 0.109846 0)
(-0.0324162 0.144165 0)
(-0.0472417 0.159007 0)
(-0.0583681 0.162011 0)
(-0.065917 0.158541 0)
(-0.0703828 0.152019 0)
(-0.0723347 0.144482 0)
(-0.0722667 0.13708 0)
(-0.0705591 0.130427 0)
(-0.0674926 0.124826 0)
(-0.0632749 0.120377 0)
(-0.0580716 0.117014 0)
(-0.0520384 0.11448 0)
(-0.0453614 0.112261 0)
(-0.0383082 0.109506 0)
(-0.0312879 0.104944 0)
(-0.0249072 0.0968536 0)
(-0.0200115 0.0831095 0)
(-0.0176994 0.0613309 0)
(-0.0192814 0.0291258 0)
(-0.0261186 -0.0156376 0)
(-0.0392948 -0.0747277 0)
(-0.059233 -0.149226 0)
(-0.0849485 -0.239001 0)
(-0.112631 -0.340346 0)
(-0.133269 -0.43966 0)
(-0.130413 -0.501147 0)
(-0.0895242 -0.453148 0)
(-0.0262435 -0.212408 0)
(-0.00565982 0.0577692 0)
(-0.0220375 0.127356 0)
(-0.0421239 0.16076 0)
(-0.0569386 0.171678 0)
(-0.0657379 0.170311 0)
(-0.0695291 0.162996 0)
(-0.0694236 0.15336 0)
(-0.0663748 0.143364 0)
(-0.0611024 0.134008 0)
(-0.05411 0.125768 0)
(-0.0457368 0.118835 0)
(-0.0362031 0.113233 0)
(-0.0256572 0.108861 0)
(-0.0142185 0.105462 0)
(-0.00202501 0.102578 0)
(0.0107024 0.0994776 0)
(0.0235822 0.0950849 0)
(0.0359955 0.0879433 0)
(0.0470213 0.0762342 0)
(0.0554013 0.0578731 0)
(0.0595567 0.0306752 0)
(0.0576593 -0.0074744 0)
(0.0479553 -0.0585734 0)
(0.0289277 -0.124506 0)
(-0.000182766 -0.207055 0)
(-0.0381049 -0.306687 0)
(-0.0784632 -0.417043 0)
(-0.103691 -0.509576 0)
(-0.0924206 -0.505261 0)
(-0.0346276 -0.270911 0)
(-0.010276 0.0741061 0)
(-0.0332293 0.149595 0)
(-0.0554081 0.178286 0)
(-0.0673872 0.182089 0)
(-0.0703347 0.174298 0)
(-0.0668242 0.161999 0)
(-0.0588906 0.148704 0)
(-0.0479959 0.136056 0)
(-0.0351274 0.124752 0)
(-0.020916 0.115031 0)
(-0.00574778 0.106914 0)
(0.0101619 0.100312 0)
(0.0266982 0.0950528 0)
(0.0437914 0.0908651 0)
(0.0613688 0.0873383 0)
(0.0792796 0.0838625 0)
(0.0972141 0.0795693 0)
(0.114615 0.0732956 0)
(0.130598 0.0635826 0)
(0.143891 0.04873 0)
(0.152822 0.0268946 0)
(0.155308 -0.00382556 0)
(0.149174 -0.0453406 0)
(0.132086 -0.0998078 0)
(0.101861 -0.169989 0)
(0.0570963 -0.259524 0)
(-0.000231324 -0.369907 0)
(-0.054744 -0.485412 0)
(-0.082625 -0.532533 0)
(-0.0408141 -0.33465 0)
(-0.0192715 0.10113 0)
(-0.0511736 0.17662 0)
(-0.0701144 0.193651 0)
(-0.0717767 0.185798 0)
(-0.0616618 0.169337 0)
(-0.0446943 0.151299 0)
(-0.023996 0.134397 0)
(-0.0014639 0.119554 0)
(0.0217903 0.106939 0)
(0.0451631 0.0964318 0)
(0.0683606 0.0878184 0)
(0.0912789 0.0808597 0)
(0.113922 0.0752937 0)
(0.136337 0.0708256 0)
(0.158561 0.0670842 0)
(0.180552 0.0635756 0)
(0.202114 0.0596365 0)
(0.222806 0.0543999 0)
(0.241858 0.0467837 0)
(0.258105 0.0355116 0)
(0.269909 0.0191737 0)
(0.275129 -0.00374813 0)
(0.271367 -0.0347816 0)
(0.255737 -0.075916 0)
(0.22505 -0.129982 0)
(0.175953 -0.202087 0)
(0.10587 -0.300081 0)
(0.0240895 -0.424914 0)
(-0.0528132 -0.52361 0)
(-0.0396465 -0.397388 0)
(-0.0344279 0.144724 0)
(-0.0729659 0.201106 0)
(-0.0687669 0.195573 0)
(-0.0434007 0.171663 0)
(-0.00821883 0.146077 0)
(0.0301775 0.123626 0)
(0.0685198 0.105075 0)
(0.105341 0.0900679 0)
(0.140056 0.0780272 0)
(0.17256 0.0684101 0)
(0.202983 0.0607615 0)
(0.231563 0.0547074 0)
(0.258579 0.0499256 0)
(0.284295 0.0461165 0)
(0.308925 0.0429642 0)
(0.332572 0.0400988 0)
(0.355176 0.0370616 0)
(0.37643 0.0332795 0)
(0.395707 0.0280526 0)
(0.412001 0.020556 0)
(0.4238 0.00985618 0)
(0.429141 -0.00508859 0)
(0.425536 -0.0252244 0)
(0.409821 -0.0520033 0)
(0.378183 -0.0876528 0)
(0.326365 -0.136928 0)
(0.247991 -0.210307 0)
(0.14549 -0.32589 0)
(0.0110331 -0.465997 0)
(-0.0182921 -0.440791 0)
(-0.0374159 0.236243 0)
(-0.0469204 0.204422 0)
(0.0290889 0.154028 0)
(0.101435 0.118039 0)
(0.16874 0.0911203 0)
(0.228835 0.0712046 0)
(0.281377 0.0567137 0)
(0.327105 0.0461031 0)
(0.367041 0.0382124 0)
(0.402181 0.032272 0)
(0.433404 0.0277694 0)
(0.461457 0.0243445 0)
(0.486967 0.0217264 0)
(0.51044 0.019694 0)
(0.532253 0.0180427 0)
(0.552636 0.0165587 0)
(0.571629 0.0149971 0)
(0.589043 0.013068 0)
(0.60438 0.0104304 0)
(0.616809 0.00670593 0)
(0.62496 0.00146787 0)
(0.627339 -0.00561725 0)
(0.621661 -0.0151946 0)
(0.605027 -0.0279503 0)
(0.573432 -0.0449552 0)
(0.522817 -0.0692734 0)
(0.44326 -0.108672 0)
(0.333556 -0.189643 0)
(0.142891 -0.336859 0)
(0.0603656 -0.413368 0)
(0.231287 0.158551 0)
(0.291627 0.117237 0)
(0.441553 0.0760921 0)
(0.54079 0.0507665 0)
(0.608093 0.0343909 0)
(0.657673 0.0235602 0)
(0.695643 0.0164872 0)
(0.725351 0.0118783 0)
(0.749139 0.00883466 0)
(0.768672 0.00679071 0)
(0.785098 0.00540036 0)
(0.799226 0.00444589 0)
(0.811639 0.00378375 0)
(0.822756 0.00331304 0)
(0.832859 0.002955 0)
(0.842101 0.00263905 0)
(0.850496 0.00229288 0)
(0.8579 0.00183773 0)
(0.863987 0.00118275 0)
(0.868233 0.000244714 0)
(0.869893 -0.00108272 0)
(0.867972 -0.0027239 0)
(0.860989 -0.00497351 0)
(0.847644 -0.00799704 0)
(0.825258 -0.0119511 0)
(0.791924 -0.0177655 0)
(0.735957 -0.0274984 0)
(0.657841 -0.0495884 0)
(0.454936 -0.110493 0)
(0.313357 -0.177733 0)
)
;

boundaryField
{
    movingWall
    {
        type            fixedValue;
        value           uniform (1 0 0);
    }
    fixedWalls
    {
        type            noSlip;
    }
    frontAndBack
    {
        type            empty;
    }
}


// ************************************************************************* //
