/*--------------------------------*- C++ -*----------------------------------*\
  =========                 |
  \\      /  F ield         | OpenFOAM: The Open Source CFD Toolbox
   \\    /   O peration     | Website:  https://openfoam.org
    \\  /    A nd           | Version:  7
     \\/     M anipulation  |
\*---------------------------------------------------------------------------*/
FoamFile
{
    version     2.0;
    format      ascii;
    class       volVectorField;
    location    "0.5";
    object      U;
}
// * * * * * * * * * * * * * * * * * * * * * * * * * * * * * * * * * * * * * //

dimensions      [0 1 -1 0 0 0 0];

internalField   nonuniform List<vector> 
1936
(
(-12.4108 3.36788 0)
(-71.941 190.866 0)
(-26.8978 438.764 0)
(2.48958 457.993 0)
(-5.35634 424.211 0)
(5.46539 423.144 0)
(14.5286 394.886 0)
(17.7706 341.266 0)
(9.58546 297.3 0)
(-4.96242 284.956 0)
(-15.6586 297.931 0)
(-31.1588 392.502 0)
(-6.42544 514.316 0)
(36.0278 461.443 0)
(28.7729 318.801 0)
(16.5363 267.882 0)
(3.1061 266.184 0)
(-16.9976 309.487 0)
(-28.2786 436.83 0)
(-2.4509 516.001 0)
(30.7685 417.078 0)
(17.5075 288.702 0)
(-3.55547 260.635 0)
(-16.8659 275.496 0)
(-37.8086 385.45 0)
(-11.4052 521.761 0)
(31.1091 459.821 0)
(19.4209 311.928 0)
(0.548457 265.58 0)
(-11.9296 267.557 0)
(-37.8559 365.643 0)
(-14.1695 519.061 0)
(34.8697 473.09 0)
(25.9065 318.739 0)
(8.36713 268.882 0)
(-4.26178 271.95 0)
(-28.0498 347.731 0)
(-24.3083 493.135 0)
(20.8618 489.086 0)
(29.1991 339.324 0)
(3.42621 268.442 0)
(-6.75047 268.953 0)
(-29.862 337.68 0)
(-27.2417 490.027 0)
(-12.8739 8.04195 0)
(-78.04 0.421379 0)
(-30.7773 -4.62542 0)
(0.830148 -2.89427 0)
(-6.8476 -1.30399 0)
(4.31251 -1.65509 0)
(14.131 -1.02237 0)
(16.3983 0.4783 0)
(6.96358 2.06333 0)
(-4.86294 2.80243 0)
(-11.9651 1.90437 0)
(-29.9315 -1.85662 0)
(-7.01746 -4.91327 0)
(37.581 -2.83807 0)
(25.4679 0.672696 0)
(10.7013 2.76678 0)
(4.55426 3.49505 0)
(-15.1991 2.06752 0)
(-29.6492 -1.41387 0)
(-2.73571 -4.14399 0)
(30.5294 -2.08972 0)
(13.4127 2.22107 0)
(-4.035 3.94064 0)
(-11.4921 2.63882 0)
(-36.3203 -1.49193 0)
(-11.8959 -4.70145 0)
(32.4682 -2.56434 0)
(16.4587 1.56172 0)
(-2.18945 3.6505 0)
(-7.0322 3.16553 0)
(-35.3784 -1.10439 0)
(-14.9027 -4.99539 0)
(36.1266 -3.16661 0)
(22.1716 1.04756 0)
(4.2365 3.36646 0)
(-0.847772 3.39783 0)
(-26.5784 0.644394 0)
(-25.5186 -3.42461 0)
(21.6377 -3.90464 0)
(26.6064 0.274791 0)
(0.0290057 3.48872 0)
(-2.52396 3.40861 0)
(-26.8461 0.322973 0)
(-28.7055 -4.05043 0)
(-3.53057 16.6348 0)
(-72.9186 1.62738 0)
(-33.5463 -9.95899 0)
(-1.06594 -6.17211 0)
(-5.72273 -2.63791 0)
(4.06304 -3.49532 0)
(13.7033 -2.16229 0)
(16.6697 1.06554 0)
(7.81802 4.17187 0)
(-3.53173 5.39475 0)
(-10.6452 4.12296 0)
(-30.8726 -3.22791 0)
(-10.9168 -10.5001 0)
(36.5302 -5.95049 0)
(25.2402 2.19913 0)
(5.46772 5.67892 0)
(-0.990426 6.76124 0)
(-19.3077 4.39879 0)
(-30.4418 -3.11759 0)
(0.169642 -9.11643 0)
(33.6388 -4.04441 0)
(14.8344 4.84434 0)
(-1.79198 7.58645 0)
(-9.67558 5.63411 0)
(-37.5311 -2.44214 0)
(-13.8769 -10.196 0)
(33.643 -5.44938 0)
(19.28 3.66138 0)
(-0.288386 7.10181 0)
(-5.02868 6.54701 0)
(-36.4489 -1.53293 0)
(-18.4044 -10.6898 0)
(35.8747 -6.65553 0)
(22.3984 2.84199 0)
(1.13424 6.70176 0)
(-4.0399 6.76219 0)
(-29.3059 1.65102 0)
(-25.0297 -7.54004 0)
(24.6471 -8.30817 0)
(28.2656 1.1217 0)
(0.995952 6.9361 0)
(-1.77254 6.80393 0)
(-27.8187 1.33905 0)
(-29.8602 -8.63837 0)
(5.69183 23.3188 0)
(-60.0282 3.68197 0)
(-29.5381 -13.7465 0)
(-5.49627 -9.42428 0)
(-7.39581 -4.22269 0)
(1.09553 -5.09517 0)
(8.56688 -3.15987 0)
(10.7282 1.513 0)
(4.09267 5.81251 0)
(-2.34653 7.39212 0)
(-3.83913 6.02818 0)
(-21.2608 -3.95797 0)
(-11.354 -14.9672 0)
(26.5749 -8.63915 0)
(15.8368 3.83138 0)
(-2.67329 8.47363 0)
(-2.91903 9.28016 0)
(-14.7259 5.84743 0)
(-22.5295 -5.04669 0)
(1.78193 -13.3904 0)
(25.6219 -5.47002 0)
(7.73144 6.98058 0)
(-0.657515 10.4281 0)
(-1.41232 8.2715 0)
(-26.7316 -2.86341 0)
(-12.074 -14.6902 0)
(25.4479 -8.06969 0)
(12.4449 5.25149 0)
(-1.61932 9.86204 0)
(2.03809 9.42583 0)
(-25.1371 -1.43412 0)
(-16.5401 -15.2024 0)
(26.6681 -9.61877 0)
(12.982 4.51028 0)
(-4.17458 9.59077 0)
(-1.60921 9.36217 0)
(-21.2292 2.142 0)
(-18.4195 -11.2164 0)
(20.3095 -11.8583 0)
(18.8763 1.94669 0)
(-2.01192 9.69683 0)
(2.79298 9.59934 0)
(-17.5928 2.29926 0)
(-23.7767 -12.3592 0)
(13.9341 28.4109 0)
(-48.6173 6.28583 0)
(-25.1099 -15.8339 0)
(-8.68536 -12.3054 0)
(-9.03841 -6.1748 0)
(-2.28099 -6.51529 0)
(3.07534 -3.94502 0)
(4.96691 1.78479 0)
(0.837429 6.83862 0)
(-1.62132 8.52841 0)
(0.863583 7.17767 0)
(-12.7988 -4.15109 0)
(-11.4163 -17.6498 0)
(16.9915 -10.5268 0)
(8.88996 5.19204 0)
(-7.43227 10.639 0)
(-2.57116 10.819 0)
(-10.8358 6.37589 0)
(-15.3128 -6.81876 0)
(2.97071 -16.2378 0)
(18.1677 -6.21741 0)
(2.32937 8.31358 0)
(-0.379746 12.0584 0)
(4.25533 10.0329 0)
(-17.3704 -2.80184 0)
(-9.99049 -17.4348 0)
(17.9957 -9.95163 0)
(7.32936 6.14592 0)
(-3.15556 11.482 0)
(6.95433 11.1977 0)
(-15.4244 -0.954818 0)
(-14.304 -17.8011 0)
(18.2981 -11.5625 0)
(6.1675 5.70899 0)
(-7.08861 11.4658 0)
(1.6451 10.816 0)
(-14.3112 2.1894 0)
(-12.319 -13.7661 0)
(15.9456 -13.9837 0)
(11.1565 2.59513 0)
(-4.53159 11.2823 0)
(5.92123 11.2648 0)
(-9.66556 3.0185 0)
(-18.0239 -14.5871 0)
(20.5133 31.7292 0)
(-37.1212 9.27857 0)
(-19.9879 -16.2433 0)
(-10.0479 -14.483 0)
(-10.347 -8.21784 0)
(-5.55 -7.6678 0)
(-2.18597 -4.52741 0)
(-0.399208 1.78475 0)
(-2.21182 7.14575 0)
(-1.50628 8.77651 0)
(3.60704 7.4742 0)
(-6.0016 -3.85783 0)
(-10.7031 -18.4092 0)
(8.36216 -11.5731 0)
(3.47618 5.94227 0)
(-9.09964 11.8533 0)
(-0.313868 11.4657 0)
(-6.42802 6.19715 0)
(-9.00773 -8.25508 0)
(3.36874 -17.5105 0)
(11.4817 -6.27368 0)
(-2.07433 8.83381 0)
(-0.743401 12.5221 0)
(7.65376 10.7662 0)
(-9.68746 -2.3526 0)
(-7.63665 -18.3766 0)
(11.4773 -11.0062 0)
(2.97929 6.3748 0)
(-4.40868 11.974 0)
(9.66364 11.7837 0)
(-7.46254 -0.210258 0)
(-11.5612 -18.4364 0)
(11.1417 -12.4602 0)
(1.20924 6.23918 0)
(-7.7068 12.1774 0)
(5.19267 11.1814 0)
(-8.18401 1.98983 0)
(-7.18387 -15.0508 0)
(11.5518 -14.6479 0)
(4.8376 3.06006 0)
(-6.39405 11.714 0)
(7.49699 11.7613 0)
(-3.64093 3.43309 0)
(-12.7633 -15.3238 0)
(23.8869 32.9722 0)
(-24.4802 12.3373 0)
(-13.8661 -14.9859 0)
(-9.45135 -15.6065 0)
(-10.7474 -9.95237 0)
(-8.02774 -8.46868 0)
(-6.39831 -4.90083 0)
(-4.80628 1.4689 0)
(-4.72803 6.67797 0)
(-1.79589 8.1694 0)
(4.52104 6.95143 0)
(-1.3049 -3.22734 0)
(-9.08979 -17.368 0)
(1.35366 -11.6746 0)
(-0.866806 5.82008 0)
(-8.6112 11.8622 0)
(1.93165 11.2416 0)
(-1.52613 5.54526 0)
(-3.93678 -9.03587 0)
(2.83733 -17.2007 0)
(5.81102 -5.66977 0)
(-5.37037 8.56093 0)
(-1.15825 11.9065 0)
(8.84966 10.4534 0)
(-3.83657 -1.69558 0)
(-5.08914 -17.6301 0)
(6.0674 -11.1146 0)
(-0.709862 5.96522 0)
(-4.66541 11.4177 0)
(9.87969 11.2726 0)
(-1.48389 0.565231 0)
(-8.33745 -17.2735 0)
(5.42787 -12.2761 0)
(-2.22959 5.9743 0)
(-6.59416 11.6877 0)
(7.20295 10.6081 0)
(-2.98398 1.67203 0)
(-3.25361 -14.9443 0)
(7.20639 -13.9366 0)
(-0.0343885 3.25942 0)
(-6.7779 11.124 0)
(7.3559 11.1752 0)
(0.676901 3.45254 0)
(-8.0734 -14.6642 0)
(23.4341 31.8806 0)
(-10.6113 14.8748 0)
(-6.81548 -12.1107 0)
(-7.00699 -15.3251 0)
(-9.72162 -10.9777 0)
(-9.05912 -8.82406 0)
(-8.81319 -5.07116 0)
(-7.594 0.833751 0)
(-6.24405 5.53608 0)
(-2.15671 6.86458 0)
(4.12463 5.80262 0)
(1.2814 -2.51743 0)
(-6.79536 -14.9129 0)
(-3.42159 -10.8045 0)
(-4.15192 4.83582 0)
(-7.34692 10.708 0)
(3.02929 10.1415 0)
(2.86178 4.55933 0)
(-0.464832 -8.87431 0)
(1.56618 -15.474 0)
(1.29475 -4.66775 0)
(-7.1951 7.67493 0)
(-1.35997 10.3823 0)
(8.32153 9.2778 0)
(0.189875 -1.11411 0)
(-2.56982 -15.4543 0)
(1.91841 -10.2337 0)
(-3.55536 5.04665 0)
(-4.18751 9.97436 0)
(8.26397 9.86344 0)
(2.46784 1.11248 0)
(-4.93025 -14.6796 0)
(1.27891 -11.0589 0)
(-4.34208 5.01547 0)
(-4.92259 10.1661 0)
(7.17641 9.29328 0)
(1.09301 1.25975 0)
(-0.576577 -13.473 0)
(3.20926 -12.0856 0)
(-3.39078 3.10314 0)
(-5.87934 9.69365 0)
(6.19877 9.71284 0)
(3.49919 3.07807 0)
(-4.06976 -12.8235 0)
(19.0345 28.4508 0)
(2.34656 16.1528 0)
(0.565619 -7.89712 0)
(-3.0209 -13.4443 0)
(-7.10129 -10.9548 0)
(-8.32677 -8.63836 0)
(-9.13817 -5.04286 0)
(-8.40877 0.00112575 0)
(-6.52926 3.94996 0)
(-2.30392 5.13743 0)
(3.14229 4.29577 0)
(2.25263 -1.96581 0)
(-4.323 -11.6303 0)
(-5.72173 -9.07328 0)
(-6.12053 3.31251 0)
(-6.16948 8.69007 0)
(2.80748 8.26596 0)
(5.31511 3.34715 0)
(1.3626 -7.71042 0)
(0.0821868 -12.6563 0)
(-1.96053 -3.58166 0)
(-7.49393 6.29238 0)
(-1.37561 8.28508 0)
(6.88376 7.53314 0)
(2.6168 -0.778827 0)
(-0.506365 -12.2955 0)
(-0.80542 -8.48387 0)
(-5.22225 3.77823 0)
(-3.50837 7.96785 0)
(6.03114 7.87764 0)
(4.50012 1.24814 0)
(-1.9361 -11.2266 0)
(-1.24616 -8.9968 0)
(-5.24082 3.62264 0)
(-3.54487 8.00929 0)
(5.90324 7.45072 0)
(3.74741 0.761995 0)
(0.926192 -10.9109 0)
(0.158822 -9.4788 0)
(-5.10087 2.52936 0)
(-4.5285 7.71099 0)
(4.82796 7.72755 0)
(4.98103 2.36794 0)
(-1.03308 -10.1446 0)
(12.2543 23.3094 0)
(10.4087 15.5876 0)
(6.69435 -3.2174 0)
(1.62185 -10.1566 0)
(-3.341 -9.71143 0)
(-6.02501 -7.84058 0)
(-7.63264 -4.77953 0)
(-7.46725 -0.826471 0)
(-5.74916 2.24641 0)
(-2.15255 3.30134 0)
(2.05785 2.71474 0)
(2.16642 -1.62664 0)
(-2.36349 -8.20325 0)
(-5.88989 -6.80294 0)
(-6.57137 1.79334 0)
(-5.10034 6.19704 0)
(1.87208 5.89698 0)
(5.32151 2.12882 0)
(1.90836 -5.88173 0)
(-1.05567 -9.27959 0)
(-3.82656 -2.57811 0)
(-6.60842 4.5558 0)
(-1.29818 6.00385 0)
(5.10235 5.47978 0)
(3.56399 -0.622168 0)
(0.601659 -8.75664 0)
(-2.13989 -6.22226 0)
(-5.43547 2.41204 0)
(-2.83016 5.75139 0)
(4.01732 5.68115 0)
(4.73667 1.01079 0)
(-0.0251282 -7.60082 0)
(-2.224 -6.47981 0)
(-4.97599 2.16001 0)
(-2.52489 5.64825 0)
(4.30982 5.31103 0)
(4.60643 0.29134 0)
(1.4237 -7.77811 0)
(-1.52136 -6.6208 0)
(-5.1804 1.67953 0)
(-3.26519 5.51202 0)
(3.53456 5.5531 0)
(5.0709 1.50446 0)
(0.706813 -7.10733 0)
(6.48017 17.6138 0)
(11.8757 13.3567 0)
(9.65159 0.592852 0)
(5.25854 -6.24238 0)
(0.448617 -7.43255 0)
(-2.89605 -6.42883 0)
(-5.00804 -4.21876 0)
(-5.45346 -1.42636 0)
(-4.35927 0.762018 0)
(-1.80031 1.64077 0)
(1.09358 1.28415 0)
(1.5445 -1.39358 0)
(-1.2596 -5.20976 0)
(-4.79844 -4.49408 0)
(-5.71774 0.643547 0)
(-3.91866 3.73393 0)
(0.88642 3.54242 0)
(3.74079 1.05246 0)
(1.59952 -3.93844 0)
(-1.56388 -5.98855 0)
(-4.22874 -1.74337 0)
(-5.09518 2.80469 0)
(-1.19216 3.84152 0)
(3.23672 3.42549 0)
(3.19963 -0.523511 0)
(0.764361 -5.45721 0)
(-2.39789 -3.96325 0)
(-4.47816 1.2669 0)
(-2.13531 3.62592 0)
(2.37662 3.60402 0)
(3.68358 0.645668 0)
(0.702615 -4.45044 0)
(-2.11236 -4.04509 0)
(-3.84418 0.993863 0)
(-1.66253 3.43309 0)
(2.78949 3.23456 0)
(3.8615 -0.0194346 0)
(1.28962 -4.76811 0)
(-1.90564 -4.03557 0)
(-4.08923 0.873235 0)
(-2.1643 3.4185 0)
(2.32721 3.46513 0)
(4.03114 0.774639 0)
(1.27256 -4.28539 0)
(3.36416 12.4247 0)
(9.04001 10.3788 0)
(9.21405 2.75546 0)
(6.65815 -2.79705 0)
(2.94691 -4.71238 0)
(-0.135377 -4.59203 0)
(-2.29687 -3.34066 0)
(-3.19791 -1.63254 0)
(-2.81395 -0.237805 0)
(-1.31395 0.375897 0)
(0.413239 0.20563 0)
(0.797148 -1.18276 0)
(-0.858596 -2.9855 0)
(-3.39587 -2.61911 0)
(-4.21636 -0.0510985 0)
(-2.8263 1.73561 0)
(0.070317 1.65651 0)
(1.8451 0.268159 0)
(0.780076 -2.33553 0)
(-1.61002 -3.35283 0)
(-3.55703 -1.11922 0)
(-3.55438 1.35804 0)
(-1.10819 2.04522 0)
(1.556 1.74181 0)
(1.98442 -0.41968 0)
(0.329275 -2.90365 0)
(-2.0557 -2.16491 0)
(-3.11443 0.504884 0)
(-1.52431 1.91914 0)
(1.09473 1.94452 0)
(2.13092 0.338476 0)
(0.573908 -2.2011 0)
(-1.54205 -2.15566 0)
(-2.45643 0.261794 0)
(-0.981182 1.68759 0)
(1.50729 1.60064 0)
(2.37206 -0.157651 0)
(0.830432 -2.46341 0)
(-1.50454 -2.10055 0)
(-2.62011 0.316633 0)
(-1.2688 1.75434 0)
(1.30504 1.79384 0)
(2.51536 0.301092 0)
(1.07404 -2.14625 0)
(2.01853 8.50453 0)
(5.35903 7.51926 0)
(6.58344 3.35247 0)
(5.63921 -0.413615 0)
(3.45734 -2.28608 0)
(1.27712 -2.7289 0)
(-0.45058 -2.2854 0)
(-1.3933 -1.46891 0)
(-1.46693 -0.746428 0)
(-0.786494 -0.397012 0)
(0.0661274 -0.434105 0)
(0.216275 -0.954735 0)
(-0.735852 -1.57451 0)
(-2.18749 -1.38636 0)
(-2.74141 -0.37316 0)
(-1.98546 0.429624 0)
(-0.503675 0.433943 0)
(0.396639 -0.190089 0)
(-0.0756894 -1.27144 0)
(-1.45063 -1.65057 0)
(-2.5408 -0.712201 0)
(-2.36059 0.390055 0)
(-1.03276 0.776857 0)
(0.349912 0.619415 0)
(0.687686 -0.319082 0)
(-0.20986 -1.30827 0)
(-1.53238 -1.02161 0)
(-1.97951 0.0910407 0)
(-1.11061 0.787438 0)
(0.211831 0.836407 0)
(0.808349 0.133463 0)
(0.138426 -0.911675 0)
(-0.98525 -0.997789 0)
(-1.3654 -0.103473 0)
(-0.582011 0.567137 0)
(0.573041 0.567829 0)
(1.03146 -0.178101 0)
(0.322444 -1.06416 0)
(-0.933342 -0.930642 0)
(-1.42708 0.0204102 0)
(-0.682968 0.667758 0)
(0.576529 0.702756 0)
(1.21407 0.0576115 0)
(0.619475 -0.854959 0)
(1.20758 5.98293 0)
(2.69864 5.36343 0)
(3.71368 3.0699 0)
(3.56432 0.862254 0)
(2.54567 -0.589494 0)
(1.33446 -1.2349 0)
(0.253896 -1.31407 0)
(-0.425013 -1.12281 0)
(-0.614298 -0.901783 0)
(-0.405204 -0.746117 0)
(-0.120315 -0.686464 0)
(-0.156018 -0.733927 0)
(-0.662715 -0.814511 0)
(-1.3451 -0.724307 0)
(-1.64419 -0.466774 0)
(-1.34316 -0.24006 0)
(-0.735807 -0.220463 0)
(-0.37735 -0.398012 0)
(-0.585606 -0.700237 0)
(-1.21093 -0.783799 0)
(-1.68267 -0.492521 0)
(-1.55116 -0.127162 0)
(-0.929937 0.0432949 0)
(-0.313026 0.0130872 0)
(-0.154964 -0.259577 0)
(-0.542899 -0.535142 0)
(-1.09365 -0.455168 0)
(-1.23993 -0.106139 0)
(-0.838818 0.163816 0)
(-0.260369 0.216629 0)
(0.0238169 -0.0025158 0)
(-0.199063 -0.348455 0)
(-0.626539 -0.451992 0)
(-0.730292 -0.240894 0)
(-0.397957 -0.00231571 0)
(0.0320977 0.0427644 0)
(0.213392 -0.162206 0)
(-0.0349501 -0.405234 0)
(-0.53146 -0.374587 0)
(-0.710688 -0.115569 0)
(-0.378852 0.0899095 0)
(0.146996 0.124335 0)
(0.418614 -0.0510318 0)
(0.256573 -0.268522 0)
(0.691874 4.38701 0)
(1.42998 4.05206 0)
(1.9341 2.70429 0)
(1.97526 1.38515 0)
(1.54473 0.380458 0)
(0.906277 -0.256759 0)
(0.306615 -0.597395 0)
(-0.104691 -0.75066 0)
(-0.285029 -0.806102 0)
(-0.298429 -0.786826 0)
(-0.278001 -0.68882 0)
(-0.367101 -0.565684 0)
(-0.591072 -0.476813 0)
(-0.844128 -0.445517 0)
(-0.967486 -0.463122 0)
(-0.88068 -0.480641 0)
(-0.68864 -0.484259 0)
(-0.589527 -0.458716 0)
(-0.685757 -0.458603 0)
(-0.913505 -0.450314 0)
(-1.06753 -0.408213 0)
(-1.00099 -0.352292 0)
(-0.767241 -0.298006 0)
(-0.54769 -0.254451 0)
(-0.494172 -0.248516 0)
(-0.617725 -0.262141 0)
(-0.773856 -0.244887 0)
(-0.788495 -0.18575 0)
(-0.623656 -0.119818 0)
(-0.402052 -0.0804376 0)
(-0.286338 -0.105914 0)
(-0.330553 -0.193935 0)
(-0.427092 -0.270374 0)
(-0.421151 -0.276163 0)
(-0.302925 -0.222729 0)
(-0.182161 -0.171724 0)
(-0.128437 -0.168044 0)
(-0.178796 -0.183632 0)
(-0.307319 -0.181628 0)
(-0.352037 -0.170387 0)
(-0.230802 -0.153009 0)
(-0.0433345 -0.125999 0)
(0.0583404 -0.111205 0)
(0.0651956 -0.0946679 0)
(0.410939 3.31545 0)
(0.947572 3.23654 0)
(1.24263 2.43681 0)
(1.26845 1.62546 0)
(1.07895 0.899445 0)
(0.731985 0.326679 0)
(0.346693 -0.0997111 0)
(0.0441259 -0.397785 0)
(-0.154193 -0.580822 0)
(-0.268713 -0.635996 0)
(-0.340462 -0.57358 0)
(-0.412222 -0.455443 0)
(-0.489764 -0.367023 0)
(-0.554733 -0.368327 0)
(-0.583705 -0.442035 0)
(-0.564028 -0.509852 0)
(-0.52109 -0.517111 0)
(-0.507153 -0.45627 0)
(-0.546625 -0.392176 0)
(-0.612716 -0.370955 0)
(-0.649248 -0.395294 0)
(-0.621657 -0.425281 0)
(-0.550819 -0.412492 0)
(-0.492884 -0.346001 0)
(-0.482354 -0.265724 0)
(-0.506509 -0.215145 0)
(-0.522598 -0.208344 0)
(-0.495221 -0.224955 0)
(-0.424761 -0.227463 0)
(-0.34935 -0.206399 0)
(-0.308969 -0.187061 0)
(-0.301924 -0.20187 0)
(-0.294512 -0.247397 0)
(-0.260902 -0.285417 0)
(-0.21783 -0.280788 0)
(-0.195379 -0.239387 0)
(-0.182131 -0.190388 0)
(-0.172282 -0.156374 0)
(-0.177087 -0.15965 0)
(-0.17331 -0.197605 0)
(-0.135557 -0.22706 0)
(-0.0775906 -0.212525 0)
(-0.0362408 -0.162164 0)
(0.00331134 -0.0960696 0)
(0.242643 2.53545 0)
(0.669841 2.62675 0)
(0.929804 2.18038 0)
(1.01903 1.6789 0)
(0.954393 1.17871 0)
(0.778985 0.699074 0)
(0.536534 0.281565 0)
(0.284161 -0.0554506 0)
(0.072738 -0.28903 0)
(-0.0840579 -0.404038 0)
(-0.190677 -0.41458 0)
(-0.258887 -0.371291 0)
(-0.298428 -0.339959 0)
(-0.317529 -0.36117 0)
(-0.322674 -0.425187 0)
(-0.320651 -0.480761 0)
(-0.31673 -0.485984 0)
(-0.318309 -0.44226 0)
(-0.330017 -0.392848 0)
(-0.343783 -0.378254 0)
(-0.348162 -0.401681 0)
(-0.338409 -0.428151 0)
(-0.322085 -0.418176 0)
(-0.312932 -0.363436 0)
(-0.313665 -0.293152 0)
(-0.313678 -0.24653 0)
(-0.300608 -0.239381 0)
(-0.271945 -0.255437 0)
(-0.237388 -0.265345 0)
(-0.210992 -0.25626 0)
(-0.198686 -0.241278 0)
(-0.190665 -0.243577 0)
(-0.173454 -0.267624 0)
(-0.14622 -0.290333 0)
(-0.125756 -0.286973 0)
(-0.122605 -0.256762 0)
(-0.118618 -0.217259 0)
(-0.102054 -0.188885 0)
(-0.0834412 -0.188734 0)
(-0.0705806 -0.215147 0)
(-0.0606982 -0.239305 0)
(-0.0478005 -0.233538 0)
(-0.0316628 -0.200592 0)
(-0.00660914 -0.145745 0)
(0.136012 1.95779 0)
(0.448153 2.11914 0)
(0.667179 1.88568 0)
(0.808235 1.58911 0)
(0.850271 1.25615 0)
(0.799813 0.905561 0)
(0.680769 0.556531 0)
(0.523939 0.246271 0)
(0.363551 0.00371355 0)
(0.224888 -0.155116 0)
(0.116803 -0.237612 0)
(0.03934 -0.273896 0)
(-0.0113883 -0.301453 0)
(-0.0433356 -0.343276 0)
(-0.0648759 -0.395966 0)
(-0.0805698 -0.437129 0)
(-0.0912369 -0.445877 0)
(-0.0990635 -0.426293 0)
(-0.10665 -0.401775 0)
(-0.113192 -0.394114 0)
(-0.116509 -0.404378 0)
(-0.115875 -0.413221 0)
(-0.114193 -0.399601 0)
(-0.115122 -0.360681 0)
(-0.117641 -0.314139 0)
(-0.1166 -0.282247 0)
(-0.107275 -0.273197 0)
(-0.0908151 -0.277935 0)
(-0.0745283 -0.281151 0)
(-0.0649213 -0.276268 0)
(-0.0630074 -0.270054 0)
(-0.0626619 -0.272697 0)
(-0.0574016 -0.284206 0)
(-0.0468989 -0.292081 0)
(-0.0386489 -0.28483 0)
(-0.0379688 -0.263318 0)
(-0.0368736 -0.237917 0)
(-0.0284629 -0.219691 0)
(-0.016979 -0.21595 0)
(-0.0100589 -0.225515 0)
(-0.00987115 -0.235928 0)
(-0.0117042 -0.233954 0)
(-0.00965748 -0.219582 0)
(-0.00409486 -0.178833 0)
(0.0739066 1.53196 0)
(0.292275 1.70097 0)
(0.454626 1.57778 0)
(0.594113 1.40464 0)
(0.683679 1.19134 0)
(0.716111 0.948891 0)
(0.696085 0.692276 0)
(0.637006 0.443127 0)
(0.556775 0.225446 0)
(0.472758 0.0544973 0)
(0.396853 -0.068636 0)
(0.331247 -0.156005 0)
(0.275251 -0.224612 0)
(0.228694 -0.285863 0)
(0.190084 -0.340205 0)
(0.158814 -0.379587 0)
(0.134819 -0.397789 0)
(0.11589 -0.398269 0)
(0.0996064 -0.392356 0)
(0.0850228 -0.390194 0)
(0.0728198 -0.392493 0)
(0.0638384 -0.390989 0)
(0.0571886 -0.377189 0)
(0.0513952 -0.35114 0)
(0.0464586 -0.322046 0)
(0.0433269 -0.300574 0)
(0.0433894 -0.290584 0)
(0.0468235 -0.287782 0)
(0.050574 -0.285413 0)
(0.0508355 -0.280855 0)
(0.0463285 -0.277578 0)
(0.0395485 -0.279037 0)
(0.0342089 -0.283715 0)
(0.0317234 -0.284704 0)
(0.0298109 -0.277058 0)
(0.0260767 -0.262138 0)
(0.0225399 -0.245736 0)
(0.0216457 -0.233079 0)
(0.0223091 -0.226823 0)
(0.0212867 -0.226252 0)
(0.0168083 -0.227278 0)
(0.0102896 -0.225455 0)
(0.00544388 -0.22029 0)
(-0.000202362 -0.187165 0)
(0.0427236 1.20846 0)
(0.201106 1.35865 0)
(0.318861 1.28692 0)
(0.435833 1.18061 0)
(0.52888 1.04318 0)
(0.592397 0.880349 0)
(0.624449 0.700663 0)
(0.62798 0.516442 0)
(0.60972 0.341853 0)
(0.577687 0.187986 0)
(0.538295 0.0598627 0)
(0.496619 -0.0444581 0)
(0.455105 -0.130437 0)
(0.41398 -0.202569 0)
(0.375103 -0.261842 0)
(0.340189 -0.306276 0)
(0.309896 -0.334776 0)
(0.283395 -0.349743 0)
(0.259347 -0.356538 0)
(0.237048 -0.36003 0)
(0.216892 -0.361387 0)
(0.199721 -0.358217 0)
(0.185673 -0.34798 0)
(0.173961 -0.331486 0)
(0.163665 -0.313169 0)
(0.154382 -0.297985 0)
(0.146368 -0.287971 0)
(0.139862 -0.281647 0)
(0.134044 -0.276427 0)
(0.127103 -0.271395 0)
(0.117699 -0.267786 0)
(0.106303 -0.266702 0)
(0.0947161 -0.266929 0)
(0.0843953 -0.265198 0)
(0.075235 -0.259075 0)
(0.0663198 -0.24908 0)
(0.0576766 -0.237893 0)
(0.04998 -0.228085 0)
(0.0431878 -0.220882 0)
(0.0363512 -0.216171 0)
(0.0286481 -0.212951 0)
(0.0201867 -0.210149 0)
(0.012291 -0.20751 0)
(0.00241565 -0.178285 0)
(0.0289622 0.945376 0)
(0.149663 1.06895 0)
(0.239559 1.02219 0)
(0.334316 0.952109 0)
(0.415339 0.860515 0)
(0.480709 0.750663 0)
(0.52838 0.627196 0)
(0.557785 0.496537 0)
(0.569898 0.366247 0)
(0.568355 0.243419 0)
(0.556951 0.132538 0)
(0.537794 0.0353378 0)
(0.513394 -0.0485585 0)
(0.485974 -0.12008 0)
(0.456814 -0.179523 0)
(0.427593 -0.226552 0)
(0.399504 -0.261206 0)
(0.372914 -0.284805 0)
(0.347672 -0.299844 0)
(0.323677 -0.308828 0)
(0.301209 -0.31309 0)
(0.280785 -0.312672 0)
(0.262696 -0.307393 0)
(0.246705 -0.2981 0)
(0.232228 -0.286891 0)
(0.218748 -0.276122 0)
(0.206052 -0.26713 0)
(0.194082 -0.25985 0)
(0.182574 -0.253569 0)
(0.170918 -0.247983 0)
(0.158448 -0.243441 0)
(0.144943 -0.240226 0)
(0.130897 -0.237754 0)
(0.117078 -0.234647 0)
(0.103853 -0.229708 0)
(0.091162 -0.222855 0)
(0.0789477 -0.215034 0)
(0.0673336 -0.207409 0)
(0.0563644 -0.200729 0)
(0.0458272 -0.195228 0)
(0.0354346 -0.190836 0)
(0.025116 -0.187428 0)
(0.0152267 -0.185008 0)
(0.00366448 -0.158867 0)
(0.0226128 0.718062 0)
(0.114197 0.814232 0)
(0.184917 0.782215 0)
(0.260257 0.73448 0)
(0.32621 0.67238 0)
(0.382775 0.597994 0)
(0.428878 0.514002 0)
(0.463756 0.423795 0)
(0.487935 0.331278 0)
(0.501571 0.240569 0)
(0.505475 0.154728 0)
(0.501719 0.0758764 0)
(0.491729 0.00512863 0)
(0.476976 -0.0570009 0)
(0.458848 -0.110203 0)
(0.438529 -0.154244 0)
(0.417133 -0.189168 0)
(0.39541 -0.21554 0)
(0.373796 -0.234474 0)
(0.35261 -0.247169 0)
(0.332153 -0.254697 0)
(0.312751 -0.257729 0)
(0.294632 -0.25679 0)
(0.27782 -0.252626 0)
(0.262131 -0.246331 0)
(0.2473 -0.239107 0)
(0.233095 -0.231871 0)
(0.219351 -0.225044 0)
(0.205883 -0.21869 0)
(0.19243 -0.212831 0)
(0.178792 -0.207596 0)
(0.164854 -0.20308 0)
(0.150541 -0.199041 0)
(0.136009 -0.194997 0)
(0.121537 -0.19044 0)
(0.107272 -0.185176 0)
(0.0932881 -0.179421 0)
(0.0796609 -0.1736 0)
(0.0664427 -0.168116 0)
(0.0536156 -0.163229 0)
(0.041095 -0.159077 0)
(0.0287915 -0.15574 0)
(0.0172267 -0.153357 0)
(0.00416872 -0.13133 0)
(0.0188439 0.527012 0)
(0.087439 0.598008 0)
(0.144194 0.575846 0)
(0.204498 0.543032 0)
(0.257718 0.500658 0)
(0.304869 0.450156 0)
(0.345629 0.393174 0)
(0.379246 0.331643 0)
(0.405477 0.267706 0)
(0.424435 0.20341 0)
(0.436354 0.140951 0)
(0.441818 0.0818791 0)
(0.441679 0.0273831 0)
(0.436828 -0.0217276 0)
(0.428192 -0.0649166 0)
(0.416627 -0.101855 0)
(0.402896 -0.132433 0)
(0.387588 -0.156815 0)
(0.371513 -0.175414 0)
(0.355095 -0.188825 0)
(0.338419 -0.197687 0)
(0.321871 -0.202577 0)
(0.305701 -0.204064 0)
(0.290029 -0.202743 0)
(0.274864 -0.199288 0)
(0.260131 -0.194399 0)
(0.245727 -0.188704 0)
(0.231552 -0.182665 0)
(0.217498 -0.176577 0)
(0.203417 -0.170632 0)
(0.189156 -0.164964 0)
(0.174796 -0.159665 0)
(0.160319 -0.154754 0)
(0.145624 -0.150056 0)
(0.130844 -0.145403 0)
(0.116096 -0.140693 0)
(0.101455 -0.135946 0)
(0.0869871 -0.131283 0)
(0.0727471 -0.126873 0)
(0.058767 -0.122871 0)
(0.0450094 -0.119397 0)
(0.031269 -0.116537 0)
(0.0186147 -0.114444 0)
(0.00428338 -0.097839 0)
(0.0172853 0.382565 0)
(0.0712555 0.433365 0)
(0.120322 0.417385 0)
(0.171621 0.394039 0)
(0.216873 0.364243 0)
(0.257799 0.328958 0)
(0.294366 0.289214 0)
(0.325868 0.246191 0)
(0.351934 0.201184 0)
(0.372571 0.155514 0)
(0.387779 0.110451 0)
(0.397745 0.0671537 0)
(0.402974 0.0265576 0)
(0.403944 -0.0106238 0)
(0.40124 -0.0438723 0)
(0.395487 -0.0728448 0)
(0.387229 -0.0973649 0)
(0.376977 -0.11742 0)
(0.365213 -0.13312 0)
(0.352359 -0.144808 0)
(0.338782 -0.152807 0)
(0.324747 -0.157525 0)
(0.310442 -0.159373 0)
(0.296045 -0.1588 0)
(0.281663 -0.156271 0)
(0.26733 -0.15226 0)
(0.253036 -0.147217 0)
(0.238752 -0.141536 0)
(0.224443 -0.13553 0)
(0.210057 -0.129445 0)
(0.195524 -0.123459 0)
(0.180725 -0.117683 0)
(0.165791 -0.112216 0)
(0.150826 -0.107053 0)
(0.135753 -0.102169 0)
(0.120635 -0.0975415 0)
(0.105556 -0.0931701 0)
(0.090583 -0.0890918 0)
(0.075779 -0.0853698 0)
(0.0611934 -0.0820758 0)
(0.0467936 -0.0792726 0)
(0.0322094 -0.0770049 0)
(0.0191059 -0.0753624 0)
(0.00408699 -0.0643932 0)
(0.0171235 0.276634 0)
(0.0618494 0.312356 0)
(0.10665 0.300376 0)
(0.151791 0.283237 0)
(0.191661 0.261681 0)
(0.228197 0.236274 0)
(0.261386 0.207668 0)
(0.290576 0.176649 0)
(0.315409 0.144095 0)
(0.335769 0.110909 0)
(0.351638 0.0779369 0)
(0.363176 0.0460396 0)
(0.370666 0.0159011 0)
(0.374397 -0.0119134 0)
(0.374754 -0.0369736 0)
(0.37215 -0.0589739 0)
(0.366999 -0.0777293 0)
(0.359712 -0.09317 0)
(0.350683 -0.105334 0)
(0.340256 -0.114358 0)
(0.328717 -0.120446 0)
(0.316445 -0.123876 0)
(0.303659 -0.124939 0)
(0.290428 -0.123956 0)
(0.276925 -0.121269 0)
(0.263251 -0.117223 0)
(0.249449 -0.112163 0)
(0.235539 -0.106409 0)
(0.22152 -0.100243 0)
(0.207379 -0.0939058 0)
(0.193099 -0.0875957 0)
(0.178668 -0.0814637 0)
(0.164108 -0.0755628 0)
(0.149407 -0.0700389 0)
(0.134563 -0.0649199 0)
(0.119641 -0.0602234 0)
(0.104716 -0.0559666 0)
(0.0898537 -0.0521712 0)
(0.0751258 -0.0488656 0)
(0.0606056 -0.0460831 0)
(0.046274 -0.043856 0)
(0.0316967 -0.042203 0)
(0.0187488 -0.0411111 0)
(0.00385319 -0.0351535 0)
(0.0166373 0.195966 0)
(0.0541045 0.220364 0)
(0.0947118 0.211381 0)
(0.134064 0.198784 0)
(0.169148 0.183105 0)
(0.201603 0.164628 0)
(0.231321 0.143784 0)
(0.257711 0.121143 0)
(0.280459 0.0973441 0)
(0.299424 0.0730381 0)
(0.314651 0.0488167 0)
(0.326208 0.025362 0)
(0.334177 0.00316552 0)
(0.338841 -0.0173573 0)
(0.340489 -0.0358573 0)
(0.339386 -0.0520824 0)
(0.33584 -0.0658683 0)
(0.330183 -0.0771351 0)
(0.322744 -0.0858824 0)
(0.313835 -0.0921811 0)
(0.303737 -0.0961618 0)
(0.292723 -0.097997 0)
(0.281011 -0.0979097 0)
(0.268779 -0.096131 0)
(0.25619 -0.0929143 0)
(0.243352 -0.0885251 0)
(0.230339 -0.0832287 0)
(0.217208 -0.0772824 0)
(0.203994 -0.0709265 0)
(0.190712 -0.0643753 0)
(0.177389 -0.0578133 0)
(0.164058 -0.051347 0)
(0.150591 -0.0452138 0)
(0.136954 -0.0394799 0)
(0.123286 -0.0342036 0)
(0.109605 -0.0294459 0)
(0.0959159 -0.0252438 0)
(0.0822624 -0.021625 0)
(0.0687254 -0.0186136 0)
(0.0554102 -0.0162307 0)
(0.0423159 -0.0144964 0)
(0.0290553 -0.0134212 0)
(0.0172124 -0.0128865 0)
(0.00356835 -0.0110623 0)
(0.0153785 0.134691 0)
(0.0464761 0.150721 0)
(0.082111 0.144073 0)
(0.11547 0.134877 0)
(0.145639 0.123466 0)
(0.173734 0.109977 0)
(0.199507 0.0947307 0)
(0.222429 0.0781344 0)
(0.242268 0.0606297 0)
(0.258862 0.0427933 0)
(0.272306 0.0251961 0)
(0.282558 0.008151 0)
(0.289655 -0.00797002 0)
(0.293861 -0.0228201 0)
(0.295279 -0.036133 0)
(0.294166 -0.0477096 0)
(0.290805 -0.057417 0)
(0.285486 -0.0651853 0)
(0.278498 -0.0710025 0)
(0.270126 -0.0749095 0)
(0.260641 -0.0769939 0)
(0.250288 -0.0773809 0)
(0.239288 -0.0762262 0)
(0.227838 -0.0737058 0)
(0.216102 -0.0700108 0)
(0.204208 -0.0653452 0)
(0.192253 -0.0599124 0)
(0.18032 -0.0539186 0)
(0.168479 -0.04756 0)
(0.156771 -0.0409648 0)
(0.145239 -0.0343414 0)
(0.133635 -0.0279252 0)
(0.121944 -0.0218185 0)
(0.110469 -0.0160953 0)
(0.0992404 -0.0108536 0)
(0.0881536 -0.00616147 0)
(0.077092 -0.00208229 0)
(0.0660933 0.00133569 0)
(0.0552162 0.00406242 0)
(0.0444747 0.00607943 0)
(0.0338815 0.00737093 0)
(0.0233139 0.00792869 0)
(0.0138606 0.00796407 0)
(0.00286645 0.00678433 0)
(0.0133756 0.0892405 0)
(0.0387525 0.0992564 0)
(0.0687445 0.0943827 0)
(0.0961591 0.0876736 0)
(0.1213 0.0793296 0)
(0.144762 0.0694324 0)
(0.166105 0.0582276 0)
(0.184803 0.0461219 0)
(0.200926 0.0335508 0)
(0.214549 0.0207819 0)
(0.225159 0.00820396 0)
(0.232756 -0.00396053 0)
(0.237618 -0.0154005 0)
(0.239734 -0.0258534 0)
(0.239353 -0.0351245 0)
(0.236736 -0.0430646 0)
(0.232142 -0.0495743 0)
(0.225839 -0.0545981 0)
(0.218105 -0.058123 0)
(0.209218 -0.0601761 0)
(0.199443 -0.0608205 0)
(0.189028 -0.0601494 0)
(0.178203 -0.0582788 0)
(0.167172 -0.0553422 0)
(0.156114 -0.0514845 0)
(0.14517 -0.0468583 0)
(0.134454 -0.0416138 0)
(0.12407 -0.0358958 0)
(0.114168 -0.029849 0)
(0.104647 -0.0236955 0)
(0.0952666 -0.0175289 0)
(0.0862355 -0.0115384 0)
(0.0778141 -0.00574789 0)
(0.0697781 -0.000306158 0)
(0.0618253 0.00466401 0)
(0.0540358 0.00908709 0)
(0.0465731 0.0128846 0)
(0.0394229 0.0159938 0)
(0.0325332 0.0183755 0)
(0.0258913 0.0200086 0)
(0.0195166 0.0208778 0)
(0.0134611 0.0209758 0)
(0.00830566 0.0204989 0)
(0.00155623 0.0174748 0)
(0.0109023 0.0564457 0)
(0.0310846 0.0622033 0)
(0.0551453 0.0586399 0)
(0.0767996 0.0538876 0)
(0.0968225 0.047956 0)
(0.115353 0.0409085 0)
(0.132065 0.0329639 0)
(0.146612 0.0244466 0)
(0.158545 0.0156832 0)
(0.167613 0.00683698 0)
(0.174107 -0.00195159 0)
(0.178102 -0.0103716 0)
(0.179504 -0.0182035 0)
(0.178488 -0.0252875 0)
(0.175303 -0.0314791 0)
(0.170198 -0.0366727 0)
(0.163424 -0.0407953 0)
(0.155246 -0.0438047 0)
(0.145936 -0.0456909 0)
(0.13577 -0.0464755 0)
(0.125014 -0.046208 0)
(0.113924 -0.0449612 0)
(0.102739 -0.0428252 0)
(0.0916816 -0.0399016 0)
(0.0809449 -0.0362993 0)
(0.0707096 -0.0321418 0)
(0.061134 -0.0275333 0)
(0.0522918 -0.0225761 0)
(0.0441266 -0.0173808 0)
(0.0367576 -0.0121181 0)
(0.0303231 -0.0068514 0)
(0.0247713 -0.001609 0)
(0.0198969 0.00345027 0)
(0.0156431 0.00821837 0)
(0.0120674 0.0125915 0)
(0.00906655 0.0164694 0)
(0.00658525 0.0197695 0)
(0.00455285 0.0224219 0)
(0.00290295 0.0243709 0)
(0.00160169 0.0255764 0)
(0.000650971 0.0260047 0)
(0.000169853 0.0256344 0)
(0.00059586 0.0246334 0)
(-0.00051484 0.0208597 0)
(0.00818826 0.0345036 0)
(0.0234982 0.0374915 0)
(0.0417833 0.0348336 0)
(0.0579294 0.0314825 0)
(0.0725961 0.0273949 0)
(0.0857532 0.0226182 0)
(0.0970507 0.0173151 0)
(0.10622 0.0116286 0)
(0.113044 0.00567317 0)
(0.117516 -0.000289067 0)
(0.119756 -0.00611601 0)
(0.119737 -0.0116584 0)
(0.117501 -0.0167759 0)
(0.113247 -0.0213413 0)
(0.107196 -0.0252552 0)
(0.0995613 -0.0284426 0)
(0.0905705 -0.0308511 0)
(0.0804642 -0.0324523 0)
(0.0694968 -0.0332428 0)
(0.0579293 -0.0332456 0)
(0.0460235 -0.0325058 0)
(0.034036 -0.0310863 0)
(0.0222174 -0.0290623 0)
(0.0108063 -0.026514 0)
(-9.86207e-06 -0.0235211 0)
(-0.0100092 -0.0202018 0)
(-0.0189821 -0.0165984 0)
(-0.0268187 -0.0128054 0)
(-0.0334501 -0.00889742 0)
(-0.0387718 -0.00487139 0)
(-0.0427062 -0.000841404 0)
(-0.0453725 0.00312438 0)
(-0.0467741 0.0069577 0)