/*--------------------------------*- C++ -*----------------------------------*\
  =========                 |
  \\      /  F ield         | OpenFOAM: The Open Source CFD Toolbox
   \\    /   O peration     | Website:  https://openfoam.org
    \\  /    A nd           | Version:  7
     \\/     M anipulation  |
\*---------------------------------------------------------------------------*/
FoamFile
{
    version     2.0;
    format      ascii;
    class       volScalarField;
    location    "4.3";
    object      p;
}
// * * * * * * * * * * * * * * * * * * * * * * * * * * * * * * * * * * * * * //

dimensions      [0 2 -2 0 0 0 0];

internalField   nonuniform List<scalar> 
900
(
-2.67356e-09
-0.000116356
-0.000243102
-0.000343638
-0.000390518
-0.000369585
-0.000276216
-0.00011046
0.000125764
0.000429892
0.000799035
0.00122977
0.00171765
0.00225652
0.00283798
0.00345084
0.0040808
0.00471052
0.00531994
0.00588731
0.0063905
0.00680897
0.00712597
0.00733086
0.00742139
0.00740543
0.00730295
0.00714775
0.00697799
0.00686416
0.00011485
-3.07302e-06
-9.04412e-05
-0.000148209
-0.000161491
-0.000119031
-1.61337e-05
0.000148637
0.000375142
0.000662262
0.00100807
0.00140968
0.00186296
0.002362
0.00289875
0.00346265
0.00404036
0.0046162
0.00517217
0.00568912
0.00614799
0.00653155
0.00682637
0.00702475
0.00712645
0.00713961
0.00708145
0.00697868
0.00686179
0.00674974
0.000245623
8.11425e-05
-8.29456e-06
-5.61118e-05
-5.88142e-05
-8.51746e-06
9.77595e-05
0.000260957
0.000481238
0.000758097
0.00109028
0.00147558
0.00191043
0.00238953
0.00290536
0.0034479
0.0040047
0.00456033
0.00509747
0.00559753
0.00604198
0.0064141
0.00670095
0.00689532
0.00699718
0.0070143
0.00696246
0.00686562
0.00674409
0.00658308
0.000352596
0.000132773
2.79716e-05
-2.20808e-05
-2.31923e-05
2.91154e-05
0.000135606
0.000296147
0.000510757
0.000779322
0.00110125
0.00147511
0.00189817
0.00236589
0.00287152
0.00340565
0.00395609
0.00450766
0.00504284
0.00554254
0.00598746
0.00635996
0.0066462
0.0068383
0.00693578
0.00694602
0.00688428
0.00677385
0.00662928
0.00641623
0.000402238
0.000129705
6.30034e-06
-5.1024e-05
-5.52448e-05
-4.59448e-06
9.96791e-05
0.000256388
0.00046537
0.000726882
0.00104104
0.00140731
0.00182391
0.00228728
0.00279147
0.00332767
0.00388392
0.00444488
0.00499224
0.00550554
0.00596367
0.00634691
0.00663945
0.00683185
0.00692286
0.00691975
0.00683843
0.0067036
0.00652819
0.00626394
0.000371137
5.12646e-05
-9.14921e-05
-0.000158875
-0.000169312
-0.000123047
-2.29441e-05
0.000128975
0.000332474
0.00058826
0.000897246
0.0012599
0.00167558
0.00214181
0.0026536
0.00320276
0.0037775
0.00436196
0.0049365
0.00547846
0.00596385
0.00636964
0.00667684
0.00687355
0.00695732
0.00693575
0.00682669
0.00665853
0.00644622
0.00613318
0.000243912
-0.000117792
-0.00027942
-0.00035816
-0.000376662
-0.000336639
-0.000242177
-9.58609e-05
0.000102176
0.000353227
0.000659143
0.00102157
0.00144117
0.00191676
0.0024445
0.00301699
0.00362258
0.0042448
0.00486213
0.00544899
0.00597733
0.00641945
0.00675171
0.00695855
0.00703573
0.00699149
0.00684702
0.00663671
0.0063808
0.00601868
9.62206e-06
-0.00038963
-0.000569331
-0.000659971
-0.000687673
-0.000655259
-0.000567724
-0.000427978
-0.000235864
1.0665e-05
0.000314573
0.000678889
0.00110582
0.00159581
0.00214647
0.00275148
0.00339955
0.00407371
0.00475025
0.00539993
0.00598948
0.00648484
0.00685585
0.00708151
0.00715468
0.00708428
0.00689614
0.00663326
0.00632422
0.00590677
-0.000340412
-0.000774631
-0.000971919
-0.0010749
-0.00111279
-0.00108934
-0.00101026
-0.000878634
-0.000693851
-0.000452956
-0.000151684
0.000214621
0.000650049
0.00115706
0.00173527
0.00237996
0.00308063
0.0038204
0.0045733
0.00530597
0.0059787
0.00654909
0.00697781
0.00723579
0.00731092
0.00721207
0.00697086
0.00664185
0.00626533
0.00577787
-0.000813819
-0.00128206
-0.00149701
-0.00161303
-0.00166235
-0.00164962
-0.00158121
-0.0014603
-0.00128576
-0.00105362
-0.000758132
-0.000392756
4.88539e-05
0.000571717
0.00117816
0.00186584
0.00262557
0.00344318
0.00428962
0.00512763
0.00591016
0.00658419
0.00709783
0.00740972
0.00749909
0.00737262
0.00706823
0.00665546
0.00619039
0.005607
-0.00141786
-0.00192057
-0.0021539
-0.0022841
-0.00234659
-0.002347
-0.0022925
-0.00218641
-0.00202711
-0.00180958
-0.00152649
-0.00116921
-0.000728759
-0.000196962
0.00043206
0.00115922
0.00197676
0.00288155
0.00383636
0.00480268
0.00572631
0.00654153
0.0071794
0.00758019
0.00770783
0.00756197
0.00718571
0.00666742
0.00608416
0.00536377
-0.0021598
-0.00269862
-0.00295161
-0.00309763
-0.00317558
-0.0031924
-0.00315629
-0.00307094
-0.00293442
-0.00274076
-0.00248112
-0.00214469
-0.00171959
-0.00119395
-0.000557346
0.000197857
0.00107451
0.00205268
0.00312031
0.00423413
0.00533282
0.00633673
0.00715503
0.00770082
0.00791179
0.00777062
0.0073207
0.00667265
0.00593135
0.0050127
-0.00304706
-0.00362472
-0.00389916
-0.004063
-0.00415919
-0.00419642
-0.00418439
-0.00412758
-0.00402413
-0.00386747
-0.00364755
-0.00335163
-0.00296499
-0.00247183
-0.00185643
-0.00110454
-0.000206838
0.000832462
0.00200507
0.00327426
0.00457853
0.00582671
0.00690249
0.0076808
0.00805579
0.00797436
0.00746756
0.00666866
0.00571896
0.00451441
-0.00408733
-0.00470766
-0.0050057
-0.00518949
-0.00530682
-0.00536881
-0.00538737
-0.00536846
-0.00531091
-0.00520823
-0.00504986
-0.00482182
-0.00450721
-0.0040867
-0.00353912
-0.00284253
-0.00197735
-0.000932474
0.00030452
0.00170956
0.00323214
0.00477904
0.00620985
0.00735011
0.00802571
0.00811503
0.00760898
0.00665495
0.00543934
0.00382822
-0.00528865
-0.00595689
-0.00628084
-0.00648632
-0.00662709
-0.00671771
-0.00677334
-0.00680235
-0.00680523
-0.00677662
-0.00670664
-0.00658145
-0.00638351
-0.00609146
-0.00568003
-0.0051198
-0.00437685
-0.00341528
-0.00221639
-0.000747228
0.000963841
0.00284151
0.00473409
0.00641225
0.00760347
0.00806613
0.0076971
0.00662855
0.00509396
0.00291676
-0.00665978
-0.00738308
-0.00773507
-0.00796279
-0.00812757
-0.00824886
-0.00834643
-0.00843241
-0.00851021
-0.00857706
-0.00862549
-0.00864401
-0.00861706
-0.00852434
-0.00833953
-0.00802816
-0.00754461
-0.0068319
-0.00583282
-0.00443968
-0.00264623
-0.000464634
0.00197545
0.00440098
0.00641436
0.00758442
0.00762157
0.00657365
0.00469859
0.0017547
-0.00821089
-0.00899925
-0.00938071
-0.00962867
-0.00981452
-0.00996456
-0.0101051
-0.0102536
-0.010418
-0.0105999
-0.0107963
-0.0110011
-0.0112044
-0.0113919
-0.0115414
-0.0116188
-0.0115704
-0.0113126
-0.0107203
-0.0096881
-0.00803842
-0.00568605
-0.00268616
0.000684999
0.00390058
0.00626632
0.0071713
0.00644606
0.00429235
0.000346781
-0.00995511
-0.0108227
-0.0112334
-0.011495
-0.0116928
-0.0118628
-0.0120404
-0.0122501
-0.0125061
-0.012816
-0.0131841
-0.0136127
-0.0141023
-0.0146502
-0.0152464
-0.0158656
-0.0164545
-0.0169129
-0.0170716
-0.0166923
-0.0155217
-0.0132684
-0.00983061
-0.00540773
-0.000611292
0.00355939
0.00601784
0.0061624
0.003956
-0.00123492
-0.0119112
-0.0128784
-0.0133146
-0.0135754
-0.0137661
-0.0139366
-0.0141342
-0.0143928
-0.0147339
-0.015173
-0.0157236
-0.0163994
-0.0172159
-0.0181882
-0.0193264
-0.0206242
-0.022039
-0.0234623
-0.0246851
-0.0253729
-0.0250538
-0.0232816
-0.0196918
-0.0142928
-0.0076711
-0.00109029
0.00377636
0.00562357
0.00384949
-0.00277834
-0.0141083
-0.0152044
-0.0156557
-0.0158881
-0.016037
-0.0161726
-0.0163577
-0.0166373
-0.0170411
-0.017593
-0.0183167
-0.0192399
-0.0203957
-0.021822
-0.0235552
-0.025616
-0.027982
-0.0305466
-0.033067
-0.0351118
-0.0360332
-0.0351672
-0.0318315
-0.0257415
-0.0173072
-0.00790808
0.000215394
0.00482159
0.00428302
-0.00380553
-0.0165951
-0.0178607
-0.0183037
-0.0184582
-0.0185075
-0.0185507
-0.0186706
-0.0189236
-0.0193476
-0.0199741
-0.020837
-0.0219776
-0.023448
-0.0253102
-0.0276291
-0.0304555
-0.0337918
-0.0375391
-0.0414304
-0.0449568
-0.0473202
-0.0476659
-0.0449686
-0.038597
-0.0286441
-0.016373
-0.00438848
0.00406594
0.00583929
-0.00338079
-0.0194558
-0.0209445
-0.0213294
-0.0213202
-0.0211775
-0.0210415
-0.0210185
-0.0211757
-0.0215564
-0.0221972
-0.0231398
-0.0244377
-0.0261599
-0.0283901
-0.031219
-0.0347237
-0.0389274
-0.0437382
-0.0488693
-0.0537696
-0.0575896
-0.0590919
-0.0571821
-0.0508542
-0.0397992
-0.0249369
-0.00888763
0.00429661
0.00956161
0.000134697
-0.0228441
-0.0246144
-0.0248382
-0.0245183
-0.0240409
-0.0236015
-0.0233303
-0.0233009
-0.0235564
-0.0241338
-0.0250783
-0.0264515
-0.0283351
-0.030829
-0.0340418
-0.0380668
-0.0429366
-0.0485561
-0.0546173
-0.0605208
-0.0653321
-0.0677749
-0.0664837
-0.0602127
-0.0482888
-0.0311743
-0.0111564
0.00732366
0.017202
0.00932424
-0.0270542
-0.0291303
-0.0289811
-0.0281012
-0.0270746
-0.0261623
-0.0255101
-0.0251866
-0.025225
-0.0256548
-0.0265186
-0.0278806
-0.0298288
-0.0324714
-0.0359239
-0.0402823
-0.0455713
-0.0516769
-0.0582614
-0.0646861
-0.0699558
-0.0727304
-0.0714939
-0.0648353
-0.0517986
-0.0324099
-0.00843022
0.0158247
0.03148
0.0278599
-0.0326788
-0.034914
-0.0339573
-0.0321013
-0.030214
-0.0286088
-0.0274202
-0.0266889
-0.0264221
-0.0266307
-0.0273467
-0.0286291
-0.0305649
-0.0332611
-0.0368263
-0.0413471
-0.0468232
-0.0531069
-0.0598135
-0.0662413
-0.0713288
-0.0736853
-0.0716932
-0.063816
-0.0488727
-0.0265271
0.00196243
0.0330168
0.0561627
0.0603785
-0.0409826
-0.0426343
-0.0399728
-0.0364721
-0.0332923
-0.0307261
-0.0288357
-0.0275951
-0.0269607
-0.0269091
-0.0274502
-0.0286282
-0.0305198
-0.0332193
-0.0368191
-0.0413746
-0.046848
-0.0530392
-0.0595014
-0.0654648
-0.0697951
-0.0710182
-0.0673996
-0.0572436
-0.039161
-0.0125784
0.0217714
0.061753
0.0953822
0.112078
-0.0550077
-0.053339
-0.0471245
-0.0409524
-0.0359162
-0.0320914
-0.0293545
-0.0275534
-0.0265546
-0.0262757
-0.0266879
-0.0278087
-0.0296914
-0.0324072
-0.0360188
-0.0405405
-0.0458823
-0.0517798
-0.0577149
-0.0628431
-0.0659538
-0.0654613
-0.059481
-0.0460861
-0.0235921
0.00900874
0.0515639
0.10284
0.151555
0.190018
-0.0825213
-0.0681794
-0.0553193
-0.044966
-0.0373579
-0.0320188
-0.0284009
-0.0261201
-0.024891
-0.0245353
-0.0249643
-0.0261562
-0.0281334
-0.0309364
-0.0345916
-0.0390673
-0.044217
-0.0497097
-0.0549536
-0.0590236
-0.0606361
-0.0581164
-0.0494698
-0.0323859
-0.00470046
0.0354082
0.0887916
0.155557
0.225692
0.308271
-0.134888
-0.0834699
-0.0622338
-0.0460363
-0.0353901
-0.0287769
-0.0247648
-0.0224846
-0.0214379
-0.0213455
-0.0220641
-0.0235393
-0.0257693
-0.0287712
-0.0325435
-0.0370194
-0.0420119
-0.0471467
-0.0517921
-0.0549798
-0.0553545
-0.0511084
-0.040324
-0.0203196
0.0117514
0.0591675
0.125108
0.214351
0.32308
0.493261
-0.307197
-0.0930298
-0.0447134
-0.0271896
-0.0179903
-0.0136295
-0.0121175
-0.0120518
-0.0127813
-0.014082
-0.0158944
-0.0182266
-0.0211196
-0.0246192
-0.0287406
-0.033426
-0.0384934
-0.0435752
-0.0480556
-0.0510107
-0.051189
-0.0469844
-0.035988
-0.015713
0.0169544
0.0667695
0.140534
0.255772
0.431543
0.77572
)
;

boundaryField
{
    movingWall
    {
        type            zeroGradient;
    }
    fixedWalls
    {
        type            zeroGradient;
    }
    frontAndBack
    {
        type            empty;
    }
}


// ************************************************************************* //
