/*--------------------------------*- C++ -*----------------------------------*\
  =========                 |
  \\      /  F ield         | OpenFOAM: The Open Source CFD Toolbox
   \\    /   O peration     | Website:  https://openfoam.org
    \\  /    A nd           | Version:  7
     \\/     M anipulation  |
\*---------------------------------------------------------------------------*/
FoamFile
{
    version     2.0;
    format      ascii;
    class       surfaceScalarField;
    location    "4.3";
    object      phi;
}
// * * * * * * * * * * * * * * * * * * * * * * * * * * * * * * * * * * * * * //

dimensions      [0 3 -1 0 0 0 0];

internalField   nonuniform List<scalar> 
1740
(
3.34887e-07
-3.34883e-07
-6.70872e-07
1.00576e-06
-3.06941e-06
2.39854e-06
-6.52425e-06
3.45485e-06
-1.06619e-05
4.13767e-06
-1.51657e-05
4.50373e-06
-1.9796e-05
4.63033e-06
-2.43795e-05
4.58353e-06
-2.8788e-05
4.40854e-06
-3.29189e-05
4.13088e-06
-3.66797e-05
3.76074e-06
-3.99777e-05
3.29808e-06
-4.27153e-05
2.73754e-06
-4.47882e-05
2.07289e-06
-4.60893e-05
1.30109e-06
-4.65152e-05
4.25901e-07
-4.59764e-05
-5.38826e-07
-4.44099e-05
-1.56646e-06
-4.17944e-05
-2.61551e-06
-3.81647e-05
-3.62972e-06
-3.36248e-05
-4.53987e-06
-2.83567e-05
-5.26809e-06
-2.26222e-05
-5.73447e-06
-1.67568e-05
-5.8654e-06
-1.11548e-05
-5.60206e-06
-6.24522e-06
-4.90955e-06
-2.45483e-06
-3.79039e-06
-1.38849e-07
-2.31598e-06
5.72305e-07
-7.11154e-07
5.72305e-07
-1.00372e-06
6.68835e-07
-4.93156e-06
4.9336e-06
-1.16545e-05
9.12144e-06
-2.05664e-05
1.23668e-05
-3.09787e-05
1.45499e-05
-4.22505e-05
1.57755e-05
-5.38444e-05
1.62243e-05
-6.53314e-05
1.60705e-05
-7.63693e-05
1.54464e-05
-8.66737e-05
1.44352e-05
-9.59908e-05
1.30778e-05
-0.000104078
1.1385e-05
-0.000110691
9.35124e-06
-0.000115587
6.96805e-06
-0.000118522
4.23693e-06
-0.000119276
1.17988e-06
-0.000117669
-2.14579e-06
-0.000113586
-5.64952e-06
-0.000107013
-9.18918e-06
-9.80617e-05
-1.25807e-05
-8.70004e-05
-1.56012e-05
-7.42649e-05
-1.80036e-05
-6.0461e-05
-1.95383e-05
-4.63452e-05
-1.99812e-05
-3.27831e-05
-1.91641e-05
-2.06835e-05
-1.70092e-05
-1.09012e-05
-1.35728e-05
-4.10443e-06
-9.11271e-06
-6.35667e-07
-4.17992e-06
-6.33637e-08
-2.50068e-06
3.16951e-06
-9.46455e-06
1.18975e-05
-2.01666e-05
1.98235e-05
-3.37399e-05
2.59401e-05
-4.92753e-05
3.00853e-05
-6.59308e-05
3.24311e-05
-8.29816e-05
3.32751e-05
-9.98274e-05
3.29164e-05
-0.000115973
3.15922e-05
-0.000130998
2.94603e-05
-0.000144526
2.66058e-05
-0.000156201
2.30599e-05
-0.000165674
1.88238e-05
-0.000172599
1.38938e-05
-0.000176648
8.285e-06
-0.000177522
2.05423e-06
-0.000174983
-4.68478e-06
-0.000168894
-1.17388e-05
-0.000159253
-1.88299e-05
-0.000146237
-2.55965e-05
-0.000130233
-3.16054e-05
-0.000111856
-3.63803e-05
-9.19497e-05
-3.94448e-05
-7.15534e-05
-4.03776e-05
-5.1842e-05
-3.88755e-05
-3.40311e-05
-3.482e-05
-1.92522e-05
-2.83517e-05
-8.40539e-06
-1.99595e-05
-1.98697e-06
-1.05983e-05
-2.05034e-06
-3.80607e-06
6.97558e-06
-1.3518e-05
2.16094e-05
-2.77966e-05
3.41021e-05
-4.54255e-05
4.3569e-05
-6.52821e-05
4.99419e-05
-8.6369e-05
5.3518e-05
-0.000107834
5.47399e-05
-0.000128964
5.40463e-05
-0.000149162
5.17907e-05
-0.000167916
4.8214e-05
-0.000184762
4.34518e-05
-0.000199263
3.75609e-05
-0.000210992
3.05532e-05
-0.000219532
2.24332e-05
-0.000224481
1.32345e-05
-0.000225482
3.05532e-06
-0.000222249
-7.9184e-06
-0.000214614
-1.93736e-05
-0.000202577
-3.08674e-05
-0.000186349
-4.18238e-05
-0.0001664
-5.15546e-05
-0.000143476
-5.93042e-05
-0.0001186
-6.43206e-05
-9.30328e-05
-6.59451e-05
-6.81933e-05
-6.3715e-05
-4.55464e-05
-5.74668e-05
-2.64605e-05
-4.74376e-05
-1.206e-05
-3.43601e-05
-3.10538e-06
-1.95529e-05
-5.15572e-06
-4.87554e-06
1.18511e-05
-1.69687e-05
3.37025e-05
-3.43821e-05
5.15155e-05
-5.55439e-05
6.47309e-05
-7.91122e-05
7.35101e-05
-0.00010395
7.83553e-05
-0.000129106
7.98963e-05
-0.000153793
7.87335e-05
-0.00017735
7.53477e-05
-0.000199205
7.00688e-05
-0.000218838
6.30854e-05
-0.000235757
5.44794e-05
-0.000249475
4.42713e-05
-0.000259513
3.24712e-05
-0.000265407
1.91283e-05
-0.000266732
4.3811e-06
-0.000263143
-1.15074e-05
-0.000254421
-2.80961e-05
-0.000240532
-4.47559e-05
-0.000221691
-6.06646e-05
-0.000198412
-7.48344e-05
-0.000171539
-8.61768e-05
-0.000142254
-9.36058e-05
-0.000112027
-9.61725e-05
-8.25242e-05
-9.32173e-05
-5.54744e-05
-8.45166e-05
-3.2503e-05
-7.0409e-05
-1.498e-05
-5.18831e-05
-3.91731e-06
-3.06156e-05
-9.07303e-06
-5.74329e-06
1.75944e-05
-1.98706e-05
4.78298e-05
-4.00154e-05
7.16603e-05
-6.42745e-05
8.899e-05
-9.10928e-05
0.000100328
-0.000119201
0.000106464
-0.000147569
0.000108264
-0.000175355
0.000106519
-0.00020186
0.000101853
-0.000226482
9.46898e-05
-0.000248666
8.52698e-05
-0.000267882
7.36952e-05
-0.000283597
5.99869e-05
-0.000295275
4.4149e-05
-0.000302381
2.62344e-05
-0.00030441
6.41023e-06
-0.000300926
-1.49919e-05
-0.000291619
-3.74028e-05
-0.000276381
-5.99939e-05
-0.00025538
-8.16661e-05
-0.000229132
-0.000101082
-0.000198558
-0.000116751
-0.000164993
-0.000127171
-0.000130143
-0.000131023
-9.5972e-05
-0.000127388
-6.45378e-05
-0.000115951
-3.77854e-05
-9.71615e-05
-1.73617e-05
-7.23068e-05
-4.49473e-06
-4.34826e-05
-1.35678e-05
-6.4646e-06
2.4059e-05
-2.23495e-05
6.37147e-05
-4.49015e-05
9.42123e-05
-7.1923e-05
0.000116012
-0.00010166
0.000130065
-0.00013272
0.000137524
-0.000164004
0.000139548
-0.000194637
0.000137152
-0.000223901
0.000131118
-0.000251182
0.000121971
-0.000275913
0.000110001
-0.00029754
9.53218e-05
-0.000315492
7.7939e-05
-0.000329174
5.7831e-05
-0.000337969
3.50302e-05
-0.000341267
9.70797e-06
-0.000338502
-1.77571e-05
-0.000329222
-4.66832e-05
-0.000313179
-7.60364e-05
-0.000290432
-0.000104413
-0.000261446
-0.000130068
-0.000227181
-0.000151015
-0.000189131
-0.000165221
-0.000149283
-0.000170871
-0.000109991
-0.00016668
-7.37512e-05
-0.00015219
-4.29356e-05
-0.000127977
-1.95272e-05
-9.57151e-05
-4.94642e-06
-5.80634e-05
-1.85142e-05
-7.09249e-06
3.11515e-05
-2.45439e-05
8.11661e-05
-4.9276e-05
0.000118944
-7.883e-05
0.000145566
-0.00011127
0.000162505
-0.000145093
0.000171348
-0.000179143
0.000173598
-0.000212525
0.000170533
-0.000244522
0.000163115
-0.000274528
0.000151976
-0.00030198
0.000137453
-0.000326316
0.000119658
-0.000346936
9.85593e-05
-0.000363186
7.40811e-05
-0.000374356
4.61994e-05
-0.000379697
1.50491e-05
-0.000378471
-1.89834e-05
-0.000370014
-5.51398e-05
-0.00035386
-9.21902e-05
-0.000329866
-0.000128408
-0.000298362
-0.000161572
-0.00026029
-0.000189087
-0.000217291
-0.00020822
-0.00017169
-0.000216472
-0.000126349
-0.000212022
-8.43754e-05
-0.000194164
-4.87349e-05
-0.000163618
-2.1862e-05
-0.000122588
-5.38504e-06
-7.45404e-05
-2.38992e-05
-7.67009e-06
3.88216e-05
-2.65785e-05
0.000100075
-5.33583e-05
0.000145724
-8.53137e-05
0.000177521
-0.000120342
0.000197533
-0.000156842
0.000207847
-0.000193613
0.000210369
-0.000229756
0.000206676
-0.000264575
0.000197934
-0.00029749
0.000184892
-0.000327967
0.00016793
-0.000355453
0.000147144
-0.000379333
0.000122439
-0.0003989
9.36476e-05
-0.000413339
6.06388e-05
-0.000421743
2.34526e-05
-0.000423149
-1.7577e-05
-0.000416602
-6.16867e-05
-0.000401311
-0.000107482
-0.000376804
-0.000152915
-0.000343145
-0.00019523
-0.000301152
-0.00023108
-0.000252563
-0.000256809
-0.000200086
-0.00026895
-0.000147243
-0.000264864
-9.79908e-05
-0.000243416
-5.61532e-05
-0.000205455
-2.48252e-05
-0.000153916
-5.93107e-06
-9.34344e-05
-2.98303e-05
-8.23036e-06
4.7052e-05
-2.85552e-05
0.000120399
-5.73331e-05
0.000174502
-9.16425e-05
0.00021183
-0.000129224
0.000235115
-0.000168387
0.000247011
-0.000207903
0.000249886
-0.000246886
0.000245659
-0.000284681
0.000235729
-0.000320762
0.000220973
-0.000354646
0.000201815
-0.000385819
0.000178317
-0.000413676
0.000150296
-0.000437473
0.000117444
-0.000456297
7.94631e-05
-0.000469061
3.62164e-05
-0.000474548
-1.20901e-05
-0.000471399
-6.48352e-05
-0.000458378
-0.000120503
-0.000434513
-0.00017678
-0.000399402
-0.000230341
-0.000353551
-0.000276931
-0.000298677
-0.000311683
-0.000237872
-0.000329755
-0.000175489
-0.000327247
-0.000116655
-0.00030225
-6.64562e-05
-0.000255654
-2.90077e-05
-0.000191365
-6.7328e-06
-0.000115709
-3.65631e-05
-8.79765e-06
5.58496e-05
-3.05531e-05
0.000142155
-6.13456e-05
0.000205295
-9.80261e-05
0.000248511
-0.00013818
0.000275269
-0.000180038
0.000288869
-0.000222354
0.000292202
-0.000264277
0.000287582
-0.000305218
0.000276669
-0.000344735
0.00026049
-0.000382434
0.000239513
-0.000417875
0.000213759
-0.000450504
0.000182924
-0.000479577
0.000146517
-0.000504108
0.000103994
-0.000522818
5.49271e-05
-0.000534254
-6.54877e-07
-0.000536491
-6.25978e-05
-0.000527744
-0.00012925
-0.000506303
-0.000198221
-0.00047102
-0.000265624
-0.000421793
-0.000326157
-0.000360082
-0.000373395
-0.000289276
-0.00040056
-0.000214706
-0.000401817
-0.000143083
-0.000373874
-8.13452e-05
-0.000317392
-3.52106e-05
-0.000237499
-7.99192e-06
-0.000142928
-4.4555e-05
-9.39015e-06
6.52398e-05
-3.26333e-05
0.000165398
-6.55079e-05
0.000238169
-0.000104621
0.000287624
-0.000147398
0.000318045
-0.000191993
0.000333463
-0.000237159
0.000337368
-0.000282098
0.000332521
-0.000326317
0.000320889
-0.000369497
0.00030367
-0.000411373
0.000281389
-0.000451637
0.000254022
-0.000489839
0.000221127
-0.000525299
0.000181977
-0.000557013
0.000135707
-0.000583582
8.14968e-05
-0.000603071
1.88336e-05
-0.000613304
-5.23648e-05
-0.000611543
-0.00013101
-0.000595115
-0.000214649
-0.000561766
-0.000298972
-0.000510367
-0.000377557
-0.000441718
-0.000442044
-0.000359262
-0.000483016
-0.000269363
-0.000491716
-0.00018077
-0.000462467
-0.000103078
-0.000395083
-4.45227e-05
-0.000296055
-9.98871e-06
-0.000177462
-5.45437e-05
-1.0023e-05
7.52628e-05
-3.48474e-05
0.000190222
-6.99115e-05
0.000273233
-0.000111548
0.00032926
-0.000157005
0.000363503
-0.000204361
0.00038082
-0.000252379
0.000385386
-0.000300339
0.000380481
-0.000347875
0.000368424
-0.000394827
0.000350622
-0.000441115
0.000327678
-0.000486624
0.000299531
-0.000531088
0.00026559
-0.000573968
0.000224857
-0.000614326
0.000176065
-0.000650676
0.000117847
-0.000680844
4.90016e-05
-0.00070204
-3.1169e-05
-0.000710615
-0.000122435
-0.000702641
-0.000222623
-0.000674343
-0.00032727
-0.00062302
-0.000428879
-0.000548228
-0.000516837
-0.000452973
-0.000578271
-0.000344481
-0.000600208
-0.000233914
-0.000573035
-0.000134515
-0.000494481
-5.8373e-05
-0.000372197
-1.31017e-05
-0.000222733
-6.76454e-05
-1.07127e-05
8.59755e-05
-3.72489e-05
0.000216759
-7.46462e-05
0.000310631
-0.000118914
0.000373528
-0.000167097
0.000411686
-0.000217192
0.000430914
-0.000267981
0.000436174
-0.000318842
0.000431342
-0.000369568
0.000419151
-0.000420203
0.000401257
-0.000470903
0.000378378
-0.000521814
0.000350442
-0.000572938
0.000316715
-0.000623987
0.000275906
-0.000674195
0.000226273
-0.000722113
0.000165765
-0.000765355
9.22439e-05
-0.000800664
4.14008e-06
-0.000823269
-9.9831e-05
-0.000827863
-0.000218029
-0.000808745
-0.000346389
-0.000761061
-0.000476563
-0.000682369
-0.000595528
-0.000574442
-0.000686198
-0.000444785
-0.000729864
-0.000307011
-0.00071081
-0.00017901
-0.000622483
-7.85425e-05
-0.000472664
-1.7821e-05
-0.000283455
-8.54664e-05
-1.14817e-05
9.74572e-05
-3.99084e-05
0.000245185
-7.98251e-05
0.000350547
-0.000126847
0.00042055
-0.000177776
0.000462615
-0.000230513
0.000483652
-0.000283867
0.000489529
-0.000337335
0.00048481
-0.000390893
0.000472709
-0.000444823
0.000455186
-0.000499566
0.000433121
-0.000555591
0.000406467
-0.000613254
0.000374377
-0.000672617
0.000335269
-0.000733221
0.000286877
-0.000793794
0.000226338
-0.000851946
0.000150396
-0.000903677
5.58717e-05
-0.000943816
-5.96927e-05
-0.0009652
-0.000196644
-0.000960068
-0.000351521
-0.000920948
-0.000515682
-0.000842603
-0.000673874
-0.000724459
-0.000804342
-0.000573119
-0.000881204
-0.000403954
-0.000879975
-0.000240082
-0.000786354
-0.000107122
-0.000605624
-2.47627e-05
-0.000365814
-0.000110229
-1.23664e-05
0.000109824
-4.2933e-05
0.000275752
-8.56159e-05
0.00039323
-0.000135533
0.000470467
-0.00018919
0.000516272
-0.000244375
0.000538837
-0.000299928
0.000545082
-0.000355478
0.00054036
-0.000411202
0.000528433
-0.000467641
0.000511625
-0.000525546
0.000491026
-0.00058575
0.000466671
-0.000649014
0.000437642
-0.000715837
0.000402092
-0.000786177
0.000357217
-0.00085909
0.000299251
-0.000932297
0.000223603
-0.0010017
0.00012527
-0.00106134
-4.48923e-08
-0.00110279
-0.000155201
-0.00111633
-0.000337976
-0.00109172
-0.000540297
-0.00102027
-0.000745318
-0.000897796
-0.000926818
-0.000728116
-0.00105088
-0.000526508
-0.00108158
-0.000320766
-0.000992096
-0.000146399
-0.000779991
-3.46936e-05
-0.00047752
-0.000144923
-1.34262e-05
0.00012325
-4.64931e-05
0.000308819
-9.228e-05
0.000439017
-0.000145265
0.000523452
-0.000201587
0.000572594
-0.000258903
0.000596153
-0.000316088
0.000602267
-0.000372912
0.000597183
-0.00042976
0.000585281
-0.000487426
0.000569292
-0.000546968
0.000550568
-0.000609573
0.000529276
-0.000676419
0.000504487
-0.000748466
0.000474139
-0.000826162
0.000434913
-0.000909027
0.000382116
-0.00099515
0.000309725
-0.00108066
0.000210782
-0.00115911
7.8402e-05
-0.00122176
-9.25458e-05
-0.00125738
-0.00030236
-0.00125332
-0.000544352
-0.00119734
-0.0008013
-0.00108048
-0.00104368
-0.000901421
-0.00122994
-0.000672114
-0.00131089
-0.000422451
-0.00124176
-0.000198591
-0.00100385
-4.85666e-05
-0.000627544
-0.000193489
-1.47581e-05
0.000138008
-5.08579e-05
0.000344918
-0.000100223
0.000488383
-0.000156495
0.000579724
-0.000215363
0.000631462
-0.000274339
0.000655129
-0.000332348
0.000660276
-0.000389307
0.000654143
-0.000445801
0.000641774
-0.000502851
0.000626342
-0.000561765
0.000609483
-0.00062403
0.00059154
-0.000691171
0.000571629
-0.000764569
0.000547537
-0.00084516
0.000515503
-0.000933015
0.000469972
-0.00102682
0.000403528
-0.00112328
0.000307246
-0.00121662
0.000171744
-0.00129793
-1.1236e-05
-0.00135624
-0.000244052
-0.00137739
-0.000523201
-0.00134617
-0.000832527
-0.00124836
-0.00114149
-0.00107529
-0.00140301
-0.000831253
-0.00155493
-0.000543069
-0.00152994
-0.000265262
-0.00128166
-6.75367e-05
-0.000825269
-0.000261026
-1.65208e-05
0.000154529
-5.6449e-05
0.000384847
-0.000110063
0.000541996
-0.000169896
0.000639557
-0.000231105
0.000692671
-0.00029107
0.000715094
-0.000348797
0.000718003
-0.000404374
0.000709719
-0.000458565
0.000695966
-0.000512563
0.00068034
-0.000567843
0.000664763
-0.000626067
0.000649764
-0.000688983
0.000634545
-0.000758264
0.000616818
-0.000835254
0.000592492
-0.0009206
0.000555318
-0.00101378
0.000496709
-0.00111257
0.000406032
-0.00121247
0.000271643
-0.00130639
8.2691e-05
-0.00138377
-0.000166675
-0.00143152
-0.000475454
-0.00143278
-0.000831264
-0.00136875
-0.00120552
-0.00122213
-0.00154963
-0.000985351
-0.0017917
-0.000674755
-0.00184054
-0.000346211
-0.0016102
-9.28983e-05
-0.00107858
-0.000353925
-1.89753e-05
0.000173504
-6.39234e-05
0.000429795
-0.000122715
0.000600788
-0.000186426
0.000703267
-0.000249619
0.000755864
-0.00030961
0.000775085
-0.000365572
0.000773965
-0.000417804
0.000761951
-0.000467244
0.000745406
-0.000515193
0.000728289
-0.000563182
0.000712751
-0.000612901
0.000699484
-0.000666144
0.000687788
-0.000724701
0.000675375
-0.000790189
0.00065798
-0.000863792
0.000628922
-0.00094592
0.000578837
-0.00103579
0.000495904
-0.00113098
0.000366835
-0.00122704
0.000178746
-0.00131579
-7.79204e-05
-0.00138696
-0.000404289
-0.00142424
-0.000793979
-0.00140626
-0.00122351
-0.00130785
-0.00164804
-0.00110706
-0.00199249
-0.000801959
-0.00214564
-0.000437842
-0.00197432
-0.000125876
-0.00139055
-0.000479801
-2.25628e-05
0.000196067
-7.43087e-05
0.000481541
-0.000139521
0.000666001
-0.000207386
0.000771132
-0.000271899
0.000820378
-0.000330488
0.000833673
-0.000382661
0.000826138
-0.00042903
0.000808321
-0.000470729
0.000787104
-0.000509122
0.000766682
-0.000545696
0.000749326
-0.000582033
0.000735821
-0.0006198
0.000725555
-0.00066073
0.000716304
-0.000706557
0.000703807
-0.000758917
0.000681282
-0.000819183
0.000639103
-0.000888235
0.000564956
-0.000966146
0.000444747
-0.00105183
0.000264432
-0.00114089
1.11361e-05
-0.0012274
-0.000317779
-0.00129801
-0.000723371
-0.00133201
-0.00118951
-0.0012994
-0.00168065
-0.00116454
-0.00212735
-0.000901853
-0.00240833
-0.000531608
-0.00234456
-0.0001672
-0.00175496
-0.000647001
-2.80582e-05
0.000224125
-8.92303e-05
0.000542713
-0.000162403
0.000739174
-0.00023443
0.000843159
-0.000298962
0.000884909
-0.000353915
0.000888627
-0.000399439
0.000871662
-0.000436644
0.000845525
-0.000466938
0.000817399
-0.00049176
0.000791504
-0.000512509
0.000770075
-0.000530572
0.000753884
-0.000547382
0.000742364
-0.000564483
0.000733405
-0.000583602
0.000722926
-0.00060671
0.00070439
-0.000636058
0.000668451
-0.000674149
0.000603047
-0.000723563
0.000494161
-0.000786424
0.000327292
-0.000864578
8.92903e-05
-0.000954325
-0.000228033
-0.00104916
-0.00062854
-0.00113233
-0.00110633
-0.00117386
-0.00163912
-0.00112893
-0.00217227
-0.000947899
-0.00258937
-0.000613509
-0.00267895
-0.000216361
-0.0021521
-0.000863362
-3.68772e-05
0.000261002
-0.000111285
0.00061712
-0.000194037
0.000821926
-0.000269408
0.000918531
-0.000331354
0.000946855
-0.000378985
0.000936257
-0.000413591
0.000906268
-0.000437081
0.000869015
-0.000451308
0.000831626
-0.000457872
0.000798067
-0.000458124
0.000770327
-0.000453262
0.000749022
-0.000444462
0.000733564
-0.000433032
0.000721975
-0.000420605
0.0007105
-0.000409365
0.00069315
-0.000402257
0.000661342
-0.000403137
0.000603928
-0.000416755
0.000507779
-0.00044844
0.000358977
-0.000503488
0.000144338
-0.000584546
-0.000146974
-0.000690491
-0.000522594
-0.000811804
-0.000985017
-0.000924158
-0.00152677
-0.000981352
-0.00211508
-0.000915308
-0.00265541
-0.000665222
-0.00292904
-0.000270455
-0.00254687
-0.00113382
-5.16881e-05
0.00031269
-0.000144595
0.000710027
-0.000237838
0.000915168
-0.000313652
0.000994345
-0.000367777
0.00100098
-0.000401721
0.000970202
-0.000418674
0.000923221
-0.000421781
0.000872123
-0.000413606
0.000823451
-0.000396082
0.000780543
-0.000370636
0.000744881
-0.000338366
0.000716752
-0.000300241
0.000695439
-0.000257343
0.000679076
-0.000211148
0.000664305
-0.000163901
0.000645903
-0.000118967
0.000616409
-8.1147e-05
0.000566107
-5.67324e-05
0.000483365
-5.31948e-05
0.000355439
-7.8575e-05
0.000169719
-0.000140371
-8.5178e-05
-0.000243437
-0.000419529
-0.000386869
-0.000841585
-0.000556744
-0.00135689
-0.000714416
-0.0019574
-0.000784684
-0.00258514
-0.000665911
-0.00304781
-0.000322572
-0.00289021
-0.00145639
-7.75614e-05
0.000390252
-0.000195363
0.00082783
-0.000297005
0.00101681
-0.000365459
0.0010628
-0.00040125
0.00103677
-0.000410203
0.000979154
-0.000398456
0.000911474
-0.000370965
0.000844632
-0.000331325
0.000783812
-0.000282002
0.000731221
-0.000224632
0.000687511
-0.000160295
0.000652414
-8.98086e-05
0.000624953
-1.40203e-05
0.000603288
6.5807e-05
0.000584478
0.000147614
0.000564096
0.000228038
0.000535985
0.000302035
0.000492111
0.000362631
0.000422769
0.000400957
0.000317113
0.000406715
0.00016396
0.000369036
-4.7499e-05
0.000278533
-0.000329026
0.000128204
-0.000691256
-8.05996e-05
-0.00114809
-0.000325777
-0.00171223
-0.000540056
-0.00237086
-0.000592376
-0.00299549
-0.000359763
-0.00312282
-0.00181615
-0.000123917
0.000514169
-0.000271142
0.000975055
-0.000369588
0.00111526
-0.00041166
0.00110487
-0.000408162
0.00103327
-0.00037203
0.000943022
-0.000313605
0.000853048
-0.000240152
0.000771179
-0.00015644
0.0007001
-6.54448e-05
0.000640225
3.10771e-05
0.000590989
0.000132139
0.000551353
0.000237198
0.000519894
0.000345756
0.000494729
0.000456976
0.000473258
0.000569194
0.000451877
0.000679443
0.000425736
0.000782959
0.000388595
0.000872832
0.000332895
0.00093988
0.000250066
0.000972808
0.000131032
0.000958683
-3.33743e-05
0.000884506
-0.000254849
0.000736662
-0.000543412
0.000504617
-0.000916045
0.000191595
-0.00139921
-0.000157717
-0.00202155
-0.000414968
-0.00273824
-0.000364441
-0.00317335
-0.00218059
-0.000207151
0.000721319
-0.00037163
0.00113953
-0.00042789
0.00117152
-0.000399915
0.0010769
-0.000317408
0.000950766
-0.00020326
0.000828874
-7.22583e-05
0.000722047
6.66392e-05
0.000632281
0.000208359
0.00055838
0.000350267
0.000498317
0.000491224
0.000450032
0.000630965
0.000411612
0.000769642
0.000381216
0.000907458
0.000356914
0.00104426
0.000336457
0.00117909
0.000317047
0.0013097
0.000295122
0.00143207
0.000266226
0.00153996
0.000225005
0.00162465
0.000165375
0.00167465
8.10353e-05
0.00167616
-3.48863e-05
0.0016137
-0.000192382
0.00146925
-0.00039897
0.00122345
-0.000670238
0.000859981
-0.00103574
0.000388343
-0.00154991
-8.43629e-05
-0.00226554
-0.000297741
-0.00295997
-0.00247834
-0.000339895
0.00106121
-0.000428055
0.00122769
-0.000337972
0.00108143
-0.00015481
0.000893735
6.61981e-05
0.000729758
0.000296776
0.000598296
0.000522828
0.000495995
0.000738218
0.000416891
0.000940966
0.000355632
0.0011312
0.000308087
0.00131005
0.000271176
0.00147911
0.000242555
0.00164
0.000220324
0.00179413
0.00020279
0.00194233
0.000188255
0.00208456
0.000174819
0.00221944
0.000160236
0.00234385
0.000141818
0.00245247
0.000116388
0.00253751
8.03308e-05
0.00258828
3.02679e-05
0.00259168
-3.82884e-05
0.00253009
-0.000130787
0.00238366
-0.000252539
0.00212773
-0.000414315
0.0017326
-0.000640612
0.00116976
-0.000987074
0.000487811
-0.00158358
-4.02577e-05
-0.0024319
-0.00251859
-0.000299993
0.00136121
-4.36941e-05
0.000971394
0.000389272
0.000648467
0.000812221
0.000470786
0.00119415
0.000347832
0.00153094
0.000261507
0.0018252
0.000201726
0.0020822
0.000159894
0.00230786
0.000129977
0.00250774
0.000108207
0.00268671
9.2201e-05
0.00284891
8.03543e-05
0.00299773
7.15054e-05
0.00313578
6.47355e-05
0.00326482
5.92227e-05
0.0033855
5.4133e-05
0.00349719
4.85436e-05
0.00359761
4.14066e-05
0.00368245
3.15389e-05
0.00374498
1.7806e-05
0.00377563
-3.79342e-07
0.00376532
-2.79846e-05
0.00369604
-6.15016e-05
0.00354934
-0.000105846
0.00329985
-0.000164818
0.00291057
-0.000251332
0.00232349
-0.000400001
0.00148627
-0.000746361
0.000504296
-0.00144993
-0.0020143
0.00136121
0.0023326
0.00298107
0.00345185
0.00379969
0.00406119
0.00426292
0.00442281
0.00455279
0.004661
0.0047532
0.00483355
0.00490506
0.0049698
0.00502902
0.00508315
0.00513169
0.0051731
0.00520464
0.00522245
0.00522207
0.00519408
0.00513258
0.00502674
0.00486192
0.00461059
0.00421058
0.00346422
0.0020143
)
;

boundaryField
{
    movingWall
    {
        type            calculated;
        value           uniform 0;
    }
    fixedWalls
    {
        type            calculated;
        value           uniform 0;
    }
    frontAndBack
    {
        type            empty;
        value           nonuniform 0();
    }
}


// ************************************************************************* //
