/*--------------------------------*- C++ -*----------------------------------*\
  =========                 |
  \\      /  F ield         | OpenFOAM: The Open Source CFD Toolbox
   \\    /   O peration     | Website:  https://openfoam.org
    \\  /    A nd           | Version:  7
     \\/     M anipulation  |
\*---------------------------------------------------------------------------*/
FoamFile
{
    version     2.0;
    format      ascii;
    class       surfaceScalarField;
    location    "4";
    object      phi;
}
// * * * * * * * * * * * * * * * * * * * * * * * * * * * * * * * * * * * * * //

dimensions      [0 3 -1 0 0 0 0];

internalField   nonuniform List<scalar> 
1740
(
3.22562e-07
-3.22559e-07
-6.83909e-07
1.00647e-06
-3.06431e-06
2.3804e-06
-6.47852e-06
3.41421e-06
-1.05526e-05
4.07408e-06
-1.49713e-05
4.41875e-06
-1.94983e-05
4.5269e-06
-2.39639e-05
4.46569e-06
-2.82451e-05
4.28116e-06
-3.22447e-05
3.99956e-06
-3.58766e-05
3.63196e-06
-3.90559e-05
3.17933e-06
-4.16933e-05
2.63739e-06
-4.36941e-05
2.00076e-06
-4.49607e-05
1.26663e-06
-4.53987e-05
4.37932e-07
-4.49248e-05
-4.73849e-07
-4.34786e-05
-1.44622e-06
-4.10351e-05
-2.44352e-06
-3.76185e-05
-3.41659e-06
-3.3315e-05
-4.30352e-06
-2.82824e-05
-5.03257e-06
-2.27552e-05
-5.52717e-06
-1.70426e-05
-5.71263e-06
-1.15189e-05
-5.52371e-06
-6.60529e-06
-4.91358e-06
-2.73673e-06
-3.86856e-06
-2.9655e-07
-2.44018e-06
5.24364e-07
-8.20914e-07
5.24362e-07
-1.0042e-06
6.81644e-07
-4.90088e-06
4.90314e-06
-1.15445e-05
9.02397e-06
-2.03236e-05
1.21934e-05
-3.0548e-05
1.42985e-05
-4.15796e-05
1.54504e-05
-5.28881e-05
1.58354e-05
-6.40547e-05
1.56322e-05
-7.47501e-05
1.49766e-05
-8.47053e-05
1.39548e-05
-9.3684e-05
1.26107e-05
-0.000101463
1.09582e-05
-0.00010782
8.99479e-06
-0.000112534
6.71397e-06
-0.000115384
4.11698e-06
-0.000116168
1.22215e-06
-0.00011472
-1.92227e-06
-0.000110927
-5.23906e-06
-0.000104765
-8.60546e-06
-9.63218e-05
-1.18597e-05
-8.58239e-05
-1.48015e-05
-7.36542e-05
-1.72022e-05
-6.03596e-05
-1.88218e-05
-4.66403e-05
-1.9432e-05
-3.33197e-05
-1.88443e-05
-2.1289e-05
-1.69442e-05
-1.1419e-05
-1.37387e-05
-4.43112e-06
-9.42801e-06
-7.44545e-07
-4.5075e-06
-2.20185e-07
-2.47709e-06
3.15874e-06
-9.35083e-06
1.17769e-05
-1.98883e-05
1.95615e-05
-3.32179e-05
2.55229e-05
-4.84299e-05
2.95105e-05
-6.46873e-05
3.17078e-05
-8.12758e-05
3.24238e-05
-9.76104e-05
3.19669e-05
-0.000113216
3.05823e-05
-0.000127695
2.84341e-05
-0.000140698
2.56136e-05
-0.000151898
2.2158e-05
-0.000160977
1.80738e-05
-0.000167624
1.33604e-05
-0.000171538
8.0312e-06
-0.00017245
2.13434e-06
-0.000170139
-4.23346e-06
-0.000164471
-1.09074e-05
-0.000155429
-1.76467e-05
-0.000143156
-2.41329e-05
-0.000127981
-2.99764e-05
-0.000110447
-3.4736e-05
-9.13158e-05
-3.79533e-05
-7.15481e-05
-3.91997e-05
-5.22589e-05
-3.81335e-05
-3.46359e-05
-3.45673e-05
-1.98254e-05
-2.85491e-05
-8.79004e-06
-2.04634e-05
-2.13382e-06
-1.11637e-05
-2.354e-06
-3.7483e-06
6.90703e-06
-1.32934e-05
2.1322e-05
-2.73007e-05
3.35688e-05
-4.45558e-05
4.2778e-05
-6.39391e-05
4.88938e-05
-8.44613e-05
5.223e-05
-0.000105284
5.32465e-05
-0.000125714
5.23975e-05
-0.000145181
5.00492e-05
-0.000163201
4.64535e-05
-0.000179343
4.17562e-05
-0.000193209
3.60234e-05
-0.00020441
2.92752e-05
-0.00021257
2.15203e-05
-0.000217328
1.27891e-05
-0.000218359
3.16525e-06
-0.000215399
-7.19288e-06
-0.000208289
-1.80179e-05
-0.00019701
-2.89258e-05
-0.000181733
-3.94097e-05
-0.000162859
-4.88504e-05
-0.000141045
-5.65496e-05
-0.000117213
-6.17852e-05
-9.25241e-05
-6.38891e-05
-6.83172e-05
-6.23403e-05
-4.6015e-05
-5.68694e-05
-2.69948e-05
-4.75694e-05
-1.2448e-05
-3.50101e-05
-3.25828e-06
-2.03535e-05
-5.61229e-06
-4.77759e-06
1.16846e-05
-1.66148e-05
3.31592e-05
-3.36358e-05
5.05898e-05
-5.42799e-05
6.34221e-05
-7.72141e-05
7.1828e-05
-0.000101313
7.6329e-05
-0.000125644
7.75776e-05
-0.000149443
7.6196e-05
-0.000172077
7.26834e-05
-0.000193009
6.73854e-05
-0.000211758
6.05054e-05
-0.000227874
5.21391e-05
-0.000240918
4.23189e-05
-0.000250458
3.10608e-05
-0.000256079
1.841e-05
-0.000257398
4.48458e-06
-0.0002541
-1.04916e-05
-0.000245976
-2.61416e-05
-0.000232981
-4.19207e-05
-0.000215285
-5.71057e-05
-0.000193326
-7.08099e-05
-0.000167845
-8.203e-05
-0.000139902
-8.97286e-05
-0.000110842
-9.29491e-05
-8.22275e-05
-9.09545e-05
-5.57232e-05
-8.33737e-05
-3.29519e-05
-7.03407e-05
-1.53516e-05
-5.26105e-05
-4.07248e-06
-3.16325e-05
-9.68476e-06
-5.60309e-06
1.72877e-05
-1.93808e-05
4.69369e-05
-3.90066e-05
7.02156e-05
-6.25998e-05
8.70153e-05
-8.86206e-05
9.78488e-05
-0.000115816
0.000103524
-0.000143175
0.000104937
-0.000169883
0.000102904
-0.000195272
9.80729e-05
-0.000218776
9.0889e-05
-0.000239884
8.16132e-05
-0.000258111
7.03666e-05
-0.000272979
5.7187e-05
-0.000284007
4.20883e-05
-0.000290716
2.51197e-05
-0.000292656
6.42387e-06
-0.00028943
-1.37175e-05
-0.000280753
-3.48185e-05
-0.000266511
-5.61624e-05
-0.000246832
-7.67846e-05
-0.000222155
-9.54874e-05
-0.000193282
-0.000110903
-0.000161404
-0.000121606
-0.000128072
-0.000126281
-9.51121e-05
-0.000123915
-6.44855e-05
-0.000114
-3.81145e-05
-9.67117e-05
-1.77104e-05
-7.30146e-05
-4.65584e-06
-4.46872e-05
-1.43406e-05
-6.28399e-06
2.35717e-05
-2.17294e-05
6.23823e-05
-4.36411e-05
9.21274e-05
-6.98545e-05
0.000113229
-9.86366e-05
0.000126631
-0.000128615
0.000133503
-0.000158713
0.000135034
-0.000188079
0.000132271
-0.000216031
0.000126025
-0.00024199
0.000116847
-0.000265432
0.000105056
-0.000285854
9.07885e-05
-0.000302743
7.40756e-05
-0.000315566
5.49117e-05
-0.000323776
3.33295e-05
-0.000326827
9.47464e-06
-0.000324212
-1.63321e-05
-0.000315522
-4.3509e-05
-0.00030052
-7.11636e-05
-0.000279239
-9.8066e-05
-0.000252069
-0.000122658
-0.000219845
-0.000143127
-0.000183891
-0.00015756
-0.000146001
-0.000164171
-0.00010834
-0.000161576
-7.32636e-05
-0.000149076
-4.30846e-05
-0.000126891
-1.98387e-05
-9.62605e-05
-5.11611e-06
-5.94098e-05
-1.94567e-05
-6.8768e-06
3.04485e-05
-2.38103e-05
7.93158e-05
-4.77955e-05
0.000116113
-7.64152e-05
0.000141848
-0.000107759
0.000157975
-0.000140346
0.00016609
-0.000173042
0.000167729
-0.000204975
0.000164204
-0.00023546
0.00015651
-0.000263925
0.000145312
-0.00028985
0.000130981
-0.000312722
0.000113661
-0.000332003
9.33563e-05
-0.000347108
7.0017e-05
-0.000357407
4.3628e-05
-0.000362236
1.43032e-05
-0.000360936
-1.76315e-05
-0.000352916
-5.15289e-05
-0.000337751
-8.63291e-05
-0.000315296
-0.000120521
-0.000285826
-0.000152128
-0.000250157
-0.000178795
-0.000209739
-0.000197979
-0.000166654
-0.000207256
-0.00012351
-0.000204719
-8.3201e-05
-0.000189386
-4.85749e-05
-0.000161517
-2.2091e-05
-0.000122744
-5.55833e-06
-7.59424e-05
-2.5015e-05
-7.42756e-06
3.78761e-05
-2.57575e-05
9.76458e-05
-5.17068e-05
0.000142062
-8.26265e-05
0.000172768
-0.000116442
0.00019179
-0.000151572
0.00020122
-0.000186836
0.000202994
-0.000221357
0.000198724
-0.000254462
0.000189615
-0.000285603
0.000176453
-0.000314281
0.000159659
-0.00033999
0.000139371
-0.000362178
0.000115544
-0.000380211
8.80501e-05
-0.000393367
5.67848e-05
-0.000400843
2.1779e-05
-0.000401787
-1.66879e-05
-0.000395354
-5.79614e-05
-0.000380842
-0.000100842
-0.000357825
-0.000143537
-0.000326349
-0.000183604
-0.000287124
-0.00021802
-0.000241682
-0.000243421
-0.000192433
-0.000256505
-0.000142557
-0.000254595
-9.56888e-05
-0.000236254
-5.54389e-05
-0.000201767
-2.48709e-05
-0.000153312
-6.08792e-06
-9.47254e-05
-3.1103e-05
-7.9714e-06
4.58475e-05
-2.76802e-05
0.000117355
-5.55733e-05
0.000169955
-8.87774e-05
0.000205972
-0.00012506
0.000228073
-0.000162748
0.000238908
-0.000200627
0.000240873
-0.000237825
0.000235923
-0.000273706
0.000225495
-0.000307762
0.00021051
-0.000339541
0.000191437
-0.000368565
0.000168395
-0.000394285
0.000141264
-0.000416036
0.000109801
-0.000433007
7.37559e-05
-0.000444237
3.30083e-05
-0.000448646
-1.22785e-05
-0.000445056
-6.15511e-05
-0.000432379
-0.00011352
-0.000409762
-0.000166154
-0.000376855
-0.00021651
-0.000334102
-0.000260773
-0.000283016
-0.000294508
-0.000226336
-0.000313185
-0.000167955
-0.000312976
-0.000112529
-0.000291681
-6.47805e-05
-0.000249515
-2.86899e-05
-0.000189403
-6.83054e-06
-0.000116585
-3.79335e-05
-8.53438e-06
5.43818e-05
-2.96629e-05
0.000138483
-5.95511e-05
0.000199843
-9.50942e-05
0.000241515
-0.0001339
0.000266878
-0.000174211
0.000279219
-0.000214788
0.00028145
-0.000254785
0.00027592
-0.000293619
0.000264329
-0.000330853
0.000247745
-0.000366107
0.00022669
-0.000398967
0.000201255
-0.000428922
0.000171219
-0.000455301
0.000136181
-0.000477228
9.56823e-05
-0.000493579
4.93596e-05
-0.000503039
-2.81821e-06
-0.000503996
-6.05947e-05
-0.00049486
-0.000122656
-0.000474158
-0.000186856
-0.000440902
-0.000249766
-0.000395012
-0.000306663
-0.000337773
-0.000351747
-0.000272175
-0.000378782
-0.000202955
-0.000382195
-0.000136149
-0.000358488
-7.81111e-05
-0.000307552
-3.42527e-05
-0.000233261
-7.95969e-06
-0.000142878
-4.58932e-05
-9.13601e-06
6.35178e-05
-3.17712e-05
0.000161118
-6.37607e-05
0.000231833
-0.000101747
0.000279502
-0.00014317
0.000308301
-0.000186188
0.000322236
-0.00022955
0.000324812
-0.000272453
0.000318823
-0.000314392
0.000306268
-0.000355035
0.000288388
-0.000394111
0.000265766
-0.000431315
0.000238459
-0.000466224
0.000206128
-0.000498215
0.000168172
-0.000526391
0.000123858
-0.000549512
7.24812e-05
-0.000565934
1.36038e-05
-0.000573694
-5.28353e-05
-0.000570473
-0.000125876
-0.000553957
-0.000203372
-0.000522198
-0.000281526
-0.000474211
-0.000354649
-0.000410692
-0.000415266
-0.000334661
-0.000454813
-0.000251754
-0.000465103
-0.000169799
-0.000440442
-9.75133e-05
-0.000379838
-4.25533e-05
-0.000288221
-9.72686e-06
-0.000175704
-5.562e-05
-9.79269e-06
7.33105e-05
-3.40604e-05
0.000185386
-6.8301e-05
0.000266073
-0.000108869
0.00032007
-0.000153017
0.000352449
-0.000198816
0.000368036
-0.000245015
0.000371012
-0.000290873
0.00036468
-0.000335995
0.000351389
-0.000380186
0.000332579
-0.000423333
0.000308914
-0.000465296
0.000280421
-0.000505807
0.000246638
-0.000544366
0.000206732
-0.000580134
0.000159626
-0.000611808
0.000104155
-0.000637505
3.93007e-05
-0.000654798
-3.55421e-05
-0.000660556
-0.000120118
-0.000651371
-0.000212556
-0.000623944
-0.000308953
-0.000575877
-0.000402717
-0.000506724
-0.000484418
-0.000419094
-0.000542444
-0.000319385
-0.000564812
-0.000217602
-0.000542225
-0.000125749
-0.000471691
-5.49554e-05
-0.000359015
-1.24883e-05
-0.000218171
-6.81084e-05
-1.05218e-05
8.38323e-05
-3.65874e-05
0.000211451
-7.32685e-05
0.000302754
-0.000116579
0.00036338
-0.000163555
0.000399425
-0.000212174
0.000416655
-0.000261193
0.000420031
-0.000309954
0.000413442
-0.000358201
0.000399636
-0.000405918
0.000380296
-0.000453198
0.000356194
-0.000500129
0.000327353
-0.000546681
0.00029319
-0.000592575
0.000252626
-0.000637135
0.000204185
-0.000679104
0.000146124
-0.000716439
7.66361e-05
-0.000746293
-5.68795e-06
-0.000764607
-0.000101805
-0.000766697
-0.000210466
-0.000747504
-0.000328146
-0.000702632
-0.000447589
-0.000629766
-0.000557285
-0.000530362
-0.000641848
-0.000411103
-0.000684071
-0.000284294
-0.000669034
-0.000166233
-0.000589752
-7.32326e-05
-0.000452015
-1.67247e-05
-0.000274679
-8.48331e-05
-1.13469e-05
9.51793e-05
-3.94251e-05
0.00023953
-7.87814e-05
0.000342111
-0.000125014
0.000409613
-0.000174901
0.000449313
-0.000226317
0.000468071
-0.000278034
0.000471747
-0.000329497
0.000464905
-0.000380616
0.000450755
-0.000431589
0.000431269
-0.000482764
0.000407369
-0.000534522
0.000379111
-0.000587152
0.000345819
-0.000640701
0.000306176
-0.000694788
0.000258272
-0.000748344
0.000199681
-0.000799336
0.000127628
-0.000844395
3.93712e-05
-0.000878897
-6.73023e-05
-0.000896573
-0.00019279
-0.000890355
-0.000334364
-0.000853313
-0.00048463
-0.000780446
-0.000630151
-0.00067102
-0.000751275
-0.00053098
-0.00082411
-0.000374458
-0.000825556
-0.00022277
-0.00074144
-9.95488e-05
-0.000575237
-2.30561e-05
-0.000351172
-0.000107889
-1.23046e-05
0.000107484
-4.26817e-05
0.000269907
-8.50095e-05
0.000384438
-0.000134366
0.000458969
-0.000187219
0.000502166
-0.000241322
0.000522174
-0.000295471
0.000525896
-0.000349233
0.000518667
-0.000402706
0.000504228
-0.000456328
0.000484891
-0.000510735
0.000461777
-0.000566645
0.000435021
-0.000624733
0.000403907
-0.000685466
0.000366909
-0.000748878
0.000321683
-0.000814245
0.000265048
-0.000879693
0.000193075
-0.00094172
0.000101399
-0.000995012
-1.40102e-05
-0.00103203
-0.000155774
-0.00104366
-0.000322731
-0.00102017
-0.000508125
-0.000953157
-0.000697162
-0.000838464
-0.000865968
-0.000679631
-0.000982944
-0.000491093
-0.00101409
-0.000298973
-0.000933559
-0.000136364
-0.000737846
-3.2266e-05
-0.000455269
-0.000140155
-1.34536e-05
0.000120937
-4.65252e-05
0.000302978
-9.2211e-05
0.000430124
-0.000144924
0.000511682
-0.000200757
0.000557999
-0.000257325
0.000578742
-0.000313458
0.000582029
-0.000368862
0.000574071
-0.000423836
0.000559202
-0.000479065
0.00054012
-0.000535479
0.000518191
-0.000594146
0.000493687
-0.000656149
0.000465909
-0.000722424
0.000433185
-0.000793505
0.000392765
-0.000869152
0.000340695
-0.000947863
0.000271785
-0.00102632
0.000179852
-0.00109881
5.84791e-05
-0.00115709
-9.74917e-05
-0.00119041
-0.00028941
-0.00118645
-0.000512088
-0.00113314
-0.000750465
-0.00102176
-0.00097735
-0.000851229
-0.00115348
-0.000633409
-0.00123191
-0.000397167
-0.0011698
-0.000186209
-0.000948804
-4.53434e-05
-0.000596135
-0.000185499
-1.48893e-05
0.000135827
-5.12188e-05
0.000339308
-0.000100781
0.000479686
-0.000157127
0.000568029
-0.000215894
0.000616766
-0.000274556
0.000637403
-0.000331995
0.000639468
-0.000388072
0.000630149
-0.00044329
0.00061442
-0.000498566
0.000595396
-0.000555093
0.000574718
-0.000614244
0.000552838
-0.000677473
0.000529139
-0.000746161
0.000501872
-0.000821352
0.000467956
-0.000903374
0.000422717
-0.000991299
0.00035971
-0.00108232
0.00027087
-0.00117109
0.000147257
-0.00124921
-1.93761e-05
-0.00130548
-0.000233136
-0.00132587
-0.0004917
-0.00129512
-0.000781219
-0.00119932
-0.00107314
-0.00103055
-0.00132225
-0.000793988
-0.00146847
-0.000516613
-0.00144718
-0.000251181
-0.00121424
-6.35282e-05
-0.000783787
-0.000249027
-1.67665e-05
0.000152593
-5.71716e-05
0.000379713
-0.000111312
0.000533827
-0.000171615
0.000628331
-0.00023318
0.000678331
-0.000293358
0.000697581
-0.000351127
0.000697237
-0.000406531
0.000685553
-0.000460271
0.00066816
-0.000513455
0.00064858
-0.000567468
0.000628731
-0.000623894
0.000609264
-0.000684444
0.000589688
-0.000750824
0.000568253
-0.000824518
0.00054165
-0.000906418
0.000504617
-0.000996331
0.000449623
-0.00109236
0.000366894
-0.00119023
0.000245127
-0.00128264
7.30404e-05
-0.00135902
-0.000156759
-0.00140558
-0.000445144
-0.00140518
-0.000781618
-0.00133922
-0.0011391
-0.00119147
-0.00147001
-0.000956071
-0.00170387
-0.000650993
-0.00175225
-0.000331878
-0.00153335
-8.82917e-05
-0.00102737
-0.000337319
-1.93397e-05
0.000171933
-6.50195e-05
0.000425393
-0.000124684
0.000593491
-0.000189288
0.000692935
-0.000253344
0.000742387
-0.000314152
0.000758389
-0.000370874
0.000753959
-0.00042379
0.000738468
-0.000473798
0.000718168
-0.000522148
0.00069693
-0.000570316
0.000676898
-0.000619956
0.000658905
-0.000672864
0.000642596
-0.000730894
0.000626283
-0.0007958
0.000606556
-0.000868966
0.000577783
-0.000951011
0.000531668
-0.00104128
0.000457168
-0.00113729
0.000341132
-0.00123416
0.000169907
-0.00132315
-6.77658e-05
-0.00139313
-0.000375159
-0.00142719
-0.000747564
-0.00140388
-0.0011624
-0.00129901
-0.00157488
-0.00109272
-0.00191016
-0.000785889
-0.00205909
-0.000425632
-0.00189361
-0.000121147
-0.00133186
-0.000458465
-2.30398e-05
0.000194973
-7.57576e-05
0.000478111
-0.000142176
0.00065991
-0.000211358
0.000762117
-0.000277259
0.000808288
-0.000337307
0.000818437
-0.000391022
0.000807675
-0.000439019
0.000786466
-0.000482421
0.000761569
-0.000522575
0.000737084
-0.000560953
0.000715277
-0.000599137
0.000697089
-0.000638822
0.000682281
-0.000681803
0.000669264
-0.000729909
0.000654662
-0.000784871
0.000632745
-0.000848107
0.000594905
-0.000920416
0.000529477
-0.00100157
0.000422286
-0.00108988
0.000258214
-0.00118037
2.2729e-05
-0.00126587
-0.000289663
-0.00133248
-0.00068095
-0.00135911
-0.00113578
-0.00131624
-0.00161774
-0.00117006
-0.00205633
-0.00089819
-0.00233096
-0.000524491
-0.00226731
-0.000163169
-0.00169318
-0.000621634
-2.86257e-05
0.000223598
-9.09636e-05
0.000540448
-0.000165626
0.000734573
-0.000239351
0.000835841
-0.000305764
0.000874701
-0.000362798
0.000875472
-0.000410631
0.000855508
-0.000450394
0.000826228
-0.000483511
0.000794686
-0.000511432
0.000765005
-0.000535572
0.000739417
-0.000557341
0.000718857
-0.000578197
0.000703137
-0.000599709
0.000690776
-0.000623603
0.000678556
-0.000651795
0.000660937
-0.00068639
0.000629499
-0.000729612
0.000572699
-0.000783608
0.000476282
-0.000849946
0.000324552
-0.000929565
0.000102348
-0.00101839
-0.000200834
-0.00110907
-0.000590269
-0.00118435
-0.0010605
-0.00121418
-0.00158792
-0.00115476
-0.00211575
-0.000959053
-0.00252667
-0.000614088
-0.00261227
-0.000214097
-0.00209317
-0.000835731
-3.74898e-05
0.000261088
-0.000113168
0.000616127
-0.000197591
0.000818997
-0.000274941
0.000913191
-0.000339161
0.000938921
-0.000389387
0.000925698
-0.000426944
0.000893064
-0.00045377
0.000853054
-0.000471751
0.000812667
-0.000482519
0.000775773
-0.000487461
0.00074436
-0.000487802
0.000719198
-0.00048472
0.000700056
-0.00047948
0.000685535
-0.000473593
0.000672669
-0.000469011
0.000656355
-0.000468338
0.000628827
-0.000474987
0.000579347
-0.000493199
0.000494495
-0.000527795
0.000359148
-0.00058363
0.000158183
-0.000663095
-0.000121368
-0.000764738
-0.000488626
-0.000878633
-0.000946606
-0.000979998
-0.00148655
-0.00102265
-0.00207311
-0.000939862
-0.00260946
-0.000674443
-0.00287769
-0.000270937
-0.00249668
-0.00110667
-5.22675e-05
0.000313356
-0.000146408
0.000710267
-0.000241341
0.000913929
-0.000319239
0.00099109
-0.000375843
0.000995524
-0.00041268
0.000962535
-0.000432964
0.000913348
-0.000439872
0.000859962
-0.000436006
0.000808801
-0.000423349
0.000763115
-0.000403374
0.000724384
-0.000377197
0.000693021
-0.000345768
0.000668626
-0.000310052
0.00064982
-0.000271303
0.00063392
-0.000231358
0.000616411
-0.000193081
0.000590549
-0.00016066
0.000546927
-0.00013984
0.000473674
-0.000137782
0.00035709
-0.000162503
0.000182904
-0.000221614
-6.22574e-05
-0.000319978
-0.000390263
-0.000456668
-0.000809916
-0.000617359
-0.00132586
-0.000762738
-0.00192773
-0.000817557
-0.00255464
-0.000682266
-0.00301298
-0.000326188
-0.00285276
-0.00143286
-7.79911e-05
0.000391347
-0.000196792
0.000829068
-0.000299916
0.00101705
-0.000370311
0.00106149
-0.000408501
0.00103371
-0.000420311
0.000974346
-0.000411888
0.000904925
-0.000388209
0.000836283
-0.000352913
0.000773505
-0.000308526
0.000718728
-0.000256749
0.000672607
-0.000198658
0.00063493
-0.000135059
0.000605027
-6.66377e-05
0.000581399
5.66551e-06
0.000561617
8.01933e-05
0.000541883
0.00015423
0.000516513
0.000223373
0.000477784
0.000281221
0.000415826
0.000319253
0.000319057
0.000327165
0.000174992
0.000293539
-2.86308e-05
0.000208553
-0.000305277
6.46717e-05
-0.000666034
-0.000136628
-0.00112456
-0.000372406
-0.00169195
-0.00057441
-0.00235263
-0.000612229
-0.00297516
-0.000365914
-0.00309907
-0.00179877
-0.000124058
0.000515405
-0.000271823
0.000976833
-0.000371278
0.00111651
-0.000414846
0.00110505
-0.000413319
0.00103219
-0.000379615
0.000940641
-0.000324061
0.000849371
-0.000253938
0.00076616
-0.000174061
0.000693628
-8.74675e-05
0.000632135
4.03436e-06
0.000581105
9.93477e-05
0.000539616
0.000198042
0.000506333
0.000299754
0.000479687
0.000403932
0.000457439
0.000509406
0.000436408
0.000613802
0.000412118
0.000713032
0.000378553
0.000800784
0.000328074
0.000868225
0.000251616
0.000904032
0.000139186
0.000894638
-1.92365e-05
0.000826494
-0.000237133
0.000685105
-0.000524646
0.00045957
-0.000899025
0.000153473
-0.00138585
-0.000187787
-0.00201137
-0.000433884
-0.00272907
-0.000371344
-0.00316161
-0.00217011
-0.000206923
0.000722327
-0.000371303
0.00114121
-0.000427892
0.0011731
-0.00040071
0.00107787
-0.000319449
0.000950926
-0.000206968
0.00082816
-7.80342e-05
0.000720438
5.83799e-05
0.000629745
0.000197158
0.000554851
0.000335594
0.000493699
0.000472471
0.000444228
0.000607513
0.000404574
0.000740863
0.000372984
0.000872848
0.000347702
0.00100357
0.000326714
0.00113249
0.000307488
0.00125791
0.000286704
0.0013764
0.000260057
0.00148233
0.000222152
0.00156733
0.000166612
0.00161998
8.6537e-05
0.0016261
-2.53539e-05
0.00156948
-0.000180516
0.0014313
-0.000386469
0.00119144
-0.000659161
0.000833367
-0.00102778
0.000367485
-0.00154549
-9.87502e-05
-0.00226283
-0.000303871
-0.00295649
-0.00247398
-0.000339376
0.0010617
-0.000426877
0.00122871
-0.000336485
0.00108271
-0.000153361
0.000894747
6.72323e-05
0.000730333
0.000297026
0.000598367
0.000521926
0.000495537
0.000735785
0.000415887
0.000936582
0.000354053
0.00112439
0.000305894
0.00130029
0.000268329
0.00146582
0.00023904
0.00162263
0.000216176
0.00177219
0.000198138
0.00191556
0.000183348
0.002053
0.000170049
0.00218358
0.000156123
0.00230468
0.000138952
0.0024115
0.000115334
0.00249663
8.14831e-05
0.00254947
3.36997e-05
0.0025568
-3.26912e-05
0.00250034
-0.000124053
0.00235955
-0.000245675
0.00210892
-0.000408536
0.00171812
-0.000636978
0.0011586
-0.000985975
0.000479823
-0.00158405
-4.45879e-05
-0.00243208
-0.00251857
-0.00029956
0.00136126
-4.26317e-05
0.000971786
0.000391093
0.00064898
0.000814569
0.000471271
0.00119673
0.000348177
0.00153343
0.000261661
0.00182729
0.000201676
0.00208354
0.000159635
0.00230809
0.000129506
0.00250647
0.000107517
0.00268351
9.12867e-05
0.00284333
7.92197e-05
0.00298934
7.01729e-05
0.00312421
6.32604e-05
0.00324986
5.77042e-05
0.00336719
5.27182e-05
0.00347589
4.74207e-05
0.00357406
4.07823e-05
0.00365779
3.16046e-05
0.00372061
1.86655e-05
0.00375316
1.14133e-06
0.00374607
-2.55958e-05
0.00368104
-5.90241e-05
0.00353884
-0.000103475
0.00329338
-0.000163074
0.00290699
-0.000250591
0.00232144
-0.000400422
0.00148479
-0.000747407
0.000503613
-0.0014509
-0.00201496
0.00136126
0.00233305
0.00298203
0.0034533
0.00380148
0.00406314
0.00426481
0.00442445
0.00455395
0.00466147
0.00475276
0.00483198
0.00490215
0.00496541
0.00502312
0.00507583
0.00512325
0.00516404
0.00519564
0.00521431
0.00521545
0.00518985
0.00513083
0.00502735
0.00486428
0.00461369
0.00421327
0.00346586
0.00201496
)
;

boundaryField
{
    movingWall
    {
        type            calculated;
        value           uniform 0;
    }
    fixedWalls
    {
        type            calculated;
        value           uniform 0;
    }
    frontAndBack
    {
        type            empty;
        value           nonuniform 0();
    }
}


// ************************************************************************* //
