/*--------------------------------*- C++ -*----------------------------------*\
  =========                 |
  \\      /  F ield         | OpenFOAM: The Open Source CFD Toolbox
   \\    /   O peration     | Website:  https://openfoam.org
    \\  /    A nd           | Version:  7
     \\/     M anipulation  |
\*---------------------------------------------------------------------------*/
FoamFile
{
    version     2.0;
    format      ascii;
    class       volVectorField;
    location    "4";
    object      U;
}
// * * * * * * * * * * * * * * * * * * * * * * * * * * * * * * * * * * * * * //

dimensions      [0 1 -1 0 0 0 0];

internalField   nonuniform List<vector> 
900
(
(6.04997e-05 -5.97719e-05 0)
(2.90426e-05 1.17387e-05 0)
(-0.000269114 9.52983e-05 0)
(-0.000765933 0.000155358 0)
(-0.00140138 0.000191078 0)
(-0.00211867 0.000208054 0)
(-0.00287158 0.000212463 0)
(-0.00362655 0.000208963 0)
(-0.00435978 0.000200361 0)
(-0.00505343 0.000188005 0)
(-0.00569268 0.000172248 0)
(-0.00626353 0.000152839 0)
(-0.00675156 0.000129242 0)
(-0.00714143 0.000100872 0)
(-0.007417 6.73014e-05 0)
(-0.007562 2.84335e-05 0)
(-0.00756132 -1.53301e-05 0)
(-0.00740258 -6.30302e-05 0)
(-0.00707822 -0.000112896 0)
(-0.00658773 -0.000162372 0)
(-0.00593996 -0.000208144 0)
(-0.00515498 -0.000246278 0)
(-0.00426547 -0.000272474 0)
(-0.00331695 -0.000282389 0)
(-0.00236686 -0.000271928 0)
(-0.0014824 -0.000237559 0)
(-0.000735961 -0.000177084 0)
(-0.000194919 -9.21617e-05 0)
(8.28938e-05 4.79472e-06 0)
(7.45945e-05 7.362e-05 0)
(-9.97013e-06 -3.04656e-05 0)
(-0.000360784 0.000358924 0)
(-0.0012718 0.00076225 0)
(-0.00258673 0.00107046 0)
(-0.00419587 0.0012712 0)
(-0.00599013 0.00137864 0)
(-0.00787069 0.00141394 0)
(-0.00975847 0.00139613 0)
(-0.0115922 0.00133882 0)
(-0.013323 0.00125011 0)
(-0.0149099 0.00113369 0)
(-0.016315 0.000990242 0)
(-0.0175017 0.000818853 0)
(-0.0184327 0.000618255 0)
(-0.019071 0.000387942 0)
(-0.019381 0.000129119 0)
(-0.0193308 -0.000154506 0)
(-0.0188965 -0.000455692 0)
(-0.0180656 -0.000763433 0)
(-0.0168424 -0.00106266 0)
(-0.0152523 -0.00133454 0)
(-0.0133454 -0.00155732 0)
(-0.0111994 -0.00170796 0)
(-0.00891884 -0.00176415 0)
(-0.00663217 -0.00170682 0)
(-0.00448516 -0.00152308 0)
(-0.00262885 -0.00121096 0)
(-0.00119748 -0.000788107 0)
(-0.000289084 -0.000308892 0)
(1.23206e-05 8.335e-05 0)
(-9.80125e-05 0.000270444 0)
(-0.000795569 0.00127748 0)
(-0.00229938 0.00222887 0)
(-0.00433257 0.00296424 0)
(-0.00674582 0.00345666 0)
(-0.00939968 0.00372855 0)
(-0.0121634 0.00381995 0)
(-0.0149286 0.00377056 0)
(-0.0176078 0.00361134 0)
(-0.0201299 0.00336256 0)
(-0.0224336 0.00303499 0)
(-0.0244633 0.00263258 0)
(-0.0261656 0.00215539 0)
(-0.0274881 0.00160262 0)
(-0.0283794 0.000975206 0)
(-0.0287911 0.000278227 0)
(-0.0286814 -0.000476983 0)
(-0.0280194 -0.00127081 0)
(-0.026791 -0.00207451 0)
(-0.0250055 -0.00284967 0)
(-0.0227009 -0.00354903 0)
(-0.0199495 -0.00411894 0)
(-0.01686 -0.00450327 0)
(-0.0135772 -0.00464911 0)
(-0.0102762 -0.0045135 0)
(-0.0071533 -0.00407172 0)
(-0.00440809 -0.00332805 0)
(-0.00221386 -0.00233081 0)
(-0.000703951 -0.00119432 0)
(-6.73507e-05 -0.000166252 0)
(-0.000170167 0.000798535 0)
(-0.00117663 0.00266304 0)
(-0.00321618 0.00429993 0)
(-0.00587988 0.00554663 0)
(-0.00897542 0.0063803 0)
(-0.0123383 0.00683929 0)
(-0.0158155 0.00698604 0)
(-0.0192792 0.00688321 0)
(-0.0226255 0.00658125 0)
(-0.0257678 0.00611451 0)
(-0.0286313 0.00550253 0)
(-0.0311477 0.00475379 0)
(-0.0332519 0.00387044 0)
(-0.03488 0.00285312 0)
(-0.03597 0.00170539 0)
(-0.036464 0.000437932 0)
(-0.0363116 -0.000927798 0)
(-0.0354759 -0.00235663 0)
(-0.0339403 -0.00379742 0)
(-0.0317159 -0.00518251 0)
(-0.0288489 -0.00642937 0)
(-0.0254269 -0.00744483 0)
(-0.0215815 -0.0081324 0)
(-0.0174879 -0.00840234 0)
(-0.0133572 -0.00818401 0)
(-0.00942468 -0.00743997 0)
(-0.00592923 -0.0061822 0)
(-0.00307828 -0.00449068 0)
(-0.00104538 -0.00253505 0)
(-0.000127162 -0.000628185 0)
(-0.000224717 0.00151617 0)
(-0.0014906 0.00445853 0)
(-0.00399578 0.00690236 0)
(-0.00720694 0.00872383 0)
(-0.0108878 0.00992762 0)
(-0.0148495 0.01058 0)
(-0.0189208 0.0107717 0)
(-0.0229605 0.0105913 0)
(-0.0268539 0.0101104 0)
(-0.0305051 0.00937846 0)
(-0.0338307 0.00842454 0)
(-0.036754 0.00726218 0)
(-0.0392013 0.00589591 0)
(-0.0411002 0.00432802 0)
(-0.0423795 0.00256502 0)
(-0.0429717 0.000623727 0)
(-0.042817 -0.00146329 0)
(-0.04187 -0.00364309 0)
(-0.0401076 -0.00583887 0)
(-0.0375378 -0.00794914 0)
(-0.0342096 -0.00985005 0)
(-0.0302203 -0.0114019 0)
(-0.0257202 -0.0124605 0)
(-0.0209113 -0.0128928 0)
(-0.0160394 -0.0125958 0)
(-0.0113794 -0.0115172 0)
(-0.00721133 -0.00967619 0)
(-0.00378047 -0.0071828 0)
(-0.00130167 -0.0042542 0)
(-0.00016359 -0.00124693 0)
(-0.000265564 0.00238691 0)
(-0.00174624 0.00660499 0)
(-0.0046512 0.0099706 0)
(-0.00833809 0.0124255 0)
(-0.0125286 0.0140228 0)
(-0.0170097 0.0148701 0)
(-0.0215942 0.0150942 0)
(-0.0261306 0.0148139 0)
(-0.0304974 0.014124 0)
(-0.0345939 0.0130901 0)
(-0.0383316 0.011751 0)
(-0.0416289 0.0101249 0)
(-0.0444061 0.00821817 0)
(-0.0465832 0.00603375 0)
(-0.0480798 0.0035801 0)
(-0.0488173 0.000879313 0)
(-0.0487235 -0.00202521 0)
(-0.0477394 -0.00506201 0)
(-0.0458291 -0.00812632 0)
(-0.0429911 -0.0110785 0)
(-0.0392699 -0.0137467 0)
(-0.0347676 -0.0159361 0)
(-0.0296502 -0.017445 0)
(-0.0241478 -0.0180875 0)
(-0.0185463 -0.0177206 0)
(-0.0131684 -0.0162729 0)
(-0.00834532 -0.01377 0)
(-0.00436843 -0.0103536 0)
(-0.0014942 -0.00628916 0)
(-0.000182482 -0.00197904 0)
(-0.000297431 0.00338141 0)
(-0.00195933 0.00904893 0)
(-0.00521194 0.0134427 0)
(-0.00931935 0.0165872 0)
(-0.0139645 0.0186006 0)
(-0.0189116 0.0196447 0)
(-0.0239585 0.0198912 0)
(-0.0289457 0.019494 0)
(-0.0337483 0.0185738 0)
(-0.0382633 0.0172136 0)
(-0.0424009 0.0154614 0)
(-0.0460768 0.0133394 0)
(-0.0492069 0.0108538 0)
(-0.0517044 0.00800614 0)
(-0.0534789 0.00480431 0)
(-0.0544381 0.00127309 0)
(-0.0544926 -0.00253536 0)
(-0.0535632 -0.00653199 0)
(-0.0515929 -0.0105828 0)
(-0.048561 -0.0145059 0)
(-0.0444991 -0.0180736 0)
(-0.0395066 -0.0210246 0)
(-0.0337628 -0.0230857 0)
(-0.0275293 -0.0240034 0)
(-0.0211412 -0.0235828 0)
(-0.0149847 -0.0217261 0)
(-0.00945886 -0.0184658 0)
(-0.00491484 -0.0139822 0)
(-0.00165396 -0.00860235 0)
(-0.000190691 -0.00279465 0)
(-0.000324237 0.00448036 0)
(-0.00214593 0.0117522 0)
(-0.00571124 0.0172737 0)
(-0.0102025 0.021163 0)
(-0.0152675 0.0236169 0)
(-0.0206489 0.0248634 0)
(-0.0261313 0.0251274 0)
(-0.0315495 0.0246038 0)
(-0.036777 0.0234426 0)
(-0.0417118 0.0217446 0)
(-0.0462652 0.0195673 0)
(-0.0503528 0.0169348 0)
(-0.053888 0.0138508 0)
(-0.0567777 0.0103118 0)
(-0.0589204 0.0063208 0)
(-0.0602072 0.00190065 0)
(-0.0605261 -0.00289198 0)
(-0.0597697 -0.00795366 0)
(-0.057849 -0.0131215 0)
(-0.0547116 -0.0181675 0)
(-0.0503633 -0.0227995 0)
(-0.0448904 -0.0266746 0)
(-0.0384795 -0.0294281 0)
(-0.0314264 -0.0307171 0)
(-0.0241285 -0.0302747 0)
(-0.0170569 -0.0279656 0)
(-0.0107045 -0.0238299 0)
(-0.00550451 -0.0181013 0)
(-0.0018132 -0.0111945 0)
(-0.000193519 -0.00368149 0)
(-0.000348809 0.00567321 0)
(-0.0023196 0.0146928 0)
(-0.00617952 0.0214373 0)
(-0.011036 0.0261268 0)
(-0.0165039 0.0290486 0)
(-0.0223062 0.0305074 0)
(-0.0282158 0.0307902 0)
(-0.0340635 0.0301393 0)
(-0.0397241 0.0287369 0)
(-0.0450994 0.0267036 0)
(-0.0501046 0.0241053 0)
(-0.0546582 0.0209664 0)
(-0.0586733 0.0172843 0)
(-0.0620519 0.0130457 0)
(-0.0646814 0.00824248 0)
(-0.0664336 0.0028887 0)
(-0.0671688 -0.0029617 0)
(-0.0667422 -0.00919745 0)
(-0.0650196 -0.0156297 0)
(-0.0619003 -0.0219824 0)
(-0.0573453 -0.0278894 0)
(-0.05141 -0.0329079 0)
(-0.0442765 -0.0365541 0)
(-0.0362735 -0.0383625 0)
(-0.0278742 -0.0379631 0)
(-0.0196638 -0.0351627 0)
(-0.0122675 -0.0300082 0)
(-0.00623693 -0.0228098 0)
(-0.00200602 -0.0141115 0)
(-0.00019496 -0.00464467 0)
(-0.000373094 0.00695618 0)
(-0.00249099 0.017862 0)
(-0.00664198 0.0259233 0)
(-0.0118603 0.0314695 0)
(-0.0177293 0.0348888 0)
(-0.0239529 0.0365737 0)
(-0.0302942 0.0368827 0)
(-0.0365822 0.0361114 0)
(-0.0426957 0.0344789 0)
(-0.0485434 0.0321266 0)
(-0.0540485 0.0291289 0)
(-0.0591358 0.0255077 0)
(-0.0637221 0.0212506 0)
(-0.0677074 0.016328 0)
(-0.0709693 0.0107129 0)
(-0.0733599 0.00440043 0)
(-0.0747079 -0.0025689 0)
(-0.0748214 -0.0100869 0)
(-0.073505 -0.0179467 0)
(-0.0705888 -0.0258266 0)
(-0.0659619 -0.0332784 0)
(-0.0596203 -0.039738 0)
(-0.0517175 -0.0445663 0)
(-0.0426046 -0.0471271 0)
(-0.0328422 -0.0468969 0)
(-0.0231656 -0.043588 0)
(-0.0143886 -0.037247 0)
(-0.0072398 -0.0282909 0)
(-0.00227413 -0.0174543 0)
(-0.000198937 -0.00570778 0)
(-0.000398406 0.00833055 0)
(-0.00266817 0.0212624 0)
(-0.00711839 0.0307351 0)
(-0.0127076 0.037195 0)
(-0.0189869 0.0411428 0)
(-0.0256416 0.0430703 0)
(-0.0324264 0.043417 0)
(-0.0391709 0.0425395 0)
(-0.0457611 0.0406979 0)
(-0.0521168 0.0380573 0)
(-0.0581735 0.0347 0)
(-0.0638681 0.0306439 0)
(-0.0691261 0.0258618 0)
(-0.0738513 0.0203015 0)
(-0.0779161 0.0139068 0)
(-0.0811549 0.00664076 0)
(-0.0833635 -0.00148582 0)
(-0.0842949 -0.01038 0)
(-0.0836757 -0.0198381 0)
(-0.0812399 -0.0295015 0)
(-0.0767677 -0.0388373 0)
(-0.0701523 -0.0471386 0)
(-0.0614769 -0.0535656 0)
(-0.0510877 -0.0572432 0)
(-0.0396343 -0.0574161 0)
(-0.0280436 -0.0536358 0)
(-0.017396 -0.0459247 0)
(-0.00868926 -0.0348411 0)
(-0.00267514 -0.0213977 0)
(-0.00021085 -0.00691829 0)
(-0.000425658 0.00980131 0)
(-0.00285727 0.0249052 0)
(-0.00762413 0.0358863 0)
(-0.0136026 0.0433174 0)
(-0.0203087 0.0478242 0)
(-0.0274092 0.0500107 0)
(-0.034651 0.0504086 0)
(-0.0418672 0.049444 0)
(-0.0489546 0.0474236 0)
(-0.0558488 0.0445388 0)
(-0.0625036 0.0408812 0)
(-0.0688748 0.0364631 0)
(-0.0749048 0.0312388 0)
(-0.0805098 0.0251263 0)
(-0.0855659 0.0180292 0)
(-0.0898972 0.0098627 0)
(-0.0932644 0.000586999 0)
(-0.0953652 -0.00974835 0)
(-0.0958361 -0.0209677 0)
(-0.0942789 -0.0326981 0)
(-0.0903188 -0.0443312 0)
(-0.0836854 -0.0550011 0)
(-0.074326 -0.0636152 0)
(-0.0625283 -0.0689684 0)
(-0.0490118 -0.0699542 0)
(-0.0349326 -0.0658498 0)
(-0.0217381 -0.0565923 0)
(-0.0108323 -0.0429125 0)
(-0.00329192 -0.0262198 0)
(-0.000239133 -0.00835805 0)
(-0.000455584 0.0113763 0)
(-0.00306351 0.0288081 0)
(-0.00817215 0.0413987 0)
(-0.0145651 0.0498574 0)
(-0.0217189 0.0549506 0)
(-0.0292801 0.0574093 0)
(-0.036989 0.0578706 0)
(-0.0446844 0.0568397 0)
(-0.0522782 0.0546769 0)
(-0.0597272 0.0516044 0)
(-0.0670105 0.0477251 0)
(-0.0741109 0.0430456 0)
(-0.0809986 0.0374995 0)
(-0.087614 0.0309685 0)
(-0.0938501 0.0233048 0)
(-0.0995325 0.0143574 0)
(-0.104399 0.00400912 0)
(-0.108093 -0.00777438 0)
(-0.110145 -0.0208819 0)
(-0.109996 -0.0349674 0)
(-0.107064 -0.0493762 0)
(-0.100838 -0.0630815 0)
(-0.0910372 -0.0746863 0)
(-0.0778007 -0.0825414 0)
(-0.0618616 -0.0850192 0)
(-0.0446199 -0.0809362 0)
(-0.0280006 -0.0700151 0)
(-0.014005 -0.0531638 0)
(-0.00424112 -0.0323433 0)
(-0.000296614 -0.0101587 0)
(-0.000489001 0.0130661 0)
(-0.00329241 0.0329953 0)
(-0.00877554 0.0473005 0)
(-0.0156139 0.0568404 0)
(-0.0232382 0.0625401 0)
(-0.0312718 0.0652765 0)
(-0.0394488 0.0658072 0)
(-0.0476167 0.0647283 0)
(-0.0557065 0.0624619 0)
(-0.0637019 0.0592667 0)
(-0.0716144 0.055261 0)
(-0.0794638 0.0504481 0)
(-0.0872596 0.0447404 0)
(-0.0949818 0.0379792 0)
(-0.102558 0.0299541 0)
(-0.109833 0.020428 0)
(-0.11654 0.0091724 0)
(-0.122276 -0.00397487 0)
(-0.126465 -0.0190176 0)
(-0.128364 -0.0357124 0)
(-0.127134 -0.0534111 0)
(-0.121938 -0.0709482 0)
(-0.112157 -0.0865847 0)
(-0.0976524 -0.0981014 0)
(-0.0790577 -0.103128 0)
(-0.057973 -0.0997383 0)
(-0.0368892 -0.0871942 0)
(-0.0186398 -0.0665114 0)
(-0.00567957 -0.0403821 0)
(-0.000401658 -0.0125213 0)
(-0.000527123 0.0148843 0)
(-0.00355132 0.0374979 0)
(-0.00945084 0.0536268 0)
(-0.0167718 0.0642948 0)
(-0.0248894 0.070609 0)
(-0.0334005 0.0736146 0)
(-0.042033 0.0742082 0)
(-0.0506452 0.0730905 0)
(-0.0591917 0.0707551 0)
(-0.0676882 0.0675049 0)
(-0.0761856 0.0634791 0)
(-0.0847494 0.0586826 0)
(-0.0934407 0.0530096 0)
(-0.102295 0.0462599 0)
(-0.111292 0.0381529 0)
(-0.120324 0.0283457 0)
(-0.129143 0.016465 0)
(-0.13731 0.00216749 0)
(-0.144161 -0.0147505 0)
(-0.148778 -0.0342261 0)
(-0.150019 -0.0557061 0)
(-0.146659 -0.0779479 0)
(-0.137626 -0.0988662 0)
(-0.122348 -0.115562 0)
(-0.101175 -0.12467 0)
(-0.0757591 -0.123132 0)
(-0.0491529 -0.109332 0)
(-0.0252538 -0.0841582 0)
(-0.00780898 -0.0511896 0)
(-0.000579856 -0.0157385 0)
(-0.000571985 0.0168496 0)
(-0.00385149 0.0423568 0)
(-0.0102222 0.0604211 0)
(-0.0180708 0.0722521 0)
(-0.0267043 0.079169 0)
(-0.0356883 0.0824134 0)
(-0.0447444 0.0830429 0)
(-0.0537445 0.081878 0)
(-0.0626699 0.0794952 0)
(-0.0715725 0.0762495 0)
(-0.0805471 0.0723093 0)
(-0.0897113 0.0676884 0)
(-0.099187 0.0622688 0)
(-0.109077 0.0558122 0)
(-0.119436 0.0479645 0)
(-0.13022 0.0382616 0)
(-0.141229 0.0261525 0)
(-0.152034 0.0110556 0)
(-0.161908 -0.00752756 0)
(-0.169772 -0.0298052 0)
(-0.174207 -0.0554405 0)
(-0.173582 -0.0832189 0)
(-0.166292 -0.110763 0)
(-0.151173 -0.134442 0)
(-0.128047 -0.149669 0)
(-0.098324 -0.151797 0)
(-0.0654198 -0.137687 0)
(-0.0344083 -0.107567 0)
(-0.0108814 -0.0658954 0)
(-0.000868229 -0.0202203 0)
(-0.000627069 0.0189879 0)
(-0.00421078 0.0476272 0)
(-0.0111268 0.067739 0)
(-0.0195592 0.0807483 0)
(-0.0287305 0.0882264 0)
(-0.03817 0.0916467 0)
(-0.0475933 0.0922535 0)
(-0.0568885 0.0910046 0)
(-0.0660665 0.0885705 0)
(-0.0752168 0.0853671 0)
(-0.0844793 0.0815998 0)
(-0.0940248 0.0773003 0)
(-0.104038 0.0723484 0)
(-0.114697 0.0664751 0)
(-0.126137 0.0592545 0)
(-0.138401 0.0500926 0)
(-0.151366 0.0382336 0)
(-0.164652 0.0228071 0)
(-0.177524 0.00295226 0)
(-0.188816 -0.0219368 0)
(-0.196914 -0.0518613 0)
(-0.199837 -0.0857809 0)
(-0.195458 -0.12116 0)
(-0.181918 -0.153699 0)
(-0.158234 -0.177483 0)
(-0.125136 -0.185842 0)
(-0.0859145 -0.173274 0)
(-0.0466192 -0.138328 0)
(-0.015206 -0.0859147 0)
(-0.00132476 -0.0265261 0)
(-0.000698322 0.0213378 0)
(-0.00465776 0.0533867 0)
(-0.0122221 0.0756544 0)
(-0.0213103 0.0898256 0)
(-0.0310401 0.0977795 0)
(-0.0409001 0.101266 0)
(-0.0506022 0.101748 0)
(-0.0600548 0.100338 0)
(-0.0693001 0.0978083 0)
(-0.0784642 0.0946442 0)
(-0.0877278 0.0910947 0)
(-0.0973086 0.0872188 0)
(-0.107448 0.0829041 0)
(-0.11839 0.0778624 0)
(-0.130352 0.0716044 0)
(-0.143468 0.0634077 0)
(-0.157716 0.0523006 0)
(-0.172811 0.0370955 0)
(-0.188093 0.0165174 0)
(-0.20242 -0.0105271 0)
(-0.214133 -0.0445088 0)
(-0.22108 -0.0847114 0)
(-0.22074 -0.128667 0)
(-0.210568 -0.171639 0)
(-0.188569 -0.2065 0)
(-0.154268 -0.224327 0)
(-0.110036 -0.21635 0)
(-0.0621699 -0.177854 0)
(-0.0211464 -0.112898 0)
(-0.00204555 -0.0354048 0)
(-0.000795971 0.0239575 0)
(-0.00523812 0.059747 0)
(-0.0135958 0.0842672 0)
(-0.0234324 0.0995343 0)
(-0.033737 0.107815 0)
(-0.0439566 0.111197 0)
(-0.0538069 0.111393 0)
(-0.0632228 0.109687 0)
(-0.0722804 0.106963 0)
(-0.0811387 0.103775 0)
(-0.0900096 0.10042 0)
(-0.0991435 0.0969887 0)
(-0.108819 0.0933878 0)
(-0.11933 0.0893219 0)
(-0.130955 0.0842531 0)
(-0.143913 0.0773454 0)
(-0.158289 0.0674235 0)
(-0.173939 0.0529888 0)
(-0.190372 0.0323445 0)
(-0.20663 0.00388204 0)
(-0.221204 -0.0334367 0)
(-0.232032 -0.0793725 0)
(-0.236489 -0.131815 0)
(-0.231517 -0.185995 0)
(-0.214065 -0.234004 0)
(-0.182018 -0.264826 0)
(-0.135859 -0.265764 0)
(-0.0807806 -0.22683 0)
(-0.0290828 -0.148558 0)
(-0.0031897 -0.0478404 0)
(-0.000938094 0.0269382 0)
(-0.00602546 0.0668716 0)
(-0.0153813 0.0937131 0)
(-0.0260823 0.109932 0)
(-0.0369637 0.118301 0)
(-0.0474403 0.121321 0)
(-0.0572472 0.120996 0)
(-0.0663596 0.118794 0)
(-0.0748915 0.115707 0)
(-0.0830305 0.112354 0)
(-0.0910071 0.109077 0)
(-0.099084 0.106 0)
(-0.107552 0.103052 0)
(-0.11672 0.099944 0)
(-0.126902 0.0961081 0)
(-0.138377 0.0906246 0)
(-0.151335 0.082156 0)
(-0.165802 0.0689431 0)
(-0.181543 0.0489222 0)
(-0.197944 0.0200144 0)
(-0.213865 -0.019382 0)
(-0.227652 -0.0696836 0)
(-0.236944 -0.129404 0)
(-0.238523 -0.19428 0)
(-0.228514 -0.256369 0)
(-0.203017 -0.303267 0)
(-0.159789 -0.318338 0)
(-0.101158 -0.284405 0)
(-0.0392944 -0.194269 0)
(-0.00500781 -0.065081 0)
(-0.00115809 0.0304252 0)
(-0.00714078 0.0750008 0)
(-0.0177808 0.104173 0)
(-0.0294798 0.121076 0)
(-0.0409025 0.129166 0)
(-0.0514594 0.131459 0)
(-0.0609388 0.130289 0)
(-0.0693792 0.127313 0)
(-0.0769437 0.123618 0)
(-0.0838464 0.119876 0)
(-0.0903246 0.116458 0)
(-0.0966333 0.113516 0)
(-0.103046 0.111002 0)
(-0.109858 0.108638 0)
(-0.117378 0.105854 0)
(-0.125915 0.101687 0)
(-0.135752 0.0947052 0)
(-0.147092 0.0829833 0)
(-0.160008 0.0642078 0)
(-0.174341 0.0359554 0)
(-0.189539 -0.00385372 0)
(-0.20462 -0.0564081 0)
(-0.217833 -0.121011 0)
(-0.226311 -0.19447 0)
(-0.225865 -0.269766 0)
(-0.211129 -0.33437 0)
(-0.176778 -0.368668 0)
(-0.12064 -0.347344 0)
(-0.0517336 -0.250366 0)
(-0.00786048 -0.0886093 0)
(-0.0015209 0.0346582 0)
(-0.00878878 0.0844889 0)
(-0.0211003 0.115878 0)
(-0.0339235 0.132999 0)
(-0.0457609 0.140262 0)
(-0.0560865 0.141325 0)
(-0.0648018 0.138886 0)
(-0.0720495 0.134777 0)
(-0.0780621 0.130159 0)
(-0.0830864 0.125726 0)
(-0.0873622 0.12186 0)
(-0.0911236 0.118722 0)
(-0.094608 0.11628 0)
(-0.0980679 0.114275 0)
(-0.10178 0.112153 0)
(-0.106056 0.108961 0)
(-0.111239 0.103254 0)
(-0.117703 0.0930656 0)
(-0.125821 0.0759847 0)
(-0.135921 0.0494034 0)
(-0.148207 0.0109087 0)
(-0.162462 -0.0412552 0)
(-0.177784 -0.107406 0)
(-0.192212 -0.185803 0)
(-0.201955 -0.271275 0)
(-0.200978 -0.352779 0)
(-0.181275 -0.409764 0)
(-0.135274 -0.409633 0)
(-0.0656887 -0.315218 0)
(-0.0121875 -0.120002 0)
(-0.00215884 0.0400469 0)
(-0.0113261 0.095853 0)
(-0.0258014 0.129093 0)
(-0.0397924 0.145652 0)
(-0.0517168 0.151288 0)
(-0.061247 0.150448 0)
(-0.068501 0.146211 0)
(-0.073789 0.140546 0)
(-0.0774486 0.13464 0)
(-0.079778 0.129173 0)
(-0.0810277 0.124504 0)
(-0.0814119 0.120782 0)
(-0.0811272 0.117976 0)
(-0.080374 0.115847 0)
(-0.0793811 0.113876 0)
(-0.0784368 0.111166 0)
(-0.0779227 0.106347 0)
(-0.078342 0.0975358 0)
(-0.080332 0.0823869 0)
(-0.0846525 0.0582889 0)
(-0.0921265 0.0226904 0)
(-0.103394 -0.0264817 0)
(-0.118598 -0.090521 0)
(-0.136914 -0.169233 0)
(-0.155695 -0.259905 0)
(-0.1694 -0.354559 0)
(-0.168562 -0.434532 0)
(-0.140462 -0.463056 0)
(-0.0794245 -0.384421 0)
(-0.0183493 -0.160599 0)
(-0.00334844 0.0473191 0)
(-0.0153857 0.10983 0)
(-0.0325572 0.144052 0)
(-0.0474888 0.158767 0)
(-0.0587418 0.161633 0)
(-0.0664395 0.158026 0)
(-0.0710778 0.151366 0)
(-0.0732272 0.143687 0)
(-0.0733838 0.13613 0)
(-0.0719304 0.129304 0)
(-0.0691505 0.12351 0)
(-0.0652544 0.118854 0)
(-0.0604086 0.115289 0)
(-0.0547665 0.112587 0)
(-0.0485062 0.110276 0)
(-0.0418788 0.10755 0)
(-0.0352697 0.103188 0)
(-0.0292564 0.0954934 0)
(-0.0246523 0.0823325 0)
(-0.0225261 0.061268 0)
(-0.0241665 0.0298062 0)
(-0.0309309 -0.0143083 0)
(-0.0439093 -0.0729505 0)
(-0.0635261 -0.147233 0)
(-0.0887838 -0.236967 0)
(-0.115836 -0.338299 0)
(-0.135638 -0.437457 0)
(-0.131798 -0.498619 0)
(-0.0899673 -0.450532 0)
(-0.0262483 -0.210886 0)
(-0.00566686 0.0578227 0)
(-0.0220802 0.127405 0)
(-0.0422377 0.160738 0)
(-0.0571492 0.171553 0)
(-0.06607 0.170073 0)
(-0.0700079 0.162644 0)
(-0.0700748 0.152897 0)
(-0.0672248 0.142787 0)
(-0.0621794 0.133305 0)
(-0.0554453 0.124925 0)
(-0.0473657 0.117835 0)
(-0.0381632 0.112064 0)
(-0.0279868 0.107528 0)
(-0.016953 0.103992 0)
(-0.00519032 0.101032 0)
(0.00710341 0.0979553 0)
(0.0195763 0.0937232 0)
(0.0316422 0.0869018 0)
(0.0424195 0.0756668 0)
(0.05068 0.0578894 0)
(0.0548604 0.0313016 0)
(0.0531182 -0.00631693 0)
(0.0436774 -0.0570625 0)
(0.0249927 -0.122866 0)
(-0.00371438 -0.205484 0)
(-0.0411489 -0.305266 0)
(-0.0808583 -0.415669 0)
(-0.105265 -0.508009 0)
(-0.0930935 -0.503476 0)
(-0.0347254 -0.269683 0)
(-0.0102761 0.0741768 0)
(-0.0332442 0.149688 0)
(-0.0554672 0.178336 0)
(-0.0675178 0.182063 0)
(-0.0705633 0.174186 0)
(-0.0671766 0.161801 0)
(-0.0593916 0.14842 0)
(-0.0486705 0.135684 0)
(-0.0360022 0.124285 0)
(-0.0220206 0.114456 0)
(-0.0071191 0.10622 0)
(0.00848804 0.0994905 0)
(0.0246848 0.0941049 0)
(0.0414004 0.0898108 0)
(0.0585755 0.0862217 0)
(0.0760803 0.082759 0)
(0.0936348 0.0785792 0)
(0.110719 0.0725392 0)
(0.126485 0.063178 0)
(0.139697 0.0487643 0)
(0.148695 0.0273942 0)
(0.151379 -0.00291494 0)
(0.145549 -0.0441477 0)
(0.128824 -0.0985188 0)
(0.098979 -0.168796 0)
(0.0546009 -0.258547 0)
(-0.00226016 -0.369114 0)
(-0.0561792 -0.484612 0)
(-0.0833439 -0.531546 0)
(-0.0409747 -0.333827 0)
(-0.0192628 0.101198 0)
(-0.0511515 0.176725 0)
(-0.0700985 0.193739 0)
(-0.0717937 0.185839 0)
(-0.061737 0.16932 0)
(-0.0448517 0.151221 0)
(-0.0242588 0.134257 0)
(-0.00185455 0.119351 0)
(0.0212475 0.106668 0)
(0.0444404 0.0960849 0)
(0.0674257 0.0873874 0)
(0.0900968 0.0803413 0)
(0.112456 0.0746867 0)
(0.134551 0.0701434 0)
(0.15643 0.0663562 0)
(0.178068 0.0628513 0)
(0.199294 0.0589837 0)
(0.219701 0.0539001 0)
(0.238557 0.0465183 0)
(0.254726 0.0355434 0)
(0.266592 0.0195255 0)
(0.272003 -0.00310833 0)
(0.26854 -0.0339367 0)
(0.253267 -0.0749983 0)
(0.222947 -0.129143 0)
(0.174191 -0.20145 0)
(0.104433 -0.299666 0)
(0.0230222 -0.424609 0)
(-0.0533826 -0.523221 0)
(-0.0397942 -0.396977 0)
(-0.0344141 0.144769 0)
(-0.0729152 0.201188 0)
(-0.068687 0.195663 0)
(-0.0433135 0.171731 0)
(-0.00814399 0.146111 0)
(0.0302186 0.123621 0)
(0.0685059 0.10503 0)
(0.105251 0.0899822 0)
(0.139869 0.0778982 0)
(0.17225 0.0682343 0)
(0.202521 0.0605348 0)
(0.230918 0.0544278 0)
(0.257717 0.0495938 0)
(0.283186 0.0457405 0)
(0.307543 0.0425615 0)
(0.330907 0.0396981 0)
(0.353236 0.0367029 0)
(0.374253 0.0330103 0)
(0.39336 0.0279208 0)
(0.409578 0.0205985 0)
(0.421421 0.0100866 0)
(0.426917 -0.00468629 0)
(0.423573 -0.0247034 0)
(0.408177 -0.0514444 0)
(0.376875 -0.0871535 0)
(0.325358 -0.136577 0)
(0.247223 -0.210144 0)
(0.144914 -0.325847 0)
(0.0107147 -0.465941 0)
(-0.0183759 -0.440701 0)
(-0.0374087 0.236256 0)
(-0.0468764 0.204465 0)
(0.0291781 0.154083 0)
(0.101555 0.118088 0)
(0.168882 0.0911546 0)
(0.228983 0.0712202 0)
(0.281512 0.0567095 0)
(0.327207 0.0460788 0)
(0.367091 0.0381675 0)
(0.402158 0.0322057 0)
(0.433283 0.0276808 0)
(0.461214 0.0242332 0)
(0.486577 0.0215939 0)
(0.509877 0.0195445 0)
(0.5315 0.0178849 0)
(0.551683 0.016406 0)
(0.570485 0.0148678 0)
(0.587734 0.0129832 0)
(0.602959 0.010411 0)
(0.615343 0.00676716 0)
(0.623545 0.00161607 0)
(0.626059 -0.00540139 0)
(0.620597 -0.0149376 0)
(0.604225 -0.0276935 0)
(0.572896 -0.0447457 0)
(0.522506 -0.0691512 0)
(0.443101 -0.108652 0)
(0.333461 -0.189692 0)
(0.142826 -0.336912 0)
(0.0603402 -0.413409 0)
(0.231286 0.158548 0)
(0.291638 0.117245 0)
(0.441592 0.0761032 0)
(0.540858 0.0507787 0)
(0.608186 0.0344011 0)
(0.657781 0.0235664 0)
(0.695755 0.0164886 0)
(0.725454 0.0118747 0)
(0.749222 0.00882612 0)
(0.768721 0.00677726 0)
(0.785102 0.00538206 0)
(0.799172 0.00442298 0)
(0.811515 0.00375686 0)
(0.822552 0.00328356 0)
(0.832567 0.00292535 0)
(0.841722 0.00261276 0)
(0.850039 0.00227451 0)
(0.857386 0.00183228 0)
(0.863448 0.0011952 0)
(0.867712 0.00027789 0)
(0.869436 -0.00102507 0)
(0.867619 -0.0026556 0)
(0.86078 -0.00490082 0)
(0.847585 -0.00793233 0)
(0.825331 -0.0119067 0)
(0.792084 -0.01775 0)
(0.736139 -0.0275115 0)
(0.657981 -0.0496211 0)
(0.455006 -0.110527 0)
(0.313375 -0.177757 0)
)
;

boundaryField
{
    movingWall
    {
        type            fixedValue;
        value           uniform (1 0 0);
    }
    fixedWalls
    {
        type            noSlip;
    }
    frontAndBack
    {
        type            empty;
    }
}


// ************************************************************************* //
