/*--------------------------------*- C++ -*----------------------------------*\
  =========                 |
  \\      /  F ield         | OpenFOAM: The Open Source CFD Toolbox
   \\    /   O peration     | Website:  https://openfoam.org
    \\  /    A nd           | Version:  7
     \\/     M anipulation  |
\*---------------------------------------------------------------------------*/
FoamFile
{
    version     2.0;
    format      ascii;
    class       surfaceScalarField;
    location    "6";
    object      phi;
}
// * * * * * * * * * * * * * * * * * * * * * * * * * * * * * * * * * * * * * //

dimensions      [0 3 -1 0 0 0 0];

internalField   nonuniform List<scalar> 
1740
(
4.20927e-07
-4.20935e-07
-6.28858e-07
1.04979e-06
-3.2318e-06
2.60294e-06
-7.03893e-06
3.80712e-06
-1.16507e-05
4.61174e-06
-1.67252e-05
5.0745e-06
-2.20009e-05
5.2757e-06
-2.72828e-05
5.28198e-06
-3.24187e-05
5.13582e-06
-3.72759e-05
4.8572e-06
-4.17247e-05
4.44884e-06
-4.56272e-05
3.90252e-06
-4.88329e-05
3.20564e-06
-5.11808e-05
2.34796e-06
-5.25091e-05
1.32833e-06
-5.26698e-05
1.60683e-07
-5.15456e-05
-1.12419e-06
-4.90784e-05
-2.46722e-06
-4.52892e-05
-3.78924e-06
-4.0297e-05
-4.9922e-06
-3.4329e-05
-5.96795e-06
-2.77178e-05
-6.61125e-06
-2.08828e-05
-6.83501e-06
-1.42977e-05
-6.58502e-06
-8.44632e-06
-5.85142e-06
-3.77116e-06
-4.67516e-06
-6.13311e-07
-3.15785e-06
8.79802e-07
-1.49311e-06
8.49483e-07
3.03194e-08
8.49484e-07
-1.0499e-06
6.28965e-07
-5.33503e-06
5.33491e-06
-1.27821e-05
1.005e-05
-2.27534e-05
1.37785e-05
-3.45156e-05
1.63739e-05
-4.7378e-05
1.79369e-05
-6.07501e-05
1.86478e-05
-7.41434e-05
1.86753e-05
-8.71458e-05
1.81382e-05
-9.93885e-05
1.71e-05
-0.000110517
1.55775e-05
-0.000120172
1.35572e-05
-0.000127981
1.10144e-05
-0.000133566
7.93323e-06
-0.000136564
4.32689e-06
-0.000136665
2.61463e-07
-0.000133634
-4.1553e-06
-0.000127384
-8.71777e-06
-0.000118006
-1.31673e-05
-0.000105808
-1.71894e-05
-9.13334e-05
-2.04428e-05
-7.53453e-05
-2.25993e-05
-5.87891e-05
-2.33912e-05
-4.27169e-05
-2.26573e-05
-2.81868e-05
-2.03815e-05
-1.61446e-05
-1.67174e-05
-7.29134e-06
-1.20111e-05
-1.95107e-06
-6.83339e-06
1.06354e-07
-2.0271e-06
9.55838e-07
-2.74844e-06
3.37741e-06
-1.05218e-05
1.31082e-05
-2.25656e-05
2.20938e-05
-3.79588e-05
2.91717e-05
-5.57279e-05
3.4143e-05
-7.49621e-05
3.7171e-05
-9.48596e-05
3.85453e-05
-0.00011473
3.85462e-05
-0.000133972
3.73794e-05
-0.000152033
3.51612e-05
-0.000168385
3.19295e-05
-0.000182498
2.76702e-05
-0.000193835
2.23517e-05
-0.000201863
1.59615e-05
-0.000206081
8.54446e-06
-0.00020607
2.5038e-07
-0.000201517
-8.7083e-06
-0.000192327
-1.79078e-05
-0.000178646
-2.68483e-05
-0.000160917
-3.49179e-05
-0.000139903
-4.14573e-05
-0.000116667
-4.58348e-05
-9.25222e-05
-4.75364e-05
-6.89226e-05
-4.62569e-05
-4.73285e-05
-4.19755e-05
-2.90396e-05
-3.50063e-05
-1.50224e-05
-2.60282e-05
-5.74816e-06
-1.61077e-05
-1.04719e-06
-6.72806e-06
-9.13546e-08
-4.2913e-06
7.66871e-06
-1.53278e-05
2.41447e-05
-3.16412e-05
3.84072e-05
-5.19079e-05
4.94384e-05
-7.49133e-05
5.71484e-05
-9.95717e-05
6.18294e-05
-0.000124935
6.39084e-05
-0.000150177
6.37882e-05
-0.000174564
6.17667e-05
-0.000197418
5.80152e-05
-0.000218083
5.25938e-05
-0.000235901
4.54887e-05
-0.000250212
3.66625e-05
-0.000260361
2.61102e-05
-0.000265733
1.39166e-05
-0.000265808
3.25718e-07
-0.000260209
-1.43078e-05
-0.000248798
-2.93179e-05
-0.000231738
-4.39087e-05
-0.000209548
-5.71083e-05
-0.000183139
-6.78664e-05
-0.000153802
-7.51712e-05
-0.000123145
-7.81939e-05
-9.29638e-05
-7.64378e-05
-6.50749e-05
-6.98645e-05
-4.11049e-05
-5.89763e-05
-2.2286e-05
-4.48471e-05
-9.28081e-06
-2.91129e-05
-2.06829e-06
-1.39406e-05
-2.15964e-06
-5.61227e-06
1.3281e-05
-1.95812e-05
3.81136e-05
-3.97649e-05
5.85909e-05
-6.44195e-05
7.4093e-05
-9.20764e-05
8.48053e-05
-0.00012149
9.12433e-05
-0.0001516
9.40183e-05
-0.000181489
9.36767e-05
-0.000210338
9.06162e-05
-0.000237387
8.50642e-05
-0.000261893
7.70997e-05
-0.000283108
6.67036e-05
-0.000300271
5.38258e-05
-0.000312622
3.84615e-05
-0.000319435
2.07294e-05
-0.000320071
9.61645e-07
-0.000314054
-2.0325e-05
-0.000301154
-4.22181e-05
-0.00028148
-6.35824e-05
-0.00025556
-8.30279e-05
-0.000224393
-9.90336e-05
-0.000189452
-0.000110113
-0.000152621
-0.000115025
-0.000116056
-0.000113002
-8.1973e-05
-0.000103948
-5.23875e-05
-8.85618e-05
-2.88618e-05
-6.83728e-05
-1.23015e-05
-4.56732e-05
-2.85677e-06
-2.33853e-05
-5.01641e-06
-6.732e-06
2.0013e-05
-2.32919e-05
5.46735e-05
-4.6949e-05
8.2248e-05
-7.55604e-05
0.000102704
-0.000107409
0.000116654
-0.000141099
0.000124934
-0.000175481
0.0001284
-0.000209576
0.000127773
-0.000242522
0.000123562
-0.000273512
0.000116054
-0.000301753
0.00010534
-0.000326433
9.13835e-05
-0.000346711
7.41037e-05
-0.000361723
5.34736e-05
-0.000370616
2.9622e-05
-0.000372597
2.94358e-06
-0.000367029
-2.58936e-05
-0.000353509
-5.57384e-05
-0.000332003
-8.50882e-05
-0.000302954
-0.000112077
-0.000267373
-0.000134614
-0.000226877
-0.000150609
-0.000183643
-0.000158259
-0.000140253
-0.000156392
-9.9439e-05
-0.000144762
-6.37444e-05
-0.000124256
-3.51866e-05
-9.69306e-05
-1.49876e-05
-6.58722e-05
-3.44751e-06
-3.49254e-05
-8.46393e-06
-7.69273e-06
2.77057e-05
-2.65401e-05
7.35209e-05
-5.33129e-05
0.000109021
-8.55104e-05
0.000134902
-0.000121185
0.000152328
-0.000158809
0.000162558
-0.000197162
0.000166753
-0.000235235
0.000165846
-0.000272152
0.000160479
-0.000307097
0.000150999
-0.00033926
0.000137502
-0.000367791
0.000119915
-0.000391786
9.80979e-05
-0.000410274
7.19617e-05
-0.00042225
4.15977e-05
-0.00042672
7.41374e-06
-0.000422798
-2.98157e-05
-0.000409803
-6.87326e-05
-0.000387434
-0.000107458
-0.000355919
-0.000143592
-0.000316174
-0.000174359
-0.000269902
-0.00019688
-0.000219588
-0.000208574
-0.000168345
-0.000207635
-0.000119597
-0.000193509
-7.66363e-05
-0.000167217
-4.21372e-05
-0.00013143
-1.77642e-05
-9.02452e-05
-3.96979e-06
-4.87198e-05
-1.24337e-05
-8.53323e-06
3.62389e-05
-2.9417e-05
9.44046e-05
-5.90013e-05
0.000138605
-9.44744e-05
0.000170375
-0.000133687
0.000191541
-0.000174998
0.00020387
-0.000217143
0.000208897
-0.000259109
0.000207812
-0.000300042
0.000201412
-0.000339154
0.00019011
-0.000375651
0.000174
-0.00040868
0.000152945
-0.000437288
0.000126706
-0.000460401
9.50749e-05
-0.000476836
5.80329e-05
-0.00048534
1.59172e-05
-0.000484684
-3.04718e-05
-0.000473771
-7.96449e-05
-0.000451866
-0.000129363
-0.000418806
-0.000176652
-0.000375252
-0.000217913
-0.000322885
-0.000249247
-0.000264487
-0.000266971
-0.000203813
-0.00026831
-0.000145212
-0.00025211
-9.30365e-05
-0.000219393
-5.09308e-05
-0.000173535
-2.12249e-05
-0.000119951
-4.59468e-06
-6.535e-05
-1.70284e-05
-9.28158e-06
4.55205e-05
-3.19981e-05
0.000117121
-6.41412e-05
0.000170748
-0.000102631
0.000208865
-0.000145147
0.000234057
-0.000189963
0.000248685
-0.000235792
0.000254726
-0.000281653
0.000253674
-0.00032675
0.000246508
-0.000370361
0.000233722
-0.000411757
0.000215395
-0.000450117
0.000191304
-0.000484468
0.000161057
-0.000513645
0.000124252
-0.000536269
8.06575e-05
-0.000550771
3.04182e-05
-0.000555482
-2.57601e-05
-0.000548726
-8.64013e-05
-0.00052913
-0.000148959
-0.000495907
-0.000209875
-0.000449225
-0.000264595
-0.000390562
-0.00030791
-0.000322915
-0.000334618
-0.000250762
-0.000340463
-0.00017965
-0.000323223
-0.000115402
-0.000283641
-6.30984e-05
-0.000225839
-2.61101e-05
-0.000156939
-5.52547e-06
-8.59347e-05
-2.25539e-05
-9.95555e-06
5.54761e-05
-3.43368e-05
0.000141502
-6.88253e-05
0.000205237
-0.00011011
0.00025015
-0.000155727
0.000279673
-0.000203888
0.000296846
-0.000253318
0.000304156
-0.000303099
0.000303455
-0.000352534
0.000295943
-0.000401018
0.000282206
-0.000447932
0.000262309
-0.000492539
0.000235912
-0.000533896
0.000202413
-0.000570769
0.000161125
-0.000601586
0.000111474
-0.000624412
5.32446e-05
-0.000637062
-1.31099e-05
-0.000637091
-8.63724e-05
-0.000622275
-0.000163775
-0.00059091
-0.00024124
-0.00054236
-0.000313146
-0.000477599
-0.00037267
-0.000399653
-0.000412564
-0.000313715
-0.000426401
-0.000226775
-0.000410162
-0.000146643
-0.000363773
-8.04841e-05
-0.000291997
-3.33123e-05
-0.000204111
-7.00179e-06
-0.000112245
-2.95557e-05
-1.05648e-05
6.60408e-05
-3.64655e-05
0.000167403
-7.31104e-05
0.000241882
-0.000116984
0.000294024
-0.000165501
0.00032819
-0.000216837
0.000348182
-0.000269754
0.000357074
-0.000323434
0.000357135
-0.000377321
0.00034983
-0.000430979
0.000335865
-0.000483962
0.000315292
-0.000535678
0.000287628
-0.000585269
0.000252005
-0.000631489
0.000207345
-0.000672593
0.000152578
-0.000706271
8.6923e-05
-0.000729719
1.03378e-05
-0.000739638
-7.64535e-05
-0.000732695
-0.000170718
-0.000705965
-0.00026797
-0.000657625
-0.000361486
-0.000587741
-0.000442554
-0.000499
-0.000501306
-0.000397127
-0.000528274
-0.00029069
-0.000516598
-0.000190019
-0.000464444
-0.000105227
-0.000376789
-4.38838e-05
-0.000265455
-9.30532e-06
-0.000146824
-3.8861e-05
-1.11135e-05
7.71543e-05
-3.84017e-05
0.000194691
-7.7025e-05
0.000280505
-0.000123279
0.000340277
-0.00017447
0.000379381
-0.000228755
0.000402467
-0.000284957
0.000413276
-0.000342391
0.000414569
-0.000400685
0.000408123
-0.000459623
0.000394804
-0.000518992
0.000374661
-0.000578418
0.000347053
-0.000637202
0.000310789
-0.00069415
0.000264293
-0.000747406
0.000205834
-0.000794325
0.000133843
-0.000831377
4.73892e-05
-0.000854484
-5.33456e-05
-0.00085894
-0.000166262
-0.000840349
-0.00028656
-0.000795312
-0.000406523
-0.000722474
-0.000515392
-0.000623618
-0.000600161
-0.000504528
-0.000647365
-0.0003752
-0.000645926
-0.000248897
-0.000590748
-0.000139695
-0.000485991
-5.90347e-05
-0.000346115
-1.27653e-05
-0.000193093
-5.16263e-05
-1.16044e-05
8.87588e-05
-4.01577e-05
0.000223245
-8.05852e-05
0.000320932
-0.000128993
0.000388685
-0.000182581
0.000432969
-0.000239494
0.000459379
-0.000298634
0.000472417
-0.000359471
0.000475406
-0.000421854
0.000470506
-0.000485832
0.000458782
-0.000551479
0.000440308
-0.000618704
0.000414278
-0.000687044
0.000379129
-0.000755441
0.00033269
-0.000822011
0.000272403
-0.000883841
0.000195673
-0.000936854
0.000100402
-0.000976049
-1.41513e-05
-0.000995409
-0.000146902
-0.000988942
-0.000293028
-0.000951343
-0.000444122
-0.0008793
-0.000587435
-0.00077293
-0.000706531
-0.000637213
-0.000783082
-0.000482931
-0.000800208
-0.000326292
-0.000747388
-0.000186331
-0.000625952
-8.01182e-05
-0.000452327
-1.77667e-05
-0.000255445
-6.9393e-05
-1.20437e-05
0.000100802
-4.17558e-05
0.000252957
-8.3819e-05
0.000362996
-0.00013413
0.000438996
-0.000189768
0.000488607
-0.000248859
0.00051847
-0.000310389
0.000533946
-0.000373995
0.000539012
-0.000439765
0.000536276
-0.000508041
0.000527058
-0.000579221
0.000511487
-0.000653542
0.000488599
-0.000730845
0.000456432
-0.000810295
0.00041214
-0.000890091
0.000352199
-0.000967206
0.000272788
-0.00103722
0.000170412
-0.00109422
4.28524e-05
-0.00113135
-0.000109768
-0.00114095
-0.000283433
-0.00111572
-0.000469348
-0.00104997
-0.00065319
-0.000941268
-0.00081523
-0.000792549
-0.000931801
-0.000614038
-0.000978719
-0.000424122
-0.000937304
-0.000247374
-0.0008027
-0.000108589
-0.000591113
-2.47629e-05
-0.000339271
-9.41559e-05
-1.24477e-05
0.00011325
-4.32473e-05
0.000283756
-8.68005e-05
0.000406549
-0.000138747
0.000490943
-0.000196009
0.000545869
-0.000256675
0.000579136
-0.000319802
0.000597073
-0.000385192
0.000604402
-0.000453169
0.000604253
-0.000524365
0.000598254
-0.000599505
0.000586627
-0.000679174
0.000568269
-0.00076355
0.000540808
-0.000852093
0.000500683
-0.00094322
0.000443326
-0.00103399
0.00036356
-0.00111989
0.000256311
-0.00119472
0.000117682
-0.00125084
-5.36528e-05
-0.00127955
-0.000254721
-0.00127177
-0.000477122
-0.00121924
-0.000705719
-0.00111625
-0.000918225
-0.000962147
-0.0010859
-0.000764539
-0.00117633
-0.000542061
-0.00115978
-0.000324343
-0.00102042
-0.000145895
-0.000769561
-3.42872e-05
-0.000450878
-0.000128443
-1.28522e-05
0.000126102
-4.47394e-05
0.000315644
-8.96929e-05
0.000451502
-0.000143011
0.000544261
-0.0002014
0.000604259
-0.000262875
0.000640611
-0.000326541
0.000660739
-0.000392341
0.000670202
-0.000460806
0.000672718
-0.000532824
0.000670272
-0.000609413
0.000663215
-0.000691475
0.000650331
-0.000779527
0.000628859
-0.000873376
0.000594532
-0.000971785
0.000541736
-0.00107215
0.000463929
-0.00117027
0.000354423
-0.00126018
0.000207596
-0.0013341
2.02709e-05
-0.00138314
-0.000205686
-0.00139699
-0.000463267
-0.00136514
-0.000737572
-0.00127819
-0.00100518
-0.00113054
-0.00123355
-0.000924598
-0.00138227
-0.000676021
-0.00140836
-0.000417171
-0.00127927
-0.000193236
-0.000993495
-4.69476e-05
-0.000597167
-0.000175391
-1.33242e-05
0.000139427
-4.64277e-05
0.000348747
-9.28028e-05
0.000497877
-0.00014727
0.000598728
-0.000206238
0.000663227
-0.000267602
0.000701975
-0.000330483
0.000723621
-0.000394929
0.000734648
-0.000461629
0.000739418
-0.000531661
0.000740304
-0.000606261
0.000737815
-0.000686584
0.000730654
-0.000773442
0.000715717
-0.000867011
0.000688101
-0.000966523
0.000641248
-0.00106998
0.000567381
-0.00117389
0.00045834
-0.00127317
0.000306869
-0.00136102
0.000108128
-0.0014287
-0.000138014
-0.00146617
-0.000425794
-0.00146138
-0.00074236
-0.00140155
-0.00106501
-0.00127533
-0.00135977
-0.00107752
-0.00158007
-0.00081659
-0.00166929
-0.000523009
-0.00157285
-0.000251125
-0.00126538
-6.33907e-05
-0.000784901
-0.000238781
-1.39792e-05
0.000153406
-4.86415e-05
0.000383409
-9.66463e-05
0.000545882
-0.000152134
0.000654216
-0.000211112
0.000722205
-0.000271311
0.000762174
-0.000331844
0.000784154
-0.000392827
0.000795632
-0.00045505
0.000801641
-0.000519699
0.000804953
-0.000588131
0.000806248
-0.00066166
0.000804183
-0.000741329
0.000795386
-0.000827681
0.000774453
-0.000920518
0.000734084
-0.00101867
0.000665534
-0.00111982
0.000559487
-0.00122032
0.000407373
-0.00131511
0.000202919
-0.00139672
-5.64015e-05
-0.00145662
-0.000365896
-0.00148244
-0.00071654
-0.00145914
-0.00108831
-0.00136996
-0.00144895
-0.00120063
-0.0017494
-0.00094831
-0.00192162
-0.000634991
-0.00188617
-0.00031874
-0.00158163
-8.42302e-05
-0.00101941
-0.000323011
-1.50068e-05
0.000168413
-5.1905e-05
0.000420307
-0.000102032
0.000596009
-0.00015856
0.000710744
-0.000216984
0.000780629
-0.000274853
0.000820043
-0.000331274
0.000840575
-0.000386421
0.000850779
-0.000441137
0.000856356
-0.000496643
0.000860459
-0.000554325
0.00086393
-0.00061556
0.000865418
-0.000681562
0.000861388
-0.000753228
0.00084612
-0.000830998
0.000811854
-0.000914717
0.000749254
-0.00100352
0.00064829
-0.00109567
0.000499525
-0.00118836
0.00029561
-0.00127678
3.20168e-05
-0.00135422
-0.000288461
-0.00140994
-0.000660819
-0.00142841
-0.00106984
-0.00138904
-0.00148832
-0.00126882
-0.00186962
-0.00105086
-0.00213958
-0.000741565
-0.00219546
-0.000393181
-0.00193001
-0.000109962
-0.00130263
-0.000432973
-1.67157e-05
0.000185128
-5.70289e-05
0.000460621
-0.000110165
0.000649145
-0.000167942
0.00076852
-0.000225252
0.000837939
-0.000279506
0.000874297
-0.000329875
0.000890945
-0.00037663
0.000897534
-0.000420664
0.00090039
-0.000463192
0.000902987
-0.000505567
0.000906305
-0.000549171
0.000909023
-0.000595344
0.000907561
-0.000645333
0.000896108
-0.000700257
0.000866778
-0.000761072
0.000810069
-0.00082851
0.000715728
-0.000902934
0.000573948
-0.000983991
0.000376667
-0.00107052
0.000118542
-0.00115765
-0.000201324
-0.00123804
-0.000580429
-0.00129772
-0.00101017
-0.0013149
-0.00147114
-0.00126017
-0.00192436
-0.00110256
-0.00229719
-0.000827392
-0.00247062
-0.00046896
-0.00228845
-0.000140894
-0.0016307
-0.000573867
-1.96152e-05
0.000204743
-6.52564e-05
0.000506262
-0.000122788
0.000706677
-0.000182188
0.00082792
-0.000237743
0.000893493
-0.000286896
0.000923451
-0.000329061
0.000933109
-0.000364726
0.000933199
-0.000394896
0.000930561
-0.000420796
0.000928887
-0.00044374
0.000929249
-0.000465101
0.000930383
-0.000486338
0.000928798
-0.000509052
0.000918823
-0.000535055
0.000892781
-0.000566414
0.000841428
-0.000605439
0.000754753
-0.000654545
0.000623054
-0.000715916
0.000438038
-0.000791021
0.000193648
-0.000878842
-0.000113504
-0.000975141
-0.00048413
-0.00106951
-0.000915795
-0.00114217
-0.00139847
-0.00116136
-0.00190517
-0.0010851
-0.00237344
-0.00087577
-0.00267996
-0.000538055
-0.00262616
-0.000177071
-0.00199168
-0.000750938
-2.4575e-05
0.000229318
-7.85007e-05
0.000560188
-0.00014235
0.000770527
-0.000203749
0.000889319
-0.000256576
0.00094632
-0.000298699
0.000965574
-0.000330113
0.000964523
-0.000351757
0.000954843
-0.000364889
0.000943693
-0.000370825
0.000934822
-0.000370888
0.000929312
-0.000366477
0.000925972
-0.000359188
0.000921509
-0.000350974
0.000910609
-0.000344301
0.000886107
-0.000342245
0.000839372
-0.000348512
0.000761021
-0.000367293
0.000641835
-0.000402914
0.000473659
-0.00045921
0.000249944
-0.000538525
-3.41889e-05
-0.000640099
-0.000382555
-0.000758183
-0.000797712
-0.000877827
-0.00127883
-0.000969804
-0.0018132
-0.00098699
-0.00235626
-0.00087148
-0.00279547
-0.000590523
-0.00290712
-0.000218027
-0.00236418
-0.000968965
-3.31408e-05
0.000262459
-9.97284e-05
0.000626775
-0.000172185
0.000842984
-0.00023546
0.000952593
-0.000283669
0.00099453
-0.000315843
0.000997747
-0.000333112
0.000981792
-0.000337224
0.000958955
-0.00032991
0.000936379
-0.000312717
0.00091763
-0.000287074
0.000903668
-0.000254456
0.000893354
-0.000216613
0.000883666
-0.000175808
0.000869804
-0.000135057
0.000845356
-9.82548e-05
0.000802569
-7.02126e-05
0.000732978
-5.64422e-05
0.000628065
-6.27782e-05
0.000479995
-9.49029e-05
0.000282069
-0.000157764
2.86719e-05
-0.000253955
-0.000286364
-0.000382658
-0.00066901
-0.000535686
-0.0011258
-0.000690846
-0.00165804
-0.000803326
-0.00224378
-0.000802061
-0.00279673
-0.000614965
-0.00309422
-0.000262076
-0.00271707
-0.00123104
-4.81497e-05
0.000310609
-0.000133504
0.00071213
-0.000216472
0.000925952
-0.00027979
0.00101591
-0.000319311
0.00103405
-0.000336483
0.00101492
-0.000334385
0.000979694
-0.000316053
0.000940623
-0.000283979
0.000904305
-0.000240118
0.000873769
-0.000186102
0.000849652
-0.000123528
0.000830779
-5.4269e-05
0.000814408
1.92045e-05
0.000796331
9.36067e-05
0.000770954
0.000164566
0.00073161
0.000226651
0.000670894
0.000273478
0.000581238
0.000298049
0.000455423
0.000293273
0.000286845
0.00025257
6.93744e-05
0.00017038
-0.000204173
4.33131e-05
-0.000541943
-0.000127526
-0.000954963
-0.000330788
-0.00145477
-0.000531606
-0.00204296
-0.000656187
-0.00267215
-0.000597684
-0.00315272
-0.000304661
-0.00301009
-0.0015357
-7.48569e-05
0.000385466
-0.000186468
0.000823741
-0.000279141
0.00101862
-0.000336134
0.0010729
-0.000358062
0.00105598
-0.00035076
0.00100762
-0.00032034
0.000949273
-0.000271701
0.000891985
-0.000208397
0.000841001
-0.00013294
0.000798311
-4.7212e-05
0.000763925
4.70995e-05
0.000736468
0.000148126
0.000713382
0.000253457
0.000691
0.000359781
0.00066463
0.000462703
0.000628687
0.000556641
0.000576956
0.000634922
0.000502956
0.000690061
0.000400284
0.000714138
0.000262768
0.000699192
8.43198e-05
0.000637407
-0.000142388
0.000521659
-0.000426195
0.000346178
-0.000779482
0.00011135
-0.00121995
-0.000164267
-0.00176734
-0.000418835
-0.00241758
-0.00051977
-0.00305178
-0.00033565
-0.00319421
-0.00187135
-0.000122778
0.000508244
-0.000266367
0.000967329
-0.000358561
0.00111082
-0.000391817
0.00110616
-0.000377035
0.0010412
-0.000327238
0.000957821
-0.000252807
0.000874842
-0.00016098
0.000800158
-5.64657e-05
0.000736487
5.77438e-05
0.000684102
0.00017968
0.000641989
0.000307835
0.000608313
0.000440654
0.000580563
0.000576107
0.000555546
0.000711345
0.000529392
0.000842423
0.000497609
0.000964162
0.000455218
0.00107016
0.000396963
0.00115292
0.000317517
0.00120412
0.000211574
0.00121466
7.37725e-05
0.00117499
-0.00010271
0.00107484
-0.000326049
0.000903027
-0.000607669
0.000649386
-0.000966303
0.000314935
-0.00143289
-5.86178e-05
-0.00204403
-0.000351593
-0.00275881
-0.000340526
-0.00320528
-0.00221188
-0.000208
0.000716245
-0.000372298
0.00113163
-0.000426066
0.00116459
-0.000393197
0.00107329
-0.000303466
0.000951466
-0.000179871
0.000834226
-3.72695e-05
0.000732241
0.000115427
0.000647461
0.000273231
0.000578682
0.000433564
0.000523769
0.000595168
0.000480385
0.000757359
0.000446122
0.000919476
0.000418446
0.00108042
0.000394599
0.0012383
0.000371517
0.0013901
0.000345807
0.00153154
0.000313782
0.00165695
0.000271551
0.00175934
0.000215126
0.00183039
0.000140528
0.00186013
4.40261e-05
0.00183786
-8.0438e-05
0.00175075
-0.000238942
0.00158361
-0.000440522
0.00131867
-0.000701363
0.000939282
-0.00105351
0.000451244
-0.00155599
-3.98189e-05
-0.00226775
-0.000278322
-0.00296677
-0.0024902
-0.000342352
0.0010586
-0.000433391
0.00122267
-0.000344306
0.0010755
-0.000160335
0.000889318
6.34488e-05
0.000727683
0.000298752
0.000598922
0.000531521
0.000499473
0.000755677
0.000423305
0.000969337
0.000365022
0.00117269
0.000320418
0.00136681
0.000286262
0.00155299
0.000259946
0.00173223
0.000239206
0.00190491
0.000221911
0.0020705
0.000205934
0.00222723
0.000189069
0.002372
0.000169014
0.00250016
0.000143393
0.00260554
0.000109747
0.00268051
6.55545e-05
0.00271507
9.46698e-06
0.00269826
-6.36259e-05
0.00261532
-0.000156005
0.00244895
-0.000274154
0.0021767
-0.000429113
0.00176994
-0.00064674
0.0011992
-0.000985252
0.000509837
-0.00157838
-2.76111e-05
-0.00242932
-0.00251781
-0.000302199
0.0013608
-4.89289e-05
0.000969396
0.000380573
0.000646
0.000801318
0.000468574
0.0011826
0.000346401
0.00152042
0.000261098
0.00181748
0.000202421
0.00207908
0.000161705
0.00231121
0.000132886
0.00251947
0.00011216
0.00270864
9.70883e-05
0.00288262
8.59748e-05
0.00304429
7.75307e-05
0.00319551
7.06888e-05
0.00333696
6.44873e-05
0.00346802
5.80036e-05
0.00358671
5.03281e-05
0.00368953
4.05695e-05
0.00377137
2.79093e-05
0.00382522
1.17023e-05
0.00384441
-9.7217e-06
0.00381779
-3.7003e-05
0.00373171
-6.99243e-05
0.00356996
-0.000112409
0.0033091
-0.000168253
0.0029135
-0.000251135
0.0023248
-0.000396551
0.00148825
-0.000741837
0.000505503
-0.00144658
-0.00201231
0.0013608
0.00233019
0.00297619
0.00344477
0.00379117
0.00405226
0.00425469
0.00441639
0.00454928
0.00466144
0.00475852
0.0048445
0.00492203
0.00499272
0.00505721
0.00511521
0.00516554
0.00520611
0.00523402
0.00524572
0.005236
0.00519899
0.00512907
0.00501666
0.00484841
0.00459727
0.00420072
0.00345888
0.00201231
)
;

boundaryField
{
    movingWall
    {
        type            calculated;
        value           uniform 0;
    }
    fixedWalls
    {
        type            calculated;
        value           uniform 0;
    }
    frontAndBack
    {
        type            empty;
        value           nonuniform 0();
    }
}


// ************************************************************************* //
