/*--------------------------------*- C++ -*----------------------------------*\
  =========                 |
  \\      /  F ield         | OpenFOAM: The Open Source CFD Toolbox
   \\    /   O peration     | Website:  https://openfoam.org
    \\  /    A nd           | Version:  7
     \\/     M anipulation  |
\*---------------------------------------------------------------------------*/
FoamFile
{
    version     2.0;
    format      ascii;
    class       volVectorField;
    location    "6";
    object      U;
}
// * * * * * * * * * * * * * * * * * * * * * * * * * * * * * * * * * * * * * //

dimensions      [0 1 -1 0 0 0 0];

internalField   nonuniform List<vector> 
900
(
(7.13985e-05 -7.04699e-05 0)
(4.83716e-05 7.06173e-06 0)
(-0.000271493 0.000100295 0)
(-0.000820767 0.000169392 0)
(-0.00153464 0.000212312 0)
(-0.00235226 0.000234828 0)
(-0.00322318 0.00024352 0)
(-0.00410969 0.000243254 0)
(-0.00498348 0.00023679 0)
(-0.00582141 0.000225204 0)
(-0.00660207 0.000208403 0)
(-0.0073034 0.000185578 0)
(-0.00790139 0.000155622 0)
(-0.00836988 0.000117518 0)
(-0.00868157 7.07428e-05 0)
(-0.00881008 1.561e-05 0)
(-0.00873256 -4.67295e-05 0)
(-0.0084336 -0.000113327 0)
(-0.00790946 -0.000180032 0)
(-0.00717138 -0.00024152 0)
(-0.0062481 -0.000291746 0)
(-0.00518667 -0.000324709 0)
(-0.00405062 -0.000335331 0)
(-0.00291563 -0.000320287 0)
(-0.00186299 -0.000278592 0)
(-0.000971226 -0.000211832 0)
(-0.000305747 -0.000124936 0)
(8.42832e-05 -2.91752e-05 0)
(0.000191782 5.97812e-05 0)
(8.92106e-05 8.85369e-05 0)
(-4.95493e-06 -5.03697e-05 0)
(-0.000383539 0.000380146 0)
(-0.00139496 0.000837936 0)
(-0.00287762 0.00119789 0)
(-0.00471598 0.00144331 0)
(-0.00679314 0.00158767 0)
(-0.00900087 0.00165218 0)
(-0.0112493 0.00165541 0)
(-0.0134646 0.00160972 0)
(-0.0155828 0.00152123 0)
(-0.0175446 0.0013911 0)
(-0.0192911 0.00121731 0)
(-0.0207611 0.000996558 0)
(-0.0218917 0.000726322 0)
(-0.0226201 0.000406818 0)
(-0.0228889 4.27343e-05 0)
(-0.0226507 -0.000355748 0)
(-0.021877 -0.000770551 0)
(-0.0205667 -0.00117743 0)
(-0.0187522 -0.00154666 0)
(-0.0165042 -0.00184566 0)
(-0.0139324 -0.00204291 0)
(-0.0111816 -0.00211241 0)
(-0.00842139 -0.00203825 0)
(-0.00583164 -0.00181799 0)
(-0.00358413 -0.00146496 0)
(-0.0018211 -0.00101097 0)
(-0.00063323 -0.000512672 0)
(-3.30152e-05 -5.41784e-05 0)
(6.22245e-05 0.000189959 0)
(-0.000105202 0.000274515 0)
(-0.000887065 0.00140282 0)
(-0.00259543 0.00249471 0)
(-0.00492915 0.00336274 0)
(-0.00773 0.00397226 0)
(-0.0108482 0.00434291 0)
(-0.0141398 0.00451273 0)
(-0.0174803 0.00451851 0)
(-0.020763 0.00438686 0)
(-0.0238935 0.00413247 0)
(-0.0267826 0.00375973 0)
(-0.0293429 0.00326626 0)
(-0.0314852 0.00264718 0)
(-0.0331197 0.00189986 0)
(-0.0341587 0.00102855 0)
(-0.0345236 4.85987e-05 0)
(-0.0341512 -0.0010101 0)
(-0.0330049 -0.00210138 0)
(-0.0310871 -0.00316351 0)
(-0.0284457 -0.00412232 0)
(-0.0251807 -0.00489776 0)
(-0.0214459 -0.00541313 0)
(-0.0174423 -0.005606 0)
(-0.013405 -0.00543919 0)
(-0.0095827 -0.00490974 0)
(-0.00621242 -0.00405504 0)
(-0.00348999 -0.00295741 0)
(-0.00153713 -0.00174991 0)
(-0.000380875 -0.000624434 0)
(3.79172e-07 0.000114945 0)
(-0.000192296 0.000870113 0)
(-0.00135012 0.00298522 0)
(-0.00371471 0.00488118 0)
(-0.00682693 0.00636667 0)
(-0.0104788 0.00741073 0)
(-0.0144924 0.00804763 0)
(-0.0186978 0.0083353 0)
(-0.0229471 0.00832989 0)
(-0.0271119 0.00807309 0)
(-0.031076 0.00758876 0)
(-0.0347293 0.00688513 0)
(-0.0379629 0.00595997 0)
(-0.0406671 0.00480761 0)
(-0.0427309 0.00342665 0)
(-0.0440472 0.00182768 0)
(-0.0445191 4.05284e-05 0)
(-0.0440689 -0.00187974 0)
(-0.0426508 -0.00385185 0)
(-0.0402645 -0.00576715 0)
(-0.0369648 -0.00749604 0)
(-0.0328706 -0.00889903 0)
(-0.028167 -0.0098425 0)
(-0.0230989 -0.0102177 0)
(-0.0179557 -0.00996015 0)
(-0.0130458 -0.00906584 0)
(-0.00866493 -0.00760203 0)
(-0.00505955 -0.00571257 0)
(-0.00238555 -0.00361986 0)
(-0.000696429 -0.00162659 0)
(-4.95611e-05 -0.00015052 0)
(-0.000262686 0.00170233 0)
(-0.00175247 0.0050815 0)
(-0.00471293 0.00793788 0)
(-0.00853017 0.0101277 0)
(-0.0129436 0.0116525 0)
(-0.0177467 0.0125753 0)
(-0.0227485 0.0129804 0)
(-0.0277845 0.0129458 0)
(-0.032712 0.0125289 0)
(-0.0374011 0.0117629 0)
(-0.0417279 0.0106595 0)
(-0.0455688 0.0092165 0)
(-0.0487979 0.00742696 0)
(-0.0512875 0.00529064 0)
(-0.052912 0.00282498 0)
(-0.0535551 7.54822e-05 0)
(-0.0531207 -0.00287572 0)
(-0.0515465 -0.00590695 0)
(-0.048819 -0.00885583 0)
(-0.0449888 -0.0115279 0)
(-0.0401819 -0.0137125 0)
(-0.0346053 -0.0152059 0)
(-0.0285425 -0.0158403 0)
(-0.0223371 -0.0155144 0)
(-0.0163625 -0.0142192 0)
(-0.0109824 -0.012055 0)
(-0.00650509 -0.00923582 0)
(-0.00313178 -0.0060848 0)
(-0.000949094 -0.00302126 0)
(-8.02213e-05 -0.000568653 0)
(-0.000319356 0.00273694 0)
(-0.00209745 0.00763787 0)
(-0.00559007 0.0116062 0)
(-0.0100425 0.0145825 0)
(-0.0151428 0.0166275 0)
(-0.0206566 0.0178501 0)
(-0.026374 0.0183698 0)
(-0.032119 0.0182907 0)
(-0.0377405 0.0176878 0)
(-0.0431015 0.0166038 0)
(-0.0480704 0.0150531 0)
(-0.0525142 0.0130318 0)
(-0.0562954 0.01053 0)
(-0.059271 0.00754606 0)
(-0.0612962 0.00410204 0)
(-0.0622312 0.000257212 0)
(-0.0619531 -0.00388004 0)
(-0.0603709 -0.0081457 0)
(-0.0574438 -0.0123185 0)
(-0.0532018 -0.0161294 0)
(-0.0477634 -0.0192821 0)
(-0.0413474 -0.0214846 0)
(-0.0342735 -0.0224905 0)
(-0.0269463 -0.022145 0)
(-0.0198203 -0.0204241 0)
(-0.0133496 -0.017461 0)
(-0.00792785 -0.013551 0)
(-0.00382012 -0.00913518 0)
(-0.00115125 -0.00476822 0)
(-9.25626e-05 -0.00109664 0)
(-0.000366234 0.00394378 0)
(-0.00239553 0.0105992 0)
(-0.00636207 0.015822 0)
(-0.0113876 0.0196638 0)
(-0.0171128 0.022268 0)
(-0.0232775 0.0238053 0)
(-0.0296559 0.024441 0)
(-0.0360643 0.0243115 0)
(-0.0423487 0.0235117 0)
(-0.0483708 0.0220942 0)
(-0.0539972 0.0200751 0)
(-0.0590909 0.0174461 0)
(-0.0635063 0.0141902 0)
(-0.0670865 0.0102997 0)
(-0.0696654 0.00579526 0)
(-0.0710737 0.000744 0)
(-0.0711508 -0.00472405 0)
(-0.0697608 -0.0104049 0)
(-0.0668156 -0.0160154 0)
(-0.0623026 -0.0212021 0)
(-0.0563123 -0.025565 0)
(-0.0490604 -0.0286984 0)
(-0.0408985 -0.0302474 0)
(-0.0323019 -0.0299749 0)
(-0.0238302 -0.0278226 0)
(-0.0160634 -0.0239522 0)
(-0.009518 -0.0187536 0)
(-0.00455252 -0.0128151 0)
(-0.00134159 -0.00686339 0)
(-9.3512e-05 -0.00171184 0)
(-0.000406361 0.00529964 0)
(-0.00265724 0.0139187 0)
(-0.00704827 0.0205293 0)
(-0.0125939 0.0253144 0)
(-0.0188932 0.0285191 0)
(-0.0256632 0.0303919 0)
(-0.032666 0.0311549 0)
(-0.0397145 0.0309831 0)
(-0.0466571 0.0299954 0)
(-0.0533601 0.0282547 0)
(-0.0596947 0.0257773 0)
(-0.0655255 0.022547 0)
(-0.0707031 0.0185338 0)
(-0.0750588 0.013716 0)
(-0.0784036 0.00810273 0)
(-0.0805318 0.00175831 0)
(-0.0812326 -0.00517583 0)
(-0.0803057 -0.0124636 0)
(-0.0775897 -0.0197606 0)
(-0.0730003 -0.0266201 0)
(-0.0665701 -0.032517 0)
(-0.0584881 -0.0368972 0)
(-0.0491263 -0.0392536 0)
(-0.0390381 -0.0392209 0)
(-0.028918 -0.0366708 0)
(-0.0195195 -0.0317806 0)
(-0.0115378 -0.0250503 0)
(-0.00547237 -0.0172582 0)
(-0.00157306 -0.00936341 0)
(-9.12871e-05 -0.00241557 0)
(-0.000441634 0.00678711 0)
(-0.00289063 0.017559 0)
(-0.00766538 0.0256823 0)
(-0.0136868 0.0314874 0)
(-0.0205181 0.0353383 0)
(-0.0278577 0.0375757 0)
(-0.0354594 0.0384895 0)
(-0.0431377 0.0383012 0)
(-0.0507492 0.0371576 0)
(-0.0581716 0.0351337 0)
(-0.0652874 0.0322443 0)
(-0.0719702 0.0284608 0)
(-0.0780728 0.0237327 0)
(-0.0834182 0.0180129 0)
(-0.0877944 0.0112849 0)
(-0.0909536 0.0035931 0)
(-0.0926223 -0.00492707 0)
(-0.0925139 -0.0140225 0)
(-0.0903627 -0.0232947 0)
(-0.0859755 -0.0321982 0)
(-0.0792862 -0.0400596 0)
(-0.0704198 -0.0461326 0)
(-0.0597444 -0.0496963 0)
(-0.0478903 -0.0501881 0)
(-0.0357159 -0.0473495 0)
(-0.0242074 -0.0413416 0)
(-0.0143174 -0.0327884 0)
(-0.00676022 -0.0227167 0)
(-0.00191008 -0.0124053 0)
(-9.46292e-05 -0.00324029 0)
(-0.000473074 0.00839259 0)
(-0.00310107 0.0214896 0)
(-0.00822551 0.0312425 0)
(-0.014685 0.0381435 0)
(-0.0220118 0.0426903 0)
(-0.0298897 0.0453298 0)
(-0.0380689 0.0464311 0)
(-0.0463706 0.0462706 0)
(-0.0546657 0.0450284 0)
(-0.0628508 0.0427937 0)
(-0.0708284 0.0395789 0)
(-0.0784894 0.0353379 0)
(-0.0856971 0.0299909 0)
(-0.092273 0.0234512 0)
(-0.0979844 0.0156573 0)
(-0.102539 0.00660955 0)
(-0.105589 -0.00358885 0)
(-0.10674 -0.0146897 0)
(-0.105589 -0.0262606 0)
(-0.101791 -0.0376586 0)
(-0.0951277 -0.0480399 0)
(-0.0856085 -0.0564158 0)
(-0.0735534 -0.0617717 0)
(-0.0596496 -0.0632486 0)
(-0.0449372 -0.0603607 0)
(-0.0307008 -0.0531899 0)
(-0.0182534 -0.0424832 0)
(-0.00863497 -0.0295881 0)
(-0.00242955 -0.0162249 0)
(-0.0001132 -0.00425532 0)
(-0.000501105 0.0101047 0)
(-0.00329161 0.0256849 0)
(-0.00873622 0.0371772 0)
(-0.0155997 0.0452478 0)
(-0.0233872 0.0505427 0)
(-0.0317714 0.0536284 0)
(-0.0405031 0.0549653 0)
(-0.0494153 0.0548944 0)
(-0.0583998 0.0536354 0)
(-0.0673801 0.0512954 0)
(-0.0762879 0.0478837 0)
(-0.0850421 0.043333 0)
(-0.093527 0.0375234 0)
(-0.101572 0.0303125 0)
(-0.108931 0.02157 0)
(-0.115267 0.0112208 0)
(-0.120152 -0.000700269 0)
(-0.123067 -0.0139819 0)
(-0.123444 -0.0281925 0)
(-0.120737 -0.0426043 0)
(-0.11452 -0.0561891 0)
(-0.104618 -0.0676642 0)
(-0.0912347 -0.0756276 0)
(-0.0750632 -0.078793 0)
(-0.057316 -0.0763011 0)
(-0.0396303 -0.0680375 0)
(-0.0238022 -0.0548365 0)
(-0.011355 -0.0384412 0)
(-0.00322248 -0.0211769 0)
(-0.000158043 -0.00557329 0)
(-0.00052579 0.0119131 0)
(-0.0034638 0.0301219 0)
(-0.00920164 0.0434561 0)
(-0.0164362 0.0527665 0)
(-0.0246476 0.0588609 0)
(-0.0334997 0.0624399 0)
(-0.0427469 0.0640681 0)
(-0.052239 0.0641617 0)
(-0.0618951 0.0629884 0)
(-0.0716731 0.0606779 0)
(-0.0815438 0.057238 0)
(-0.0914649 0.0525761 0)
(-0.101354 0.0465228 0)
(-0.111061 0.0388619 0)
(-0.120337 0.0293674 0)
(-0.12881 0.0178528 0)
(-0.135964 0.00423982 0)
(-0.141158 -0.0113535 0)
(-0.14364 -0.0285313 0)
(-0.142622 -0.0465117 0)
(-0.137418 -0.0640853 0)
(-0.127591 -0.0796356 0)
(-0.113138 -0.0912777 0)
(-0.094663 -0.0971409 0)
(-0.0734894 -0.0957902 0)
(-0.0516208 -0.0867173 0)
(-0.0314586 -0.0707352 0)
(-0.0152163 -0.0500352 0)
(-0.00439573 -0.0277541 0)
(-0.000242134 -0.00735767 0)
(-0.00054708 0.013808 0)
(-0.00361874 0.0347795 0)
(-0.00962468 0.0500501 0)
(-0.0171968 0.0606639 0)
(-0.02579 0.0676041 0)
(-0.0350594 0.0717204 0)
(-0.0447656 0.073696 0)
(-0.0547783 0.0740345 0)
(-0.0650485 0.0730615 0)
(-0.0755756 0.0709359 0)
(-0.0863775 0.0676671 0)
(-0.097461 0.0631349 0)
(-0.108789 0.0571119 0)
(-0.120244 0.0492904 0)
(-0.131592 0.0393199 0)
(-0.142436 0.0268632 0)
(-0.152196 0.0116772 0)
(-0.160106 -0.00627503 0)
(-0.165229 -0.0266774 0)
(-0.166533 -0.048752 0)
(-0.163032 -0.071134 0)
(-0.15396 -0.0918602 0)
(-0.138996 -0.108487 0)
(-0.118516 -0.1184 0)
(-0.0938112 -0.119335 0)
(-0.0671827 -0.110088 0)
(-0.0417127 -0.091213 0)
(-0.0205453 -0.0653238 0)
(-0.00607423 -0.0366052 0)
(-0.000381464 -0.00983153 0)
(-0.000565134 0.0157799 0)
(-0.00375864 0.0396383 0)
(-0.0100104 0.0569303 0)
(-0.0178857 0.0689002 0)
(-0.0268112 0.0767207 0)
(-0.0364316 0.0814068 0)
(-0.0465131 0.0837762 0)
(-0.056947 0.0844338 0)
(-0.067719 0.083774 0)
(-0.0788735 0.0819934 0)
(-0.0904809 0.0791076 0)
(-0.102604 0.0749691 0)
(-0.11526 0.0692854 0)
(-0.128378 0.0616417 0)
(-0.141751 0.051537 0)
(-0.154986 0.0384443 0)
(-0.167463 0.0219074 0)
(-0.178314 0.00168155 0)
(-0.186457 -0.0220794 0)
(-0.190646 -0.0486543 0)
(-0.189596 -0.076583 0)
(-0.182168 -0.10359 0)
(-0.16762 -0.126651 0)
(-0.145917 -0.142283 0)
(-0.118092 -0.147124 0)
(-0.086537 -0.138859 0)
(-0.0549685 -0.117349 0)
(-0.0276819 -0.0854306 0)
(-0.00840393 -0.048547 0)
(-0.00059716 -0.0132882 0)
(-0.000580718 0.0178212 0)
(-0.00388881 0.0446825 0)
(-0.0103702 0.0640698 0)
(-0.0185159 0.077432 0)
(-0.027717 0.0861464 0)
(-0.0376031 0.0914121 0)
(-0.0479439 0.0941985 0)
(-0.0586509 0.0952268 0)
(-0.0697441 0.0949723 0)
(-0.0813125 0.0936785 0)
(-0.0934788 0.0913732 0)
(-0.106363 0.0878835 0)
(-0.120042 0.0828481 0)
(-0.134499 0.0757346 0)
(-0.149572 0.0658714 0)
(-0.164894 0.0525127 0)
(-0.179849 0.0349504 0)
(-0.193536 0.0126813 0)
(-0.204784 -0.0143747 0)
(-0.212202 -0.0456197 0)
(-0.214274 -0.0795911 0)
(-0.209502 -0.113797 0)
(-0.196652 -0.1447 0)
(-0.175096 -0.167915 0)
(-0.145296 -0.178758 0)
(-0.109368 -0.173314 0)
(-0.0714059 -0.150077 0)
(-0.0369386 -0.111573 0)
(-0.0115532 -0.0645639 0)
(-0.000918872 -0.0181043 0)
(-0.00059576 0.0199282 0)
(-0.00402041 0.0499047 0)
(-0.0107282 0.0714474 0)
(-0.0191175 0.0862138 0)
(-0.0285325 0.0958041 0)
(-0.0385802 0.101622 0)
(-0.049029 0.104809 0)
(-0.0598073 0.106218 0)
(-0.0709651 0.106417 0)
(-0.0826306 0.105704 0)
(-0.094973 0.104127 0)
(-0.108164 0.101491 0)
(-0.122335 0.0973656 0)
(-0.137529 0.0910983 0)
(-0.153642 0.0818384 0)
(-0.170365 0.0686076 0)
(-0.187137 0.0504252 0)
(-0.203103 0.0265004 0)
(-0.217104 -0.00351871 0)
(-0.227728 -0.0392627 0)
(-0.233348 -0.0793574 0)
(-0.232196 -0.121262 0)
(-0.222549 -0.161102 0)
(-0.203051 -0.193707 0)
(-0.173267 -0.212987 0)
(-0.134529 -0.212972 0)
(-0.090767 -0.189879 0)
(-0.0485175 -0.144904 0)
(-0.0157068 -0.0857805 0)
(-0.00138916 -0.0247537 0)
(-0.000614115 0.0221053 0)
(-0.004174 0.055313 0)
(-0.0111279 0.079055 0)
(-0.0197486 0.0952034 0)
(-0.0293154 0.105606 0)
(-0.0394038 0.111897 0)
(-0.0497749 0.11541 0)
(-0.0603689 0.117146 0)
(-0.0712587 0.117775 0)
(-0.0826023 0.11766 0)
(-0.094603 0.116871 0)
(-0.107472 0.115197 0)
(-0.121386 0.112146 0)
(-0.136443 0.106948 0)
(-0.152608 0.0985831 0)
(-0.169662 0.0858491 0)
(-0.187152 0.0675003 0)
(-0.204361 0.0424584 0)
(-0.220284 0.0100786 0)
(-0.23361 -0.0295553 0)
(-0.24277 -0.0752907 0)
(-0.24591 -0.124747 0)
(-0.240921 -0.173994 0)
(-0.225693 -0.217377 0)
(-0.198653 -0.247555 0)
(-0.159798 -0.256233 0)
(-0.11209 -0.23637 0)
(-0.0623672 -0.186232 0)
(-0.0210465 -0.113383 0)
(-0.00206903 -0.0338189 0)
(-0.000642728 0.0243715 0)
(-0.00438451 0.0609434 0)
(-0.0116425 0.0869086 0)
(-0.0205071 0.10437 0)
(-0.0301702 0.115457 0)
(-0.0401654 0.12207 0)
(-0.050242 0.125759 0)
(-0.0603475 0.127685 0)
(-0.0705704 0.128631 0)
(-0.0810865 0.129024 0)
(-0.0921181 0.128963 0)
(-0.103898 0.128226 0)
(-0.116636 0.126268 0)
(-0.130477 0.122222 0)
(-0.145462 0.114923 0)
(-0.161486 0.102978 0)
(-0.178263 0.0849155 0)
(-0.195294 0.0594047 0)
(-0.211841 0.0255266 0)
(-0.226855 -0.0169364 0)
(-0.239021 -0.0672181 0)
(-0.246603 -0.123281 0)
(-0.247318 -0.181502 0)
(-0.238448 -0.236217 0)
(-0.217223 -0.279282 0)
(-0.18188 -0.300188 0)
(-0.133496 -0.287863 0)
(-0.0779909 -0.235609 0)
(-0.0277133 -0.148455 0)
(-0.00304544 -0.0459928 0)
(-0.000693626 0.0267701 0)
(-0.00470861 0.066876 0)
(-0.0123868 0.0950629 0)
(-0.021546 0.113701 0)
(-0.0312622 0.125262 0)
(-0.0410202 0.131957 0)
(-0.0505584 0.135578 0)
(-0.059832 0.13746 0)
(-0.0689404 0.1385 0)
(-0.0780668 0.13919 0)
(-0.0874379 0.139659 0)
(-0.0972929 0.139679 0)
(-0.107858 0.138668 0)
(-0.119318 0.13569 0)
(-0.131796 0.129474 0)
(-0.145321 0.118496 0)
(-0.159808 0.101124 0)
(-0.175039 0.0758384 0)
(-0.190631 0.0415008 0)
(-0.20595 -0.00240297 0)
(-0.220074 -0.0555791 0)
(-0.231577 -0.116496 0)
(-0.238315 -0.182206 0)
(-0.237261 -0.24761 0)
(-0.224645 -0.304501 0)
(-0.196814 -0.340765 0)
(-0.152202 -0.341102 0)
(-0.0942734 -0.291834 0)
(-0.0357551 -0.191709 0)
(-0.00444268 -0.062065 0)
(-0.000787734 0.0293845 0)
(-0.00523666 0.073259 0)
(-0.0135352 0.103629 0)
(-0.0230898 0.123217 0)
(-0.0328298 0.13493 0)
(-0.0421946 0.141354 0)
(-0.0509241 0.144558 0)
(-0.0589908 0.146058 0)
(-0.0665083 0.146859 0)
(-0.0736633 0.147516 0)
(-0.0806774 0.148181 0)
(-0.087785 0.148631 0)
(-0.0952194 0.148264 0)
(-0.103203 0.146109 0)
(-0.111939 0.140847 0)
(-0.121603 0.130888 0)
(-0.132334 0.114521 0)
(-0.144217 0.0901219 0)
(-0.157261 0.056393 0)
(-0.171345 0.0125695 0)
(-0.186007 -0.04145 0)
(-0.20029 -0.104837 0)
(-0.212488 -0.175584 0)
(-0.219673 -0.249705 0)
(-0.217529 -0.319826 0)
(-0.200784 -0.373343 0)
(-0.164895 -0.391397 0)
(-0.109432 -0.352058 0)
(-0.0450667 -0.243099 0)
(-0.00644002 -0.0828939 0)
(-0.000962785 0.0323633 0)
(-0.00611372 0.0803418 0)
(-0.0153473 0.112793 0)
(-0.0254538 0.132968 0)
(-0.0351913 0.144365 0)
(-0.0439791 0.150037 0)
(-0.0515909 0.152362 0)
(-0.0580433 0.153041 0)
(-0.0634789 0.153176 0)
(-0.0680935 0.153369 0)
(-0.0721038 0.153793 0)
(-0.0757367 0.154232 0)
(-0.0792312 0.154089 0)
(-0.082845 0.152397 0)
(-0.0868648 0.147845 0)
(-0.0916136 0.138854 0)
(-0.0974525 0.123714 0)
(-0.10477 0.100782 0)
(-0.113955 0.0686758 0)
(-0.125331 0.0264466 0)
(-0.138972 -0.0263247 0)
(-0.154509 -0.0895363 0)
(-0.170818 -0.162234 0)
(-0.18549 -0.241938 0)
(-0.194293 -0.322976 0)
(-0.191009 -0.393691 0)
(-0.168383 -0.433284 0)
(-0.121183 -0.411733 0)
(-0.0553207 -0.301396 0)
(-0.00928927 -0.109365 0)
(-0.00129037 0.0359648 0)
(-0.00757777 0.0885198 0)
(-0.0182063 0.122834 0)
(-0.0290629 0.143027 0)
(-0.0387356 0.153448 0)
(-0.0466907 0.157734 0)
(-0.0528015 0.15861 0)
(-0.0571763 0.157947 0)
(-0.060017 0.156924 0)
(-0.0615463 0.156166 0)
(-0.061986 0.155858 0)
(-0.0615623 0.155793 0)
(-0.0605235 0.155402 0)
(-0.0591647 0.153762 0)
(-0.0578528 0.149624 0)
(-0.0570464 0.141485 0)
(-0.057306 0.127713 0)
(-0.0592865 0.106718 0)
(-0.0637027 0.0771123 0)
(-0.0712564 0.0378294 0)
(-0.082498 -0.011844 0)
(-0.0976191 -0.0723593 0)
(-0.116173 -0.143763 0)
(-0.13658 -0.225203 0)
(-0.155338 -0.313321 0)
(-0.16624 -0.398878 0)
(-0.160184 -0.461496 0)
(-0.127066 -0.46505 0)
(-0.0658723 -0.363857 0)
(-0.013306 -0.14234 0)
(-0.00191289 0.0406391 0)
(-0.0100303 0.0983947 0)
(-0.0226722 0.134115 0)
(-0.0344551 0.153443 0)
(-0.0438681 0.16197 0)
(-0.0505655 0.164072 0)
(-0.0546318 0.162832 0)
(-0.0563423 0.160262 0)
(-0.0560046 0.15757 0)
(-0.0538964 0.155377 0)
(-0.0502636 0.153858 0)
(-0.0453437 0.15282 0)
(-0.0394007 0.151737 0)
(-0.0327647 0.149759 0)
(-0.025871 0.145748 0)
(-0.0192868 0.138331 0)
(-0.013727 0.126008 0)
(-0.0100494 0.107293 0)
(-0.00921952 0.0808398 0)
(-0.0122321 0.0455273 0)
(-0.0200015 0.000440486 0)
(-0.0331787 -0.0552516 0)
(-0.0519757 -0.122396 0)
(-0.0757856 -0.201578 0)
(-0.102353 -0.291926 0)
(-0.126507 -0.387761 0)
(-0.138681 -0.471844 0)
(-0.124687 -0.505708 0)
(-0.075597 -0.426086 0)
(-0.0187726 -0.182532 0)
(-0.00312146 0.0471843 0)
(-0.0141609 0.11084 0)
(-0.0295343 0.14703 0)
(-0.0422175 0.164119 0)
(-0.0508273 0.169503 0)
(-0.0554674 0.168446 0)
(-0.0566081 0.164362 0)
(-0.0547943 0.159325 0)
(-0.0504997 0.154506 0)
(-0.0440937 0.15047 0)
(-0.0358685 0.147358 0)
(-0.0260849 0.144983 0)
(-0.0150233 0.142866 0)
(-0.0030358 0.140255 0)
(0.00940096 0.136148 0)
(0.0216543 0.129338 0)
(0.0329151 0.118497 0)
(0.0421981 0.102278 0)
(0.0483837 0.0794146 0)
(0.0502886 0.0487816 0)
(0.0467539 0.00935205 0)
(0.0367537 -0.039943 0)
(0.0195019 -0.100441 0)
(-0.00532854 -0.173739 0)
(-0.0369798 -0.261102 0)
(-0.0722017 -0.360926 0)
(-0.102655 -0.461635 0)
(-0.111608 -0.527565 0)
(-0.0825984 -0.482029 0)
(-0.025658 -0.230161 0)
(-0.00551049 0.0570562 0)
(-0.0211421 0.127036 0)
(-0.0397772 0.161795 0)
(-0.0526676 0.174514 0)
(-0.0591093 0.175098 0)
(-0.0601017 0.169756 0)
(-0.0567477 0.162104 0)
(-0.0499897 0.154139 0)
(-0.0405337 0.146882 0)
(-0.0288756 0.140774 0)
(-0.0153693 0.135884 0)
(-0.000299153 0.132006 0)
(0.016052 0.128703 0)
(0.0333365 0.125324 0)
(0.0510848 0.121011 0)
(0.0686634 0.114744 0)
(0.0852468 0.105385 0)
(0.0998153 0.0917592 0)
(0.111187 0.0727198 0)
(0.118077 0.0471857 0)
(0.119151 0.0140972 0)
(0.113097 -0.0277317 0)
(0.0986694 -0.0798154 0)
(0.074753 -0.144243 0)
(0.0406532 -0.223691 0)
(-0.00282414 -0.320265 0)
(-0.0503402 -0.429703 0)
(-0.0846905 -0.524839 0)
(-0.0837695 -0.523859 0)
(-0.0330988 -0.284408 0)
(-0.0102511 0.073017 0)
(-0.0328381 0.14834 0)
(-0.0540769 0.177877 0)
(-0.0646336 0.182996 0)
(-0.0657057 0.176686 0)
(-0.059874 0.165898 0)
(-0.0491796 0.154126 0)
(-0.0350831 0.143041 0)
(-0.0185592 0.133357 0)
(-0.000225874 0.125291 0)
(0.0195259 0.118774 0)
(0.0404238 0.113549 0)
(0.0622268 0.109198 0)
(0.0846495 0.105156 0)
(0.107296 0.100712 0)
(0.129611 0.095029 0)
(0.150841 0.0871732 0)
(0.170025 0.0761623 0)
(0.186009 0.0610088 0)
(0.197478 0.0407383 0)
(0.202978 0.0143556 0)
(0.200972 -0.0193009 0)
(0.189836 -0.0616887 0)
(0.167812 -0.114923 0)
(0.133059 -0.182237 0)
(0.0840911 -0.268336 0)
(0.0218785 -0.376423 0)
(-0.0387976 -0.492321 0)
(-0.0743122 -0.542081 0)
(-0.0388018 -0.343168 0)
(-0.0194028 0.100021 0)
(-0.051441 0.17502 0)
(-0.0701328 0.192419 0)
(-0.0710934 0.185396 0)
(-0.0598499 0.169945 0)
(-0.0413369 0.152973 0)
(-0.0186857 0.137164 0)
(0.00620578 0.123448 0)
(0.0322423 0.112001 0)
(0.05884 0.102687 0)
(0.08571 0.0952333 0)
(0.112713 0.0892877 0)
(0.139754 0.0844306 0)
(0.166702 0.0801673 0)
(0.193319 0.0759224 0)
(0.219208 0.0710406 0)
(0.24377 0.0648001 0)
(0.266184 0.0564349 0)
(0.285402 0.0451575 0)
(0.300161 0.0301686 0)
(0.308932 0.0106433 0)
(0.310031 -0.0143847 0)
(0.301532 -0.0461181 0)
(0.281171 -0.0864037 0)
(0.246229 -0.138262 0)
(0.193572 -0.207398 0)
(0.120359 -0.302864 0)
(0.0350695 -0.4268 0)
(-0.0467894 -0.526844 0)
(-0.0380139 -0.401357 0)
(-0.0346549 0.143965 0)
(-0.0737526 0.199787 0)
(-0.0699433 0.194197 0)
(-0.0445977 0.170698 0)
(-0.00910241 0.14571 0)
(0.0299762 0.12393 0)
(0.0693745 0.106084 0)
(0.107626 0.091803 0)
(0.144164 0.080508 0)
(0.178905 0.0716427 0)
(0.211985 0.0647186 0)
(0.243623 0.0592979 0)
(0.274025 0.0549679 0)
(0.303319 0.0513142 0)
(0.331502 0.0479022 0)
(0.358394 0.0442665 0)
(0.383597 0.0399111 0)
(0.406476 0.0343165 0)
(0.426136 0.0269476 0)
(0.441447 0.01725 0)
(0.450916 0.00461073 0)
(0.452879 -0.0115365 0)
(0.445196 -0.0320049 0)
(0.425313 -0.0581598 0)
(0.389917 -0.0922927 0)
(0.335139 -0.139467 0)
(0.254719 -0.210811 0)
(0.15078 -0.325442 0)
(0.0140553 -0.466058 0)
(-0.0174939 -0.441488 0)
(-0.037544 0.235996 0)
(-0.0476478 0.203705 0)
(0.0276625 0.153161 0)
(0.0995569 0.117294 0)
(0.166571 0.0906395 0)
(0.226669 0.0710513 0)
(0.279545 0.0569091 0)
(0.325944 0.0466531 0)
(0.366899 0.0391159 0)
(0.403416 0.0335198 0)
(0.436371 0.0293373 0)
(0.466492 0.0261805 0)
(0.494346 0.023739 0)
(0.520334 0.0217425 0)
(0.544669 0.0199365 0)
(0.567365 0.018069 0)
(0.588209 0.015885 0)
(0.606752 0.0131274 0)
(0.622286 0.00954338 0)
(0.633822 0.00488925 0)
(0.640165 -0.00107849 0)
(0.639928 -0.00863897 0)
(0.631017 -0.0182479 0)
(0.61112 -0.0305229 0)
(0.576715 -0.0466226 0)
(0.524122 -0.0698048 0)
(0.443587 -0.108172 0)
(0.333839 -0.188682 0)
(0.143287 -0.33616 0)
(0.0605525 -0.412912 0)
(0.231287 0.158593 0)
(0.291421 0.117099 0)
(0.440895 0.0759081 0)
(0.539674 0.0505737 0)
(0.606608 0.0342393 0)
(0.65599 0.0234812 0)
(0.693969 0.0164935 0)
(0.723898 0.0119724 0)
(0.748119 0.00901358 0)
(0.768285 0.00704813 0)
(0.785534 0.00572569 0)
(0.800651 0.00482192 0)
(0.814174 0.00418404 0)
(0.826451 0.0037001 0)
(0.837667 0.00328069 0)
(0.847852 0.0028482 0)
(0.856885 0.00233153 0)
(0.864495 0.00166371 0)
(0.870266 0.000786853 0)
(0.873652 -0.000349573 0)
(0.873935 -0.00173165 0)
(0.870242 -0.00345864 0)
(0.861467 -0.00568773 0)
(0.846554 -0.00852248 0)
(0.82305 -0.0121748 0)
(0.789242 -0.017653 0)
(0.733525 -0.0271152 0)
(0.656224 -0.0490961 0)
(0.454225 -0.110098 0)
(0.313195 -0.177501 0)
)
;

boundaryField
{
    movingWall
    {
        type            fixedValue;
        value           uniform (1 0 0);
    }
    fixedWalls
    {
        type            noSlip;
    }
    frontAndBack
    {
        type            empty;
    }
}


// ************************************************************************* //
