/*--------------------------------*- C++ -*----------------------------------*\
  =========                 |
  \\      /  F ield         | OpenFOAM: The Open Source CFD Toolbox
   \\    /   O peration     | Website:  https://openfoam.org
    \\  /    A nd           | Version:  7
     \\/     M anipulation  |
\*---------------------------------------------------------------------------*/
FoamFile
{
    version     2.0;
    format      ascii;
    class       volScalarField;
    location    "0.79";
    object      p;
}
// * * * * * * * * * * * * * * * * * * * * * * * * * * * * * * * * * * * * * //

dimensions      [0 2 -2 0 0 0 0];

internalField   nonuniform List<scalar> 
1936
(
-3.37323e-05
-3346.82
-6868.92
-6270.21
-5477.16
-5319.55
-4970.75
-4570.62
-4238.37
-4264.31
-4763.49
-6032.5
-7177.38
-6220.13
-4114.97
-3260.33
-3323.12
-4197.88
-6562.77
-7409.32
-5165.85
-3347.71
-3092.74
-3591.69
-6002.5
-7670.73
-5628.39
-3504.39
-3185.72
-3439.6
-5174.91
-7411.79
-6525.46
-3929.05
-3117.36
-3307.53
-4688.98
-7084.52
-6787.98
-4199.52
-3107.21
-3153.08
-4344
-7184.31
-99.0972
-3322.45
-6805.69
-6242.83
-5467.78
-5310.01
-4968.58
-4581.58
-4265.3
-4291.54
-4774.42
-6016.1
-7128.2
-6176.94
-4128.3
-3320.96
-3375.88
-4200.1
-6511.55
-7346.58
-5146.4
-3391.25
-3159.28
-3615.75
-5952.92
-7598.32
-5594.11
-3530.93
-3246.24
-3485.6
-5167.77
-7353.99
-6466.69
-3935.25
-3180.21
-3361.48
-4691.65
-7036.85
-6734.03
-4202
-3167.42
-3208.86
-4338.77
-7122.46
-409.51
-3262.39
-6574.9
-6172.13
-5452.26
-5280.64
-4963.46
-4608.21
-4331.68
-4362.96
-4819.25
-5979.31
-6972.8
-6052.72
-4181.28
-3471.36
-3507.09
-4235.98
-6367.54
-7145.92
-5114.1
-3515.53
-3315.51
-3701
-5825.06
-7364.67
-5520.25
-3620.71
-3385.58
-3618.81
-5169.78
-7166.36
-6300.19
-3977.89
-3332.65
-3504.06
-4725.92
-6882.17
-6569.07
-4236.35
-3316.87
-3348.04
-4359.93
-6931
-836.758
-3214.13
-6234.62
-6050.63
-5430.07
-5243.19
-4958.66
-4649.51
-4425.62
-4463.99
-4883.41
-5914.16
-6732.53
-5877.4
-4266.79
-3677.88
-3691.73
-4303.66
-6157.97
-6841.24
-5072.87
-3695.78
-3530.58
-3835.06
-5649.73
-7012.39
-5422.19
-3766.95
-3580.3
-3801.67
-5162.16
-6874.43
-6067.52
-4063.19
-3547.43
-3699.79
-4768.81
-6636.36
-6323.81
-4296.97
-3525.08
-3546.21
-4405.22
-6643.21
-1321.89
-3202.4
-5843.75
-5880.78
-5392.15
-5202.31
-4956.63
-4702.06
-4532.52
-4576.66
-4950.92
-5822.77
-6442.91
-5681.74
-4369.75
-3905.24
-3900.29
-4392.21
-5919.82
-6484.39
-5026.66
-3900.53
-3767.07
-3994.06
-5458.87
-6603.54
-5316.53
-3948.59
-3800.26
-3998.07
-5136.22
-6526.2
-5813.66
-4180.14
-3787.8
-3912.23
-4805.05
-6338.55
-6041.78
-4372.01
-3754.98
-3769.23
-4465.62
-6309.79
-1827.24
-3240.87
-5449.12
-5670.98
-5331.73
-5159.43
-4958.02
-4761.14
-4641.05
-4687.67
-5009
-5707.16
-6135.23
-5489.78
-4480.03
-4129.28
-4110.89
-4491.3
-5680.3
-6116.34
-4979.82
-4105.73
-4000.24
-4160.21
-5276.4
-6188.25
-5213.25
-4142.88
-4024.66
-4186.23
-5090.41
-6160.56
-5570.42
-4315.13
-4026.47
-4117.7
-4829.25
-6020.59
-5756.46
-4454.35
-3981.33
-3991.75
-4534.11
-5969.7
-2326.72
-3334.12
-5088.8
-5435.19
-5246.61
-5112.45
-4961.39
-4820.07
-4741.79
-4786.04
-5050.55
-5572.8
-5836.99
-5319.6
-4589.09
-4334.59
-4307.29
-4591.06
-5458.5
-5769.48
-4936.86
-4293.99
-4213.23
-4319.21
-5120.79
-5803.57
-5117.3
-4329.15
-4235.72
-4354.25
-5032.1
-5810.04
-5358.3
-4451.72
-4243.93
-4303.38
-4842.15
-5710.65
-5492.61
-4537.97
-4188.99
-4196.81
-4603.45
-5651.36
-2801.46
-3477.59
-4790.16
-5193.5
-5139.48
-5059.1
-4961.59
-4872.09
-4826.68
-4866.14
-5070.34
-5429.33
-5569.99
-5183.63
-4689.1
-4511.07
-4478.89
-4681.69
-5266.37
-5467.13
-4901.53
-4454.98
-4395.32
-4461.51
-5000.73
-5475.14
-5030.99
-4491.22
-4418.65
-4497.37
-4973.63
-5500.17
-5185.01
-4575.92
-4428.77
-4462.47
-4847.24
-5432.31
-5267.09
-4616.86
-4369.36
-4374.23
-4666.02
-5375.05
-3232.12
-3658.66
-4571.67
-4969.41
-5018.79
-4998.06
-4953.78
-4910.44
-4890.74
-4923.71
-5067.43
-5289.15
-5348.28
-5085
-4773.9
-4652.74
-4620.27
-4754.87
-5110.34
-5224.79
-4874.33
-4585.27
-4541.28
-4581.26
-4915.8
-5216.51
-4957.09
-4619.64
-4566.01
-4614.16
-4922.1
-5248.36
-5051.89
-4677.38
-4576.18
-4592.68
-4846.07
-5202.65
-5089.35
-4685.06
-4517.06
-4518.92
-4716.68
-5152.62
-3598.03
-3855.93
-4442.49
-4786.21
-4898.11
-4930.78
-4934.79
-4930.41
-4930.91
-4956.97
-5045.84
-5164.48
-5178.36
-5018.29
-4838.13
-4758.21
-4728.98
-4805.48
-4993.62
-5048.05
-4854.14
-4683.87
-4651.19
-4674.53
-4861.27
-5031.15
-4899.3
-4712.52
-4675.06
-4702.88
-4881.53
-5062.27
-4956.57
-4751.57
-4684.88
-4692.1
-4840.12
-5030.95
-4961.93
-4736.15
-4630.87
-4630.46
-4751.7
-4989.04
-3887.04
-4043.6
-4395.16
-4660.24
-4793.42
-4863.58
-4905.3
-4931.03
-4947.07
-4967.22
-5012.8
-5063.92
-5058.6
-4973.7
-4879.37
-4828.59
-4803.91
-4835.16
-4915.39
-4933.76
-4840.31
-4751.63
-4728.15
-4739.86
-4830.24
-4913.63
-4859.31
-4771.97
-4748.88
-4763.23
-4852.77
-4939.89
-4894.03
-4797.76
-4758.36
-4759.73
-4831.99
-4917.5
-4880.69
-4769.36
-4710.62
-4709.24
-4772.58
-4882.4
-4102.53
-4202.08
-4404.81
-4592.6
-4717.88
-4805.45
-4870.21
-4915.6
-4942.32
-4958.53
-4975.91
-4989.86
-4980.46
-4942.31
-4898.98
-4868.54
-4847.49
-4849.31
-4870.12
-4870.63
-4832.17
-4792.45
-4777.04
-4780.16
-4815.68
-4850.4
-4835.85
-4804.5
-4793
-4798.49
-4834.98
-4870.53
-4857.17
-4821.22
-4801.4
-4798.69
-4824.62
-4853.47
-4836.07
-4788.93
-4760.29
-4758.26
-4783.84
-4823.59
-4256.14
-4324.79
-4444.66
-4569.75
-4674.98
-4763.17
-4835.97
-4890.19
-4922.86
-4936.62
-4940.64
-4939.34
-4932.14
-4918.52
-4901.94
-4884.91
-4866.86
-4854.1
-4848.62
-4842.14
-4828.19
-4813.4
-4804.4
-4802.21
-4811.48
-4823.62
-4824.65
-4818.91
-4815.09
-4815.5
-4825.91
-4837.88
-4837.91
-4829.58
-4821.56
-4816.65
-4819.78
-4823.99
-4816.09
-4799.3
-4787.4
-4784.59
-4790.09
-4798.47
-4368.39
-4414.94
-4490.24
-4575.13
-4658.63
-4737.12
-4806.56
-4860.25
-4893.73
-4907.92
-4909.49
-4906.01
-4902.56
-4899.83
-4895.41
-4886.02
-4871
-4854.25
-4840.96
-4832.69
-4827.13
-4822.57
-4817.65
-4813.39
-4812.86
-4816.31
-4820.76
-4823.41
-4823.44
-4821.89
-4822.49
-4825.67
-4828.95
-4830.02
-4827.62
-4822.43
-4817.52
-4813.89
-4809.74
-4804.69
-4800.31
-4797.02
-4794.6
-4792.62
-4454.94
-4484.35
-4533.28
-4592.56
-4657.44
-4722.61
-4782.42
-4830.4
-4862.24
-4878.09
-4882.73
-4882.7
-4882.95
-4884.35
-4884.12
-4878.77
-4867.13
-4852.4
-4839.46
-4831.49
-4828.21
-4826.28
-4823.27
-4819.2
-4816.36
-4816.83
-4820.18
-4823.83
-4825.01
-4823.59
-4821.86
-4822.35
-4825.06
-4827.56
-4827.04
-4822.79
-4816.93
-4812.08
-4809.32
-4807.73
-4805.83
-4802.81
-4798.75
-4795.22
-4524.48
-4541.96
-4573.56
-4615.13
-4663.46
-4714.69
-4763.03
-4803.49
-4832.65
-4850.25
-4859.31
-4863.8
-4867.2
-4870.26
-4871.3
-4868.12
-4860.16
-4849.54
-4839.68
-4833.12
-4829.97
-4828.12
-4825.82
-4822.57
-4819.84
-4819.28
-4821
-4823.32
-4824.3
-4823.38
-4821.96
-4821.77
-4823.17
-4824.7
-4824.4
-4821.45
-4817.08
-4813.27
-4811
-4809.75
-4808.27
-4805.74
-4802.52
-4799.87
-4580.58
-4590.96
-4611.15
-4639.56
-4674.11
-4711.79
-4749.01
-4781.74
-4807.53
-4825.83
-4837.94
-4846.03
-4851.9
-4856.11
-4858.02
-4856.73
-4852.19
-4845.7
-4839.27
-4834.42
-4831.4
-4829.3
-4827.14
-4824.72
-4822.67
-4821.79
-4822.19
-4823.06
-4823.39
-4822.85
-4822
-4821.64
-4822.01
-4822.42
-4821.86
-4819.93
-4817.15
-4814.52
-4812.62
-4811.26
-4809.81
-4807.89
-4805.8
-4804.28
-4625.43
-4631.91
-4644.89
-4663.89
-4687.68
-4714.3
-4741.42
-4766.69
-4788.33
-4805.61
-4818.82
-4828.76
-4836.22
-4841.54
-4844.61
-4845.24
-4843.64
-4840.58
-4837.1
-4834.03
-4831.64
-4829.71
-4827.87
-4826.06
-4824.52
-4823.57
-4823.22
-4823.17
-4823
-4822.53
-4821.92
-4821.46
-4821.22
-4820.95
-4820.24
-4818.9
-4817.15
-4815.38
-4813.85
-4812.53
-4811.24
-4809.87
-4808.6
-4807.76
-4661.04
-4665.27
-4673.76
-4686.33
-4702.3
-4720.54
-4739.68
-4758.41
-4775.53
-4790.43
-4802.91
-4813.08
-4821.16
-4827.28
-4831.47
-4833.82
-4834.55
-4834.08
-4832.94
-4831.57
-4830.23
-4828.94
-4827.66
-4826.42
-4825.3
-4824.44
-4823.83
-4823.37
-4822.92
-4822.4
-4821.83
-4821.28
-4820.76
-4820.19
-4819.44
-4818.44
-4817.25
-4816.02
-4814.84
-4813.75
-4812.72
-4811.77
-4810.99
-4810.5
-4689.06
-4691.87
-4697.46
-4705.75
-4716.36
-4728.64
-4741.88
-4755.3
-4768.31
-4780.29
-4791
-4800.3
-4808.12
-4814.48
-4819.39
-4822.94
-4825.26
-4826.61
-4827.22
-4827.35
-4827.16
-4826.76
-4826.22
-4825.6
-4824.97
-4824.37
-4823.82
-4823.32
-4822.82
-4822.29
-4821.74
-4821.18
-4820.59
-4819.97
-4819.27
-4818.47
-4817.6
-4816.7
-4815.83
-4815
-4814.25
-4813.6
-4813.12
-4812.83
-4710.7
-4712.58
-4716.25
-4721.72
-4728.76
-4737.01
-4746.1
-4755.6
-4765.12
-4774.36
-4783.02
-4790.92
-4797.94
-4804.01
-4809.11
-4813.25
-4816.51
-4818.98
-4820.79
-4822.06
-4822.91
-4823.41
-4823.66
-4823.71
-4823.62
-4823.43
-4823.17
-4822.86
-4822.49
-4822.09
-4821.63
-4821.15
-4820.63
-4820.07
-4819.48
-4818.86
-4818.21
-4817.55
-4816.92
-4816.33
-4815.8
-4815.37
-4815.06
-4814.89
-4726.92
-4728.17
-4730.6
-4734.24
-4738.96
-4744.56
-4750.83
-4757.56
-4764.51
-4771.47
-4778.25
-4784.7
-4790.7
-4796.16
-4801.04
-4805.29
-4808.94
-4812.01
-4814.54
-4816.59
-4818.22
-4819.48
-4820.43
-4821.11
-4821.57
-4821.86
-4821.99
-4822
-4821.9
-4821.72
-4821.46
-4821.14
-4820.77
-4820.36
-4819.92
-4819.46
-4818.99
-4818.52
-4818.08
-4817.67
-4817.31
-4817.03
-4816.84
-4816.73
-4737.67
-4738.54
-4740.25
-4742.82
-4746.17
-4750.19
-4754.77
-4759.76
-4765.02
-4770.42
-4775.84
-4781.16
-4786.27
-4791.1
-4795.59
-4799.7
-4803.4
-4806.69
-4809.56
-4812.04
-4814.16
-4815.92
-4817.38
-4818.55
-4819.48
-4820.18
-4820.69
-4821.03
-4821.23
-4821.3
-4821.26
-4821.14
-4820.95
-4820.71
-4820.42
-4820.11
-4819.78
-4819.45
-4819.14
-4818.86
-4818.61
-4818.42
-4818.29
-4818.22
-4743.75
-4744.43
-4745.76
-4747.76
-4750.4
-4753.59
-4757.25
-4761.28
-4765.61
-4770.11
-4774.71
-4779.32
-4783.85
-4788.23
-4792.41
-4796.34
-4799.99
-4803.32
-4806.34
-4809.03
-4811.4
-4813.46
-4815.23
-4816.72
-4817.95
-4818.94
-4819.73
-4820.32
-4820.74
-4821.02
-4821.17
-4821.21
-4821.17
-4821.05
-4820.88
-4820.67
-4820.44
-4820.21
-4819.98
-4819.77
-4819.59
-4819.44
-4819.34
-4819.3
-4746.92
-4747.49
-4748.62
-4750.34
-4752.6
-4755.35
-4758.53
-4762.07
-4765.89
-4769.91
-4774.06
-4778.27
-4782.47
-4786.59
-4790.58
-4794.39
-4797.99
-4801.34
-4804.43
-4807.23
-4809.75
-4811.99
-4813.94
-4815.62
-4817.05
-4818.24
-4819.2
-4819.96
-4820.54
-4820.95
-4821.22
-4821.38
-4821.43
-4821.4
-4821.3
-4821.16
-4821
-4820.81
-4820.63
-4820.46
-4820.31
-4820.19
-4820.11
-4820.07
-4748.4
-4748.92
-4749.95
-4751.51
-4753.58
-4756.11
-4759.03
-4762.31
-4765.86
-4769.63
-4773.55
-4777.56
-4781.58
-4785.57
-4789.47
-4793.23
-4796.82
-4800.19
-4803.33
-4806.21
-4808.83
-4811.18
-4813.26
-4815.07
-4816.62
-4817.93
-4819.02
-4819.88
-4820.56
-4821.06
-4821.42
-4821.64
-4821.75
-4821.77
-4821.72
-4821.61
-4821.47
-4821.32
-4821.16
-4821
-4820.87
-4820.76
-4820.69
-4820.65
-4748.91
-4749.41
-4750.38
-4751.87
-4753.84
-4756.25
-4759.05
-4762.2
-4765.63
-4769.28
-4773.1
-4777.01
-4780.97
-4784.91
-4788.78
-4792.54
-4796.14
-4799.55
-4802.74
-4805.7
-4808.39
-4810.82
-4812.99
-4814.89
-4816.53
-4817.92
-4819.07
-4820.01
-4820.75
-4821.3
-4821.7
-4821.95
-4822.09
-4822.13
-4822.1
-4822.01
-4821.88
-4821.73
-4821.58
-4821.43
-4821.29
-4821.19
-4821.12
-4821.08
-4748.89
-4749.37
-4750.32
-4751.77
-4753.7
-4756.07
-4758.82
-4761.92
-4765.3
-4768.92
-4772.71
-4776.6
-4780.55
-4784.5
-4788.38
-4792.17
-4795.81
-4799.26
-4802.51
-4805.51
-4808.27
-4810.76
-4812.98
-4814.94
-4816.63
-4818.07
-4819.26
-4820.23
-4821
-4821.58
-4821.99
-4822.25
-4822.4
-4822.44
-4822.41
-4822.32
-4822.18
-4822.03
-4821.87
-4821.71
-4821.58
-4821.47
-4821.39
-4821.35
-4748.66
-4749.14
-4750.07
-4751.51
-4753.43
-4755.78
-4758.53
-4761.63
-4765.01
-4768.64
-4772.44
-4776.35
-4780.33
-4784.3
-4788.23
-4792.05
-4795.73
-4799.23
-4802.51
-4805.56
-4808.36
-4810.89
-4813.14
-4815.12
-4816.84
-4818.29
-4819.5
-4820.48
-4821.24
-4821.82
-4822.22
-4822.47
-4822.61
-4822.64
-4822.58
-4822.48
-4822.33
-4822.16
-4821.98
-4821.82
-4821.67
-4821.55
-4821.48
-4821.44
-4748.4
-4748.88
-4749.81
-4751.25
-4753.17
-4755.54
-4758.31
-4761.43
-4764.85
-4768.5
-4772.34
-4776.29
-4780.3
-4784.32
-4788.28
-4792.14
-4795.85
-4799.38
-4802.7
-4805.77
-4808.59
-4811.13
-4813.4
-4815.38
-4817.09
-4818.54
-4819.73
-4820.68
-4821.42
-4821.97
-4822.34
-4822.56
-4822.66
-4822.66
-4822.58
-4822.44
-4822.26
-4822.07
-4821.88
-4821.7
-4821.54
-4821.42
-4821.34
-4821.3
-4748.25
-4748.72
-4749.65
-4751.1
-4753.04
-4755.44
-4758.24
-4761.39
-4764.85
-4768.55
-4772.42
-4776.42
-4780.47
-4784.52
-4788.51
-4792.4
-4796.14
-4799.69
-4803.02
-4806.1
-4808.91
-4811.45
-4813.7
-4815.67
-4817.35
-4818.76
-4819.91
-4820.82
-4821.52
-4822.01
-4822.33
-4822.5
-4822.54
-4822.49
-4822.36
-4822.18
-4821.97
-4821.75
-4821.54
-4821.34
-4821.17
-4821.04
-4820.95
-4820.91
-4748.28
-4748.74
-4749.67
-4751.14
-4753.11
-4755.53
-4758.37
-4761.56
-4765.05
-4768.78
-4772.68
-4776.71
-4780.78
-4784.86
-4788.87
-4792.78
-4796.53
-4800.08
-4803.41
-4806.49
-4809.29
-4811.8
-4814.03
-4815.95
-4817.6
-4818.96
-4820.05
-4820.9
-4821.53
-4821.95
-4822.2
-4822.3
-4822.28
-4822.15
-4821.96
-4821.72
-4821.46
-4821.2
-4820.95
-4820.73
-4820.55
-4820.41
-4820.32
-4820.28
-4748.55
-4749.01
-4749.94
-4751.42
-4753.4
-4755.85
-4758.7
-4761.9
-4765.41
-4769.15
-4773.07
-4777.11
-4781.2
-4785.28
-4789.31
-4793.22
-4796.97
-4800.52
-4803.84
-4806.9
-4809.68
-4812.17
-4814.35
-4816.24
-4817.83
-4819.13
-4820.16
-4820.94
-4821.49
-4821.84
-4822
-4822.01
-4821.9
-4821.69
-4821.42
-4821.1
-4820.76
-4820.43
-4820.13
-4819.87
-4819.67
-4819.53
-4819.44
-4819.41
-4749.09
-4749.54
-4750.47
-4751.95
-4753.93
-4756.36
-4759.2
-4762.39
-4765.88
-4769.62
-4773.54
-4777.57
-4781.66
-4785.75
-4789.77
-4793.68
-4797.42
-4800.97
-4804.27
-4807.31
-4810.07
-4812.52
-4814.67
-4816.5
-4818.04
-4819.28
-4820.25
-4820.96
-4821.43
-4821.69
-4821.76
-4821.68
-4821.47
-4821.17
-4820.79
-4820.37
-4819.93
-4819.51
-4819.12
-4818.79
-4818.55
-4818.38
-4818.3
-4818.28
-4749.95
-4750.4
-4751.3
-4752.72
-4754.65
-4757.03
-4759.81
-4762.96
-4766.41
-4770.12
-4774.02
-4778.04
-4782.12
-4786.2
-4790.22
-4794.12
-4797.86
-4801.39
-4804.68
-4807.7
-4810.43
-4812.85
-4814.96
-4816.76
-4818.24
-4819.43
-4820.33
-4820.97
-4821.36
-4821.54
-4821.53
-4821.35
-4821.04
-4820.63
-4820.13
-4819.6
-4819.04
-4818.49
-4817.98
-4817.54
-4817.2
-4816.96
-4816.87
-4816.87
-4751.2
-4751.59
-4752.42
-4753.71
-4755.52
-4757.79
-4760.48
-4763.55
-4766.95
-4770.61
-4774.48
-4778.48
-4782.55
-4786.61
-4790.62
-4794.52
-4798.25
-4801.78
-4805.05
-4808.06
-4810.76
-4813.16
-4815.24
-4816.99
-4818.43
-4819.57
-4820.41
-4820.99
-4821.31
-4821.41
-4821.32
-4821.05
-4820.64
-4820.12
-4819.51
-4818.85
-4818.15
-4817.45
-4816.79
-4816.17
-4815.67
-4815.28
-4815.14
-4815.12
-4752.96
-4753.15
-4753.81
-4754.83
-4756.46
-4758.57
-4761.14
-4764.11
-4767.44
-4771.05
-4774.88
-4778.86
-4782.91
-4786.97
-4790.97
-4794.87
-4798.59
-4802.11
-4805.38
-4808.37
-4811.06
-4813.43
-4815.48
-4817.21
-4818.61
-4819.7
-4820.49
-4821.01
-4821.28
-4821.31
-4821.14
-4820.8
-4820.3
-4819.68
-4818.96
-4818.17
-4817.34
-4816.47
-4815.62
-4814.79
-4814.06
-4813.39
-4813.11
-4812.92
-4755.34
-4755.01
-4755.38
-4756.01
-4757.39
-4759.3
-4761.73
-4764.6
-4767.85
-4771.41
-4775.21
-4779.17
-4783.21
-4787.26
-4791.26
-4795.15
-4798.88
-4802.39
-4805.65
-4808.64
-4811.31
-4813.67
-4815.7
-4817.39
-4818.77
-4819.82
-4820.58
-4821.05
-4821.26
-4821.24
-4821.01
-4820.6
-4820.02
-4819.32
-4818.5
-4817.6
-4816.63
-4815.61
-4814.55
-4813.47
-4812.46
-4811.37
-4810.82
-4810.14
-4758.5
-4757.1
-4757.02
-4757.12
-4758.23
-4759.92
-4762.21
-4764.98
-4768.17
-4771.69
-4775.46
-4779.4
-4783.43
-4787.49
-4791.49
-4795.38
-4799.1
-4802.62
-4805.88
-4808.85
-4811.52
-4813.86
-4815.88
-4817.55
-4818.9
-4819.93
-4820.65
-4821.09
-4821.27
-4821.2
-4820.92
-4820.45
-4819.81
-4819.04
-4818.14
-4817.15
-4816.06
-4814.89
-4813.65
-4812.31
-4810.98
-4809.35
-4808.4
-4806.63
-4762.52
-4759.23
-4758.56
-4758.08
-4758.91
-4760.41
-4762.58
-4765.27
-4768.4
-4771.89
-4775.64
-4779.57
-4783.6
-4787.65
-4791.65
-4795.54
-4799.27
-4802.79
-4806.04
-4809.02
-4811.68
-4814.02
-4816.02
-4817.68
-4819.01
-4820.02
-4820.72
-4821.13
-4821.28
-4821.18
-4820.86
-4820.35
-4819.67
-4818.84
-4817.88
-4816.81
-4815.63
-4814.34
-4812.95
-4811.38
-4809.74
-4807.52
-4806.01
-4802.33
-4767.32
-4761.18
-4759.84
-4758.82
-4759.41
-4760.75
-4762.83
-4765.46
-4768.55
-4772.01
-4775.75
-4779.68
-4783.7
-4787.76
-4791.76
-4795.66
-4799.39
-4802.9
-4806.16
-4809.13
-4811.79
-4814.13
-4816.12
-4817.77
-4819.09
-4820.09
-4820.77
-4821.17
-4821.29
-4821.17
-4820.83
-4820.29
-4819.58
-4818.71
-4817.71
-4816.58
-4815.34
-4813.96
-4812.46
-4810.7
-4808.81
-4806.02
-4803.88
-4797.33
-4772.54
-4762.73
-4760.75
-4759.3
-4759.72
-4760.96
-4762.98
-4765.57
-4768.64
-4772.09
-4775.82
-4779.74
-4783.77
-4787.82
-4791.83
-4795.72
-4799.45
-4802.97
-4806.23
-4809.2
-4811.86
-4814.19
-4816.18
-4817.83
-4819.14
-4820.13
-4820.81
-4821.19
-4821.3
-4821.17
-4820.81
-4820.25
-4819.52
-4818.64
-4817.61
-4816.45
-4815.17
-4813.74
-4812.16
-4810.28
-4808.21
-4804.99
-4802.21
-4791.96
-4777.48
-4763.71
-4761.24
-4759.55
-4759.88
-4761.06
-4763.05
-4765.62
-4768.68
-4772.12
-4775.85
-4779.77
-4783.79
-4787.85
-4791.85
-4795.75
-4799.49
-4803
-4806.26
-4809.24
-4811.9
-4814.22
-4816.21
-4817.86
-4819.17
-4820.15
-4820.82
-4821.2
-4821.31
-4821.17
-4820.8
-4820.24
-4819.5
-4818.6
-4817.56
-4816.39
-4815.09
-4813.63
-4812.01
-4810.07
-4807.91
-4804.45
-4801.19
-4786.96
-4781.43
-4764.14
-4761.41
-4759.64
-4759.93
-4761.1
-4763.08
-4765.64
-4768.69
-4772.13
-4775.86
-4779.77
-4783.8
-4787.86
-4791.86
-4795.76
-4799.49
-4803.01
-4806.27
-4809.25
-4811.9
-4814.23
-4816.22
-4817.86
-4819.17
-4820.16
-4820.83
-4821.2
-4821.31
-4821.17
-4820.8
-4820.23
-4819.49
-4818.59
-4817.55
-4816.37
-4815.06
-4813.6
-4811.96
-4810.01
-4807.8
-4804.26
-4800.74
-4782.99
)
;

boundaryField
{
    movingWall
    {
        type            zeroGradient;
    }
    fixedWalls
    {
        type            zeroGradient;
    }
    frontAndBack
    {
        type            empty;
    }
    defaultFaces
    {
        type            empty;
    }
}


// ************************************************************************* //
