/*--------------------------------*- C++ -*----------------------------------*\
  =========                 |
  \\      /  F ield         | OpenFOAM: The Open Source CFD Toolbox
   \\    /   O peration     | Website:  https://openfoam.org
    \\  /    A nd           | Version:  7
     \\/     M anipulation  |
\*---------------------------------------------------------------------------*/
FoamFile
{
    version     2.0;
    format      ascii;
    class       surfaceScalarField;
    location    "0.79";
    object      phi;
}
// * * * * * * * * * * * * * * * * * * * * * * * * * * * * * * * * * * * * * //

dimensions      [0 3 -1 0 0 0 0];

internalField   nonuniform List<scalar> 
3784
(
-0.00225407
0.00225407
-0.00169817
-0.000555897
-0.000261712
-0.00143645
0.000363911
-0.000625624
0.000579333
-0.000215421
0.000798561
-0.00021923
0.000848525
-4.9965e-05
0.000596031
0.000252494
-2.58077e-05
0.00062184
-0.000653931
0.000628123
-0.000904731
0.000250798
-0.000530863
-0.000373866
0.000588067
-0.00111893
0.00157265
-0.00098459
0.00126737
0.000305285
-0.000131295
0.00139867
-0.00135208
0.00122078
-0.00140308
5.10052e-05
-0.000237641
-0.00116544
0.00118833
-0.00142598
0.00163275
-0.000444417
0.000629257
0.00100349
-0.000911062
0.00154032
-0.00146462
0.000553557
-0.000334532
-0.00113009
0.00130982
-0.00164435
0.0020928
-0.000782975
0.0014796
0.000613198
7.64414e-05
0.00140316
-0.000982273
0.00105872
-0.000819201
-0.000163071
0.000494607
-0.00131381
0.00183274
-0.00133814
0.00169
0.000142744
0.000234446
0.00145555
-0.00101058
0.00124503
-0.00107155
6.09702e-05
1.21065e-05
-0.00108366
0.00123914
-0.00122703
0.00118247
5.66729e-05
-0.000208661
0.00139113
-0.00149944
0.00129078
-0.00137966
-0.000119778
-0.00137966
-0.00318661
0.00544068
-0.00272399
-0.00101852
-0.000207164
-0.00395328
0.000400004
-0.00123279
0.000462255
-0.000277671
0.000766003
-0.000522981
0.000810491
-9.44562e-05
0.000598345
0.000464641
4.817e-05
0.00117201
-0.000583011
0.0012593
-0.00111718
0.000784964
-0.00085771
-0.000633334
0.000699366
-0.002676
0.00185778
-0.002143
0.00122966
0.000933412
-4.4306e-05
0.00267263
-0.00115832
0.0023348
-0.00173542
0.0006281
-0.000424019
-0.00247684
0.0016036
-0.0034536
0.00171605
-0.000556867
0.000521113
0.00219843
-0.00072928
0.00279071
-0.00167929
0.00150356
-0.000605608
-0.00220376
0.00176444
-0.0040144
0.00226111
-0.00127965
0.00128905
0.00158526
0.000200504
0.0024917
-0.00109325
0.00235246
-0.00129689
4.0571e-05
0.000620054
-0.00323075
0.00214989
-0.00286798
0.00154335
0.000749287
0.000275718
0.00272319
-0.00100827
0.00252901
-0.00154848
0.00060118
2.94359e-05
-0.00266157
0.00164091
-0.00283851
0.0010913
0.000606288
-0.000178531
0.00266096
-0.00136765
0.0024799
-0.00185892
0.000371498
-0.00323859
-0.00301141
0.00845209
-0.00312459
-0.00090534
-0.000645204
-0.00643266
0.000463365
-0.00234136
0.000626416
-0.000440726
0.000848297
-0.000744856
0.000851266
-9.74226e-05
0.000500337
0.000815563
-0.000202715
0.00187506
-0.000951484
0.00200808
-0.0014205
0.00125398
-0.000812214
-0.00124162
0.00109164
-0.00457986
0.00230247
-0.00335382
0.00156202
0.00167386
9.33329e-05
0.00414132
-0.00129488
0.00372301
-0.00199333
0.00132656
-0.000487161
-0.00398301
0.00185609
-0.00579685
0.0020845
-0.000785274
0.000698625
0.00358431
-0.000872615
0.00436195
-0.00202038
0.00265132
-0.000879258
-0.00334488
0.00179202
-0.00668568
0.00238776
-0.00187539
0.00105771
0.00291532
-0.000412532
0.00396194
-0.00168039
0.00362033
-0.00150413
-0.000135687
0.000819565
-0.00555445
0.00238307
-0.00443149
0.00145294
0.00167942
-0.00018164
0.00435777
-0.00156529
0.00391267
-0.00180138
0.000837269
0.000208567
-0.00467152
0.00203655
-0.0046665
0.00145638
0.00118646
-7.53729e-05
0.00419271
-0.00159747
0.004002
-0.00211273
0.000886758
-0.00535132
-0.00227047
0.0107226
-0.00293972
-0.000236097
-0.00127828
-0.00809411
-3.23395e-05
-0.0035873
0.000350125
-0.00082319
0.000505277
-0.000900011
0.00045623
-4.83775e-05
0.000114488
0.00115731
-0.000398379
0.00238793
-0.000888638
0.00249834
-0.00109217
0.00145751
-0.000424274
-0.00190952
0.00105221
-0.00605634
0.00181666
-0.00411828
0.00126197
0.00222855
0.000287887
0.0051154
-0.000709634
0.00472053
-0.0012997
0.00191662
-0.000319993
-0.00496271
0.00132627
-0.00744311
0.00151029
-0.000969291
0.000555124
0.00453947
-0.000489293
0.00540637
-0.00133471
0.00349674
-0.000677625
-0.00400196
0.00114389
-0.00850719
0.00148487
-0.00221638
0.000363863
0.00403633
-0.000725243
0.00505105
-0.00143309
0.00432817
-0.00103413
-0.000534654
0.000670029
-0.00725861
0.0015454
-0.00530686
0.000672931
0.00255189
-0.000464033
0.00549473
-0.00130023
0.00474887
-0.0012423
0.000779336
0.000285374
-0.0061992
0.00150673
-0.00588785
0.00107658
0.00161662
6.79521e-05
0.00520133
-0.000990947
0.0050609
-0.00140571
0.00130152
-0.00675704
-0.00157331
0.0122959
-0.00269594
0.000886528
-0.00190076
-0.00888928
-0.000677847
-0.00481021
-7.97283e-05
-0.00142131
4.99295e-05
-0.00102967
-2.71452e-05
2.86929e-05
-0.000303016
0.00143318
-0.000591348
0.00267626
-0.000801189
0.00270818
-0.000714385
0.00137071
-5.72336e-07
-0.00262333
0.000935417
-0.00699233
0.0012223
-0.00440516
0.000837558
0.00261329
0.000370458
0.0055825
-0.00017926
0.00527025
-0.000603804
0.00234116
-0.000139168
-0.00542735
0.00075884
-0.00834112
0.000858504
-0.00106895
0.000391013
0.00500696
-0.000119522
0.0059169
-0.000635581
0.00401279
-0.000469085
-0.00416846
0.000419606
-0.00939588
0.000556994
-0.00235377
-0.000145727
0.00473905
-0.000816927
0.00572225
-0.00105005
0.00456129
-0.000547214
-0.00103749
0.000467184
-0.008273
0.000695211
-0.00553489
2.29082e-05
0.00322419
-0.000533949
0.00605159
-0.0008527
0.00506761
-0.000644095
0.000570731
0.000343136
-0.00718643
0.000937048
-0.00648177
0.000617707
0.00193596
0.000146398
0.00567264
-0.000379207
0.00558651
-0.00068615
0.00160847
-0.00744319
-0.000844678
0.0131406
-0.0022792
0.00232105
-0.0024043
-0.00876418
-0.00140063
-0.00581387
-0.000675667
-0.00214628
-0.000496384
-0.00120896
-0.000551366
8.36705e-05
-0.000668558
0.00155037
-0.000689166
0.00269687
-0.000578409
0.00259742
-0.000267688
0.00105998
0.000388351
-0.00327937
0.000692746
-0.00729672
0.00050165
-0.00421406
0.000317034
0.0027979
0.000328212
0.00557133
0.000264905
0.00533356
6.72979e-05
0.00253876
5.57155e-05
-0.00541576
0.000173439
-0.00845885
0.000162193
-0.00105771
0.000190392
0.00497876
0.000220523
0.00588677
7.77481e-05
0.00415557
-0.000253613
-0.0038371
-0.000273092
-0.0093764
-0.000270784
-0.00235608
-0.000436961
0.00490523
-0.000572009
0.0058573
-0.000425166
0.00441445
-3.30986e-05
-0.00142955
0.000223976
-0.00853008
-0.000105886
-0.00520502
-0.000403904
0.00352221
-0.000349551
0.00599724
-0.000251733
0.0049698
-1.15638e-05
0.000330562
0.000341051
-0.00753905
0.000318604
-0.00645932
0.000132688
0.00212188
0.000143437
0.0056619
0.000140523
0.00558942
-4.5046e-06
0.00175349
-0.00744769
-9.73294e-05
0.0132379
-0.00158653
0.00381025
-0.00258681
-0.0077639
-0.00206725
-0.00633343
-0.0013555
-0.00285803
-0.00111526
-0.00144919
-0.00103422
2.62757e-06
-0.000942161
0.00145831
-0.000666437
0.00242114
-0.00031958
0.00225056
0.000197767
0.000542639
0.000648179
-0.00372978
0.000308005
-0.00695655
-0.000320858
-0.0035852
-0.00025478
0.00273183
0.000207931
0.00510862
0.000589201
0.00495229
0.000678835
0.00244913
0.000264208
-0.00500113
-0.000347535
-0.0078471
-0.000477549
-0.000927697
-2.94242e-05
0.00453064
0.00049767
0.00535968
0.000695238
0.003958
1.90737e-05
-0.00316094
-0.00082437
-0.00853295
-0.000921281
-0.00225917
-0.000541878
0.00452582
-8.35597e-05
0.00539898
0.00032901
0.00400188
0.000433394
-0.00153394
-6.60341e-05
-0.00803065
-0.000739191
-0.00453187
-0.000622613
0.00340564
-4.71519e-05
0.00542178
0.000390768
0.00453187
0.000584435
0.000136894
0.000258783
-0.0072134
-0.000318359
-0.00588218
-0.000325981
0.0021295
9.57851e-05
0.00524013
0.000544754
0.00514045
0.000619338
0.00167891
-0.00682835
0.000780522
0.0124574
-0.000466049
0.00505682
-0.00224071
-0.00598924
-0.00242492
-0.00614921
-0.00192674
-0.00335622
-0.00164754
-0.0017284
-0.00141961
-0.000225303
-0.00108697
0.00112567
-0.000577295
0.00191146
-2.04103e-05
0.00169367
0.000595903
-7.36709e-05
0.000704667
-0.00383855
-0.000185539
-0.00606635
-0.00103462
-0.00273611
-0.000723428
0.00242064
0.000106725
0.00427847
0.000814531
0.00424449
0.00120025
0.00206341
0.000472539
-0.00427342
-0.000765003
-0.00660956
-0.000938297
-0.000754406
-0.000230896
0.00382323
0.000658296
0.00447049
0.00113866
0.00347763
0.000329746
-0.00235202
-0.00113378
-0.00706943
-0.00135803
-0.00203491
-0.000565461
0.00373325
0.000316998
0.00451652
0.000910035
0.00340884
0.000807155
-0.00143106
-0.000357438
-0.00686606
-0.00123166
-0.00365764
-0.000729361
0.00290333
0.000196704
0.00449571
0.000863374
0.0038652
0.00104049
-4.02209e-05
8.99786e-05
-0.00626289
-0.000919967
-0.00487223
-0.000713002
0.00192253
5.92009e-05
0.00446793
0.000841204
0.00435845
0.00110178
0.00141832
-0.00572657
0.00172376
0.0107336
0.00107806
0.00570253
-0.00122754
-0.00368364
-0.00220975
-0.005167
-0.00212958
-0.00343639
-0.00192099
-0.00193699
-0.00159318
-0.000553122
-0.00107813
0.000610624
-0.00040577
0.0012391
0.000275044
0.00101285
0.000828228
-0.000626858
0.000531234
-0.00354155
-0.000727121
-0.00480799
-0.00154195
-0.00192128
-0.000997299
0.00187599
3.03127e-05
0.00325085
0.000946587
0.00332822
0.00155275
0.00145725
0.000588733
-0.00330941
-0.00103547
-0.00498535
-0.00119347
-0.000596408
-0.000328137
0.0029579
0.000712705
0.00342965
0.00142238
0.00276796
0.000637698
-0.00156734
-0.00119071
-0.00524102
-0.00157372
-0.0016519
-0.000595296
0.00275482
0.000518484
0.00340274
0.00127507
0.00265226
0.00102323
-0.00117921
-0.000588174
-0.00525466
-0.00153787
-0.00270795
-0.000802789
0.00216825
0.000316509
0.00337641
0.00116429
0.00301742
0.00131986
-0.000195795
-9.28799e-05
-0.00485015
-0.00135222
-0.00361288
-0.000903056
0.00147337
5.41221e-05
0.00351075
0.000987341
0.00342523
0.00141022
0.000995444
-0.00431635
0.00236519
0.00836841
0.00257835
0.00548937
0.000253109
-0.0013584
-0.00133164
-0.00358226
-0.0017725
-0.00299554
-0.00177845
-0.00193103
-0.00147808
-0.000853495
-0.00091532
4.78633e-05
-0.000201396
0.000525182
0.000482495
0.00032896
0.000836097
-0.000980463
0.000208716
-0.00291416
-0.00115797
-0.0034413
-0.00176361
-0.00131564
-0.00109302
0.0012054
-2.34022e-05
0.00218123
0.0010077
0.00229713
0.00161435
0.000850592
0.000562784
-0.00225784
-0.00114261
-0.00327996
-0.00130381
-0.000435208
-0.000386779
0.00204087
0.000635872
0.00240699
0.00146403
0.0019398
0.00081362
-0.000916928
-0.00104936
-0.00337804
-0.00153043
-0.00117083
-0.000540699
0.00176509
0.000552944
0.0023091
0.00139032
0.00181488
0.00107541
-0.000864304
-0.000664993
-0.00351426
-0.00156214
-0.0018108
-0.00074175
0.00134786
0.000345335
0.00228933
0.00129908
0.00206367
0.00137244
-0.000269152
-0.00021415
-0.00326356
-0.00147907
-0.00234796
-0.00097584
0.000970134
6.84109e-05
0.00246649
0.0010699
0.00242374
0.00148278
0.000582565
-0.00283356
0.0023732
0.00599521
0.00328536
0.00457721
0.00165234
0.00027461
-3.19055e-05
-0.00189802
-0.000909101
-0.00211835
-0.00121094
-0.00162919
-0.00107903
-0.000985404
-0.000615026
-0.000416147
9.27054e-06
-9.91169e-05
0.000575791
-0.000237558
0.000680819
-0.00108549
-9.32867e-05
-0.00214006
-0.00129538
-0.0022392
-0.00167991
-0.00093111
-0.00103973
0.000565217
-9.57722e-05
0.00123727
0.000883278
0.00131808
0.00134648
0.000387388
0.000400383
-0.00131174
-0.00106463
-0.00181494
-0.00123088
-0.000268957
-0.00040566
0.00121564
0.000485109
0.00151622
0.00124946
0.00117545
0.000777303
-0.000444774
-0.000790751
-0.00180998
-0.00125944
-0.00070214
-0.000441916
0.000947567
0.000494105
0.00137308
0.00125912
0.00104987
0.000939604
-0.000544789
-0.000585875
-0.00198878
-0.00132034
-0.00107634
-0.000641539
0.000669062
0.00031445
0.00133333
0.00119826
0.00117986
0.00116885
-0.000239744
-0.000249572
-0.00184513
-0.00129936
-0.00129817
-0.000879123
0.000549899
6.47287e-05
0.00152264
0.00100039
0.00148807
0.0012833
0.000299659
-0.00155025
0.00196093
0.00403428
0.0031428
0.00339534
0.00231822
0.00109919
0.00104155
-0.000621334
8.81343e-05
-0.00116493
-0.000407827
-0.00113323
-0.00048351
-0.000909722
-0.000223877
-0.000675779
0.000218604
-0.000541595
0.000579832
-0.000598784
0.00049381
-0.000999464
-0.000228166
-0.00141808
-0.00111446
-0.00135291
-0.00135724
-0.00068833
-0.000884701
9.26754e-05
-0.000161453
0.000514026
0.000580837
0.000575789
0.000852026
0.000116199
0.000158215
-0.000617928
-0.000841692
-0.000815033
-0.000985363
-0.000125289
-0.000380781
0.000611056
0.000302712
0.000832721
0.000854938
0.000623224
0.000553097
-0.000142933
-0.000502901
-0.000753988
-0.000863698
-0.000341342
-0.000319769
0.000403642
0.000373684
0.000679629
0.000927933
0.000495618
0.000662377
-0.000279231
-0.000405679
-0.000920726
-0.000920971
-0.000561047
-0.000479487
0.00022758
0.000233279
0.000620566
0.000876824
0.000536315
0.000788425
-0.000151341
-0.000216413
-0.000840296
-0.000933589
-0.000580992
-0.000663159
0.000279467
4.59904e-05
0.000813492
0.000757009
0.000777057
0.000899575
0.000157093
-0.000650676
0.00124331
0.00279097
0.00230833
0.00233031
0.00222819
0.00117932
0.00149082
0.00011604
0.000755197
-0.000429312
0.000284939
-0.000662968
0.000111519
-0.000736303
0.000184287
-0.000748551
0.000378114
-0.000735417
0.000520764
-0.000741428
0.000345261
-0.000823966
-0.000189916
-0.000882907
-0.000752866
-0.000789962
-0.000932214
-0.00050898
-0.000667
-0.00017254
-0.000211139
5.8162e-05
0.000238627
0.000126026
0.000361852
-7.02162e-06
-3.54691e-05
-0.000220606
-0.000581665
-0.00026884
-0.000678858
-2.80991e-05
-0.00032828
0.000260476
0.000115645
0.000388793
0.000434209
0.00030466
0.000271748
1.95261e-05
-0.000274947
-0.000207296
-0.000495184
-0.000121105
-0.000211842
0.000120305
0.00021544
0.00025235
0.000528927
0.00018213
0.00035519
-0.000105493
-0.000227804
-0.00033773
-0.000533368
-0.000255485
-0.00031622
1.0431e-05
0.000115568
0.00018878
0.000479086
0.000172798
0.000391353
-6.36058e-05
-0.000164993
-0.00028395
-0.000563866
-0.00018212
-0.000423596
0.000139194
1.92536e-05
0.000370643
0.00044782
0.000348497
0.000495802
0.000109112
-0.000154875
0.000774728
0.00201625
0.00142093
0.00168411
0.00159787
0.00100239
0.0012958
0.000418112
0.000920455
-5.39707e-05
0.000615233
-0.00035774
0.00045558
-0.000576641
0.000412763
-0.000705735
0.00042351
-0.000746166
0.000395157
-0.000713071
0.000216868
-0.000645678
-9.85022e-05
-0.000567544
-0.000405406
-0.000483061
-0.000532454
-0.000381928
-0.000439405
-0.000265589
-0.000215314
-0.000165931
-2.47684e-06
-8.68102e-05
4.12237e-05
-5.0718e-05
-0.000134239
-4.51439e-05
-0.000373472
-2.96111e-05
-0.000420868
1.92966e-05
-0.00026268
0.000102289
-2.84544e-05
0.000154564
0.000128364
0.000147837
6.89925e-05
7.88949e-05
-0.000140809
2.50712e-06
-0.000245972
-1.5938e-05
-0.000137862
1.21987e-05
6.66134e-05
4.78766e-05
0.000206861
4.18806e-05
0.000123746
-2.23801e-05
-0.000121474
-9.25089e-05
-0.000271146
-0.000105813
-0.000200605
-6.01097e-05
-2.54401e-06
-9.27959e-06
0.00015479
1.54641e-05
0.000105592
-1.44078e-05
-0.000133929
-4.4431e-05
-0.000305874
-1.0176e-05
-0.000241439
7.4762e-05
-1.62983e-05
0.000145501
0.000189637
0.000142564
0.000201377
9.73775e-05
4.65021e-05
0.000537375
0.00147887
0.000899661
0.00132181
0.00102849
0.000873564
0.000972991
0.00047362
0.000792865
0.000126152
0.000632629
-0.00019751
0.000501958
-0.000445965
0.000399145
-0.000602915
0.000309043
-0.000656066
0.000211125
-0.000615158
8.28552e-05
-0.000517407
-6.53782e-05
-0.000419308
-0.00019759
-0.00035085
-0.000267485
-0.000312034
-0.000254271
-0.000278802
-0.000191855
-0.000228348
-0.00012854
-0.000150126
-0.000114914
-6.43416e-05
-0.000161572
1.51535e-06
-0.000225462
3.42783e-05
-0.000244929
3.87631e-05
-0.000189216
4.65734e-05
-9.25723e-05
5.7915e-05
-2.0967e-05
7.62266e-05
-2.08213e-05
7.875e-05
-7.38734e-05
5.55652e-05
-0.000108376
1.85693e-05
-8.52603e-05
-1.0917e-05
-2.13079e-05
-1.60781e-05
2.30932e-05
-2.52278e-06
9.10018e-07
-1.98241e-07
-7.48175e-05
-1.67803e-05
-0.00013476
-4.58699e-05
-0.000130071
-6.47997e-05
-7.94205e-05
-5.99328e-05
-3.34896e-05
-3.04694e-05
-4.91405e-05
1.24553e-06
-0.000116054
2.24833e-05
-0.000160425
3.41932e-05
-0.00013148
4.58179e-05
-4.29181e-05
5.69405e-05
3.12317e-05
6.84129e-05
4.59679e-05
8.26453e-05
9.24733e-05
0.000414694
0.00106419
0.000696174
0.00104034
0.000800772
0.000768964
0.000791821
0.000482575
0.00071971
0.000198269
0.000581995
-5.97968e-05
0.000439808
-0.00030378
0.000293681
-0.000456785
0.000156621
-0.000519005
4.17001e-05
-0.000500241
-3.9966e-05
-0.000435742
-9.78289e-05
-0.000361441
-0.000137856
-0.000310821
-0.000164181
-0.000285714
-0.000177329
-0.000265657
-0.000179268
-0.000226406
-0.000171454
-0.000157937
-0.000160677
-7.51165e-05
-0.00015261
-6.55097e-06
-0.000146775
2.84441e-05
-0.000138585
3.05699e-05
-0.000118482
2.64658e-05
-9.03166e-05
2.97454e-05
-5.93199e-05
4.52296e-05
-3.79776e-05
5.74114e-05
-3.31784e-05
5.07709e-05
-3.8448e-05
2.38404e-05
-4.40127e-05
-5.35536e-06
-4.27996e-05
-1.72944e-05
-3.49012e-05
-1.04221e-05
-3.4892e-05
-2.07702e-07
-4.88016e-05
-2.87171e-06
-7.04088e-05
-2.42654e-05
-8.74591e-05
-4.77509e-05
-9.64817e-05
-5.09117e-05
-9.63413e-05
-3.0612e-05
-9.60094e-05
9.15041e-07
-9.8538e-05
2.50163e-05
-9.70717e-05
3.27252e-05
-8.19432e-05
3.06847e-05
-5.61553e-05
3.11544e-05
-3.14272e-05
4.36872e-05
-1.49255e-05
6.61444e-05
7.75499e-05
0.000314353
0.000749833
0.000573062
0.000781631
0.000705818
0.000636208
0.0007377
0.00045069
0.000692311
0.000243662
0.000595676
3.68407e-05
0.000438992
-0.0001471
0.000270696
-0.000288493
0.000114959
-0.000363269
-5.62743e-06
-0.000379653
-8.39844e-05
-0.000357383
-0.000123652
-0.000321771
-0.000143109
-0.000291367
-0.000159492
-0.000269335
-0.000178458
-0.000246691
-0.000194822
-0.000210036
-0.000197677
-0.000155077
-0.000181317
-9.14768e-05
-0.000151193
-3.66771e-05
-0.000119133
-3.61584e-06
-9.6377e-05
7.81033e-06
-8.00239e-05
1.01075e-05
-6.5424e-05
1.51452e-05
-4.6079e-05
2.58891e-05
-2.32906e-05
3.46266e-05
-5.97592e-06
3.34569e-05
-1.56084e-06
1.9424e-05
-9.30412e-06
2.38564e-06
-1.93575e-05
-7.24257e-06
-2.34024e-05
-6.37801e-06
-2.17243e-05
-1.88739e-06
-2.11587e-05
-3.44006e-06
-3.08945e-05
-1.45341e-05
-5.10398e-05
-2.76071e-05
-7.12848e-05
-3.06636e-05
-8.26414e-05
-1.92539e-05
-8.14069e-05
-3.22652e-07
-7.23534e-05
1.5961e-05
-6.24537e-05
2.28279e-05
-5.47999e-05
2.30297e-05
-4.86063e-05
2.49617e-05
-3.94676e-05
3.45546e-05
-2.2852e-05
4.95314e-05
5.46965e-05
0.000226596
0.000523233
0.000443807
0.000564422
0.000592423
0.000487595
0.000665417
0.000377694
0.000665157
0.00024392
0.000601031
0.000100966
0.00048803
-3.41028e-05
0.000341462
-0.000141929
0.000195012
-0.000216819
7.10059e-05
-0.000255643
-1.92333e-05
-0.000267141
-7.82024e-05
-0.000262803
-0.000117426
-0.000252147
-0.000148278
-0.000238483
-0.000175937
-0.000219026
-0.000196057
-0.000189912
-0.000200649
-0.000150486
-0.000185463
-0.000106665
-0.000155105
-6.70355e-05
-0.000120403
-3.83192e-05
-9.13964e-05
-2.11993e-05
-7.02785e-05
-1.1012e-05
-5.27805e-05
-2.34968e-06
-3.36013e-05
6.71393e-06
-1.27015e-05
1.37285e-05
5.6848e-06
1.5071e-05
1.44646e-05
1.06441e-05
1.3222e-05
3.62713e-06
7.44348e-06
-1.4657e-06
3.60277e-06
-2.5402e-06
3.44612e-06
-1.73402e-06
3.04943e-06
-3.04444e-06
-3.77948e-06
-7.70528e-06
-1.88485e-05
-1.25381e-05
-3.60682e-05
-1.34436e-05
-4.72983e-05
-8.02245e-06
-4.92647e-05
1.64232e-06
-4.4065e-05
1.07553e-05
-3.78456e-05
1.66107e-05
-3.44218e-05
1.96138e-05
-3.26763e-05
2.32193e-05
-2.78779e-05
2.97581e-05
-1.61886e-05
3.78442e-05
3.85073e-05
0.00016138
0.000361853
0.000329205
0.000396599
0.000463162
0.000353638
0.000551126
0.000289729
0.000585883
0.00020916
0.000567245
0.0001196
0.000502785
3.03551e-05
0.000406404
-4.55491e-05
0.000298239
-0.000108653
0.000193688
-0.00015109
0.000103347
-0.000176798
3.02877e-05
-0.000189745
-2.84079e-05
-0.000193451
-7.69517e-05
-0.000189935
-0.000116672
-0.000179301
-0.000145251
-0.000161334
-0.000158322
-0.000137417
-0.000155004
-0.000109982
-0.000138363
-8.36735e-05
-0.000115184
-6.15018e-05
-9.19147e-05
-4.44726e-05
-7.14455e-05
-3.14777e-05
-5.2962e-05
-2.08267e-05
-3.45018e-05
-1.1744e-05
-1.60383e-05
-4.73443e-06
-2.06726e-07
-7.58257e-07
1.0237e-05
2.00655e-07
1.44599e-05
-5.98503e-07
1.4572e-05
-1.57953e-06
1.37033e-05
-1.67287e-06
1.33232e-05
-1.35601e-06
1.17872e-05
-1.50925e-06
6.65563e-06
-2.57208e-06
-2.37622e-06
-3.50361e-06
-1.2973e-05
-2.84931e-06
-2.12158e-05
2.16202e-07
-2.46581e-05
5.08777e-06
-2.42357e-05
1.03333e-05
-2.24012e-05
1.47746e-05
-2.11806e-05
1.83984e-05
-2.00231e-05
2.20668e-05
-1.65765e-05
2.6311e-05
-9.26301e-06
3.05289e-05
2.92442e-05
0.000116519
0.000245336
0.000241913
0.000271205
0.000349161
0.000246386
0.00042952
0.000209367
0.000476321
0.000162358
0.000486762
0.000109159
0.00046283
5.42865e-05
0.000415368
1.9126e-06
0.000347844
-4.11271e-05
0.000275048
-7.82926e-05
0.000202897
-0.000104646
0.000135749
-0.000122595
7.53413e-05
-0.00013304
2.21843e-05
-0.000136776
-2.27552e-05
-0.000134362
-5.766e-05
-0.000126432
-8.09929e-05
-0.000114084
-9.17078e-05
-9.92637e-05
-9.19548e-05
-8.3426e-05
-8.51513e-05
-6.83092e-05
-7.47276e-05
-5.48962e-05
-6.29472e-05
-4.32505e-05
-5.05997e-05
-3.31683e-05
-3.77978e-05
-2.45459e-05
-2.50302e-05
-1.75006e-05
-1.35908e-05
-1.21937e-05
-4.85305e-06
-8.5376e-06
6.57618e-07
-6.11303e-06
3.4309e-06
-4.35469e-06
4.62001e-06
-2.86187e-06
4.81803e-06
-1.55207e-06
3.77584e-06
-4.66618e-07
8.5809e-07
3.42527e-07
-3.90999e-06
1.26574e-06
-9.4862e-06
2.72851e-06
-1.42537e-05
4.97784e-06
-1.70735e-05
7.90757e-06
-1.78808e-05
1.11466e-05
-1.74507e-05
1.4345e-05
-1.64224e-05
1.73678e-05
-1.46147e-05
2.02588e-05
-1.13023e-05
2.29986e-05
-6.06725e-06
2.52933e-05
2.31773e-05
8.4512e-05
0.000160823
0.000176843
0.000178872
0.000258495
0.000164729
0.000324134
0.000143727
0.000369496
0.000116998
0.000392295
8.63617e-05
0.000392677
5.39051e-05
0.000372884
2.17051e-05
0.000339923
-8.16577e-06
0.000295847
-3.42149e-05
0.000246717
-5.55146e-05
0.00019606
-7.19363e-05
0.0001465
-8.34785e-05
0.000100034
-9.03092e-05
5.84109e-05
-9.27419e-05
2.32479e-05
-9.12693e-05
-4.23595e-06
-8.65968e-05
-2.39395e-05
-7.95578e-05
-3.62381e-05
-7.11291e-05
-4.23879e-05
-6.21602e-05
-4.41234e-05
-5.31553e-05
-4.28229e-05
-4.45444e-05
-3.9432e-05
-3.65578e-05
-3.46228e-05
-2.93551e-05
-2.90764e-05
-2.30438e-05
-2.35678e-05
-1.77014e-05
-1.88165e-05
-1.3292e-05
-1.52464e-05
-9.68371e-06
-1.29012e-05
-6.69951e-06
-1.15827e-05
-4.18367e-06
-1.11098e-05
-2.0241e-06
-1.14252e-05
-1.47142e-07
-1.2639e-05
1.55139e-06
-1.45706e-05
3.19231e-06
-1.67577e-05
4.91884e-06
-1.86109e-05
6.82998e-06
-1.96295e-05
8.92154e-06
-1.96003e-05
1.11185e-05
-1.85736e-05
1.33209e-05
-1.66451e-05
1.54382e-05
-1.37812e-05
1.73924e-05
-9.87107e-06
1.90873e-05
-4.94985e-06
2.03718e-05
1.8227e-05
6.09279e-05
9.98946e-05
0.000128159
0.000111639
0.000189016
0.000103869
0.000240369
9.23761e-05
0.000279663
7.77077e-05
0.000305331
6.06947e-05
0.000316934
4.23022e-05
0.000315138
2.35008e-05
0.00030188
5.09314e-06
0.000278845
-1.11788e-05
0.0002498
-2.64677e-05
0.000216449
-3.85845e-05
0.000181032
-4.80604e-05
0.000145494
-5.47701e-05
0.000111523
-5.87714e-05
8.05185e-05
-6.02627e-05
5.3489e-05
-5.95647e-05
3.10232e-05
-5.70912e-05
1.31666e-05
-5.32722e-05
-4.37813e-07
-4.85516e-05
-1.03013e-05
-4.32855e-05
-1.70458e-05
-3.77984e-05
-2.12708e-05
-3.23349e-05
-2.35452e-05
-2.70782e-05
-2.44156e-05
-2.21686e-05
-2.44073e-05
-1.77125e-05
-2.3976e-05
-1.37294e-05
-2.34378e-05
-1.02196e-05
-2.29893e-05
-7.14414e-06
-2.27265e-05
-4.45173e-06
-2.26699e-05
-2.08396e-06
-2.28053e-05
-6.92945e-09
-2.31268e-05
1.8716e-06
-2.3548e-05
3.60621e-06
-2.38509e-05
5.22067e-06
-2.38082e-05
6.78849e-06
-2.32273e-05
8.3373e-06
-2.19621e-05
9.84967e-06
-1.99399e-05
1.12979e-05
-1.7144e-05
1.26424e-05
-1.35864e-05
1.3834e-05
-9.31599e-06
1.48155e-05
-4.46565e-06
1.552e-05
1.37598e-05
3.96066e-05
6.02883e-05
8.37087e-05
6.75343e-05
0.000124387
6.3188e-05
0.000159984
5.67811e-05
0.000189103
4.85894e-05
0.000210783
3.90131e-05
0.000224561
2.85223e-05
0.000230451
1.76102e-05
0.000228796
6.74817e-06
0.000221226
-3.60777e-06
0.000207875
-1.31157e-05
0.000190405
-2.1115e-05
0.000170123
-2.77783e-05
0.000148246
-3.28921e-05
0.000125898
-3.64213e-05
0.000104057
-3.84199e-05
8.35071e-05
-3.9014e-05
6.48003e-05
-3.83846e-05
4.82739e-05
-3.67444e-05
3.40463e-05
-3.4319e-05
2.20914e-05
-3.13265e-05
1.22593e-05
-2.79683e-05
4.34258e-06
-2.44221e-05
-1.89781e-06
-2.0836e-05
-6.72013e-06
-1.73428e-05
-1.04315e-05
-1.40048e-05
-1.32631e-05
-1.09043e-05
-1.54168e-05
-8.06451e-06
-1.70613e-05
-5.49578e-06
-1.83229e-05
-3.19392e-06
-1.93037e-05
-1.10798e-06
-2.00141e-05
7.05443e-07
-2.04692e-05
2.32753e-06
-2.06776e-05
3.8097e-06
-2.05846e-05
5.12385e-06
-2.00817e-05
6.28477e-06
-1.91361e-05
7.38989e-06
-1.77026e-05
8.4126e-06
-1.57538e-05
9.346e-06
-1.329e-05
1.01768e-05
-1.03428e-05
1.08855e-05
-6.97652e-06
1.14478e-05
-3.29575e-06
1.18377e-05
1.04631e-05
2.46111e-05
3.56782e-05
5.22302e-05
3.99119e-05
7.80678e-05
3.73483e-05
0.000101271
3.35788e-05
0.000121107
2.87523e-05
0.000137031
2.30862e-05
0.000148712
1.68402e-05
0.000156029
1.02938e-05
0.000159055
3.72323e-06
0.000158081
-2.6325e-06
0.000153506
-8.53959e-06
0.000146021
-1.36303e-05
0.000136205
-1.79615e-05
0.000124692
-2.13775e-05
0.000112106
-2.38331e-05
9.90233e-05
-2.53352e-05
8.59452e-05
-2.59356e-05
7.32817e-05
-2.57218e-05
6.13445e-05
-2.48059e-05
5.03442e-05
-2.33148e-05
4.04006e-05
-2.13806e-05
3.15618e-05
-1.91321e-05
2.38252e-05
-1.66891e-05
1.71481e-05
-1.41584e-05
1.14377e-05
-1.16302e-05
6.60605e-06
-9.17572e-06
2.54443e-06
-6.84729e-06
-8.34774e-07
-4.68496e-06
-3.61959e-06
-2.70813e-06
-5.90138e-06
-9.13789e-07
-7.70683e-06
6.93897e-07
-9.13678e-06
2.13558e-06
-1.01596e-05
3.35154e-06
-1.08351e-05
4.48331e-06
-1.11254e-05
5.41118e-06
-1.11042e-05
6.26216e-06
-1.07351e-05
7.01976e-06
-1.00161e-05
7.69172e-06
-8.95433e-06
8.28183e-06
-7.56906e-06
8.78935e-06
-5.89445e-06
9.20925e-06
-3.98047e-06
9.53267e-06
-1.89422e-06
9.7507e-06
8.57e-06
1.67345e-05
1.89426e-05
3.56098e-05
2.10313e-05
5.34421e-05
1.95138e-05
6.97366e-05
1.72845e-05
8.40609e-05
1.44252e-05
9.60728e-05
1.10706e-05
0.000105532
7.37966e-06
0.00011231
3.51671e-06
0.000116403
-3.68389e-07
0.000117873
-4.10179e-06
0.000116901
-7.56752e-06
0.00011388
-1.06103e-05
0.00010906
-1.31417e-05
0.000102786
-1.51029e-05
9.54169e-05
-1.64623e-05
8.73009e-05
-1.72184e-05
7.87618e-05
-1.73972e-05
7.00872e-05
-1.70486e-05
6.15205e-05
-1.62391e-05
5.32536e-05
-1.50458e-05
4.54285e-05
-1.35544e-05
3.81432e-05
-1.18491e-05
3.14612e-05
-1.00104e-05
2.54152e-05
-8.11251e-06
2.00075e-05
-6.2212e-06
1.52214e-05
-4.3912e-06
1.10332e-05
-2.66253e-06
7.4042e-06
-1.05639e-06
4.30974e-06
3.88013e-07
1.69062e-06
1.70467e-06
-4.61763e-07
2.84377e-06
-2.19658e-06
3.86967e-06
-3.5838e-06
4.73942e-06
-4.58071e-06
5.47967e-06
-5.27645e-06
6.10523e-06
-5.6537e-06
6.63809e-06
-5.72579e-06
7.09119e-06
-5.51012e-06
7.47544e-06
-5.02891e-06
7.79986e-06
-4.31022e-06
8.07004e-06
-3.38892e-06
8.2878e-06
-2.30695e-06
8.45115e-06
-1.11471e-06
8.55945e-06
7.45693e-06
1.1652e-05
7.2882e-06
2.48029e-05
7.87671e-06
3.73238e-05
6.99379e-06
4.89009e-05
5.70896e-06
5.925e-05
4.07393e-06
6.81313e-05
2.18712e-06
7.53545e-05
1.56767e-07
8.07614e-05
-1.8894e-06
8.43675e-05
-3.97398e-06
8.62437e-05
-5.97761e-06
8.64923e-05
-7.81599e-06
8.5191e-05
-9.30947e-06
8.25119e-05
-1.04634e-05
7.86622e-05
-1.12532e-05
7.38663e-05
-1.16659e-05
6.83508e-05
-1.17025e-05
6.23348e-05
-1.1382e-05
5.60228e-05
-1.07379e-05
4.96037e-05
-9.8201e-06
4.3246e-05
-8.68658e-06
3.7076e-05
-7.3832e-06
3.11916e-05
-5.9658e-06
2.56701e-05
-4.49071e-06
2.05699e-05
-3.01215e-06
1.5924e-05
-1.57411e-06
1.17438e-05
-2.11785e-07
8.08244e-06
9.96371e-07
4.86397e-06
2.16096e-06
2.17584e-06
3.07658e-06
-1.08868e-07
3.9887e-06
-2.03935e-06
4.77208e-06
-3.57736e-06
5.40616e-06
-4.73666e-06
5.89839e-06
-5.54241e-06
6.28497e-06
-6.02236e-06
6.58414e-06
-6.19695e-06
6.81175e-06
-6.08795e-06
6.98197e-06
-5.71892e-06
7.10688e-06
-5.11715e-06
7.19907e-06
-4.31339e-06
7.26766e-06
-3.34242e-06
7.31857e-06
-2.24409e-06
7.35477e-06
-1.0625e-06
7.37977e-06
6.39495e-06
7.65355e-06
-3.68012e-07
1.622e-05
-6.90708e-07
2.43957e-05
-1.17864e-06
3.19712e-05
-1.86436e-06
3.87673e-05
-2.72401e-06
4.46005e-05
-3.64747e-06
4.93454e-05
-4.58813e-06
5.29461e-05
-5.49029e-06
5.52836e-05
-6.31146e-06
5.63276e-05
-7.02133e-06
5.60905e-05
-7.5789e-06
5.47177e-05
-7.93749e-06
5.23309e-05
-8.07761e-06
4.90703e-05
-7.99293e-06
4.50896e-05
-7.68487e-06
4.05607e-05
-7.17313e-06
3.56524e-05
-6.47384e-06
3.05104e-05
-5.59666e-06
2.5272e-05
-4.58148e-06
2.01197e-05
-3.53261e-06
1.51456e-05
-2.40746e-06
1.04278e-05
-1.24791e-06
6.03275e-06
-9.63861e-08
2.05718e-06
9.63754e-07
-1.51797e-06
2.00203e-06
-4.64957e-06
2.91929e-06
-7.37273e-06
3.71731e-06
-9.60839e-06
4.3948e-06
-1.14717e-05
4.93919e-06
-1.28634e-05
5.37937e-06
-1.38061e-05
5.7129e-06
-1.43203e-05
5.91867e-06
-1.44709e-05
6.04826e-06
-1.42833e-05
6.09691e-06
-1.37799e-05
6.08022e-06
-1.29841e-05
6.01542e-06
-1.19222e-05
5.91996e-06
-1.06268e-05
5.81213e-06
-9.12759e-06
5.70099e-06
-7.45399e-06
5.59558e-06
-5.63679e-06
5.503e-06
-3.71551e-06
5.43495e-06
-1.73082e-06
5.39603e-06
4.66366e-06
4.14096e-06
-4.5096e-06
8.82608e-06
-5.37459e-06
1.32731e-05
-5.62179e-06
1.72878e-05
-5.87771e-06
2.06932e-05
-6.13116e-06
2.33881e-05
-6.34325e-06
2.52852e-05
-6.48542e-06
2.63257e-05
-6.53137e-06
2.6456e-05
-6.4415e-06
2.56806e-05
-6.24527e-06
2.40289e-05
-5.92697e-06
2.15921e-05
-5.50085e-06
1.84825e-05
-4.96829e-06
1.47938e-05
-4.30405e-06
1.06295e-05
-3.51979e-06
6.16203e-06
-2.70457e-06
1.53862e-06
-1.84978e-06
-3.115e-06
-9.42711e-07
-7.73866e-06
4.3121e-08
-1.21748e-05
9.05554e-07
-1.62984e-05
1.71836e-06
-2.00814e-05
2.5359e-06
-2.3453e-05
3.27531e-06
-2.63964e-05
3.90777e-06
-2.88249e-05
4.43157e-06
-3.07394e-05
4.83381e-06
-3.21369e-05
5.11352e-06
-3.3015e-05
5.27146e-06
-3.33934e-05
5.31705e-06
-3.32784e-05
5.26407e-06
-3.26853e-05
5.11897e-06
-3.16582e-05