/*--------------------------------*- C++ -*----------------------------------*\
  =========                 |
  \\      /  F ield         | OpenFOAM: The Open Source CFD Toolbox
   \\    /   O peration     | Website:  https://openfoam.org
    \\  /    A nd           | Version:  7
     \\/     M anipulation  |
\*---------------------------------------------------------------------------*/
FoamFile
{
    version     2.0;
    format      ascii;
    class       volScalarField;
    location    "0.84";
    object      p;
}
// * * * * * * * * * * * * * * * * * * * * * * * * * * * * * * * * * * * * * //

dimensions      [0 2 -2 0 0 0 0];

internalField   nonuniform List<scalar> 
1936
(
-1.30078e-05
-3009.36
-6589.96
-6506.51
-5987.53
-6140.71
-5814.88
-5017.45
-4335.49
-4134.05
-4341.12
-5275.06
-6900.17
-7099.96
-5105.9
-3609.18
-3467.66
-4011.12
-6162.01
-7689.68
-5924.45
-3822.05
-3342.15
-3583.4
-5578.58
-7664.65
-6257.85
-3941.99
-3407.97
-3591.02
-4931.74
-7055.06
-6869.86
-4533.39
-3429.19
-3512.34
-4831.89
-7236.47
-6920.18
-4458.19
-3420.04
-3365.67
-4503.84
-7242.48
-105.257
-3008.44
-6533.01
-6468.38
-5970.31
-6116.36
-5793.85
-5015.41
-4359.5
-4172.23
-4370.25
-5277.81
-6866.82
-7048.79
-5093.67
-3657.53
-3529.54
-4027.92
-6114.29
-7623.8
-5896.78
-3850.11
-3404.67
-3622.61
-5542.01
-7594.24
-6218.93
-3957.9
-3463.29
-3641.87
-4942.39
-7017.12
-6813.79
-4532.79
-3488.55
-3562.26
-4817.27
-7172.16
-6871.01
-4462.44
-3474.37
-3422.25
-4503.61
-7186.14
-430.278
-3013.9
-6328.4
-6366.79
-5930.18
-6040.41
-5734.38
-5015.8
-4423.69
-4265.18
-4453.66
-5304.44
-6765.35
-6888.02
-5075.37
-3790.08
-3676.02
-4092.37
-5992.9
-7411.56
-5833.61
-3945.08
-3551.81
-3736.92
-5458.22
-7368.51
-6120.56
-4026.73
-3594.23
-3780.25
-4994.9
-6892.82
-6643.09
-4551.15
-3637.06
-3690.93
-4803.99
-6974.56
-6722.76
-4503.32
-3608.08
-3564.25
-4535.21
-7011.41
-876.412
-3048.64
-6035.16
-6210.58
-5870.76
-5933.44
-5650.6
-5022.12
-4519.18
-4394.78
-4571.4
-5337.61
-6600.16
-6647.25
-5057.83
-3975.59
-3875.92
-4201.72
-5831.57
-7090.41
-5738.94
-4087.92
-3755.67
-3906.12
-5352.1
-7030.24
-5978.45
-4145.04
-3781.76
-3968.31
-5054.29
-6686.29
-6394.11
-4590.02
-3842.19
-3875.78
-4804.09
-6684.07
-6495.84
-4568.94
-3797.43
-3765.48
-4591.37
-6745.58
-1387.3
-3121.88
-5705.79
-6011.41
-5785.12
-5806.44
-5556.08
-5036.38
-4633.26
-4540.32
-4700.83
-5364.55
-6392.78
-6367
-5042.97
-4179.85
-4095
-4339.21
-5661.7
-6716.07
-5625.14
-4253.62
-3981.67
-4099.57
-5243.59
-6639.81
-5816.3
-4296.38
-3997.27
-4170.95
-5099.78
-6427.54
-6112.41
-4641.31
-4065.07
-4084.57
-4819.27
-6354.34
-6227.68
-4645.46
-4010.19
-3990
-4660.28
-6435.35
-1924.55
-3237.55
-5378.9
-5783.69
-5671.31
-5669.01
-5460.76
-5057.4
-4752.76
-4686.08
-4825.47
-5375.8
-6161.7
-6080.3
-5032.54
-4380.47
-4310.95
-4489.33
-5503.79
-6333.81
-5501.74
-4422.96
-4206.5
-4293.89
-5148.19
-6246.49
-5649.76
-4460.63
-4219.16
-4365.49
-5122.25
-6143.18
-5834.17
-4700.64
-4280.24
-4292.26
-4848.05
-6026.77
-5948.26
-4723.62
-4222.79
-4212
-4733.91
-6116.77
-2458.68
-3395.83
-5083.52
-5542.98
-5533.28
-5528.98
-5370.83
-5080.87
-4864.41
-4818.71
-4934.26
-5367.93
-5925.65
-5812.9
-5030.02
-4563.01
-4508.72
-4636.41
-5370.37
-5977.41
-5379.23
-4579.85
-4413.49
-4473.48
-5076.37
-5886.87
-5489
-4618.73
-4428.04
-4539.83
-5122.5
-5859.96
-5585.51
-4764.29
-4473.03
-4481.67
-4885.14
-5729.66
-5682.39
-4796.06
-4419.28
-4415.01
-4805.48
-5816.9
-2964.23
-3590.75
-4841.75
-5307.33
-5380.1
-5391.84
-5288.68
-5100.13
-4958.42
-4929.27
-5021.55
-5340.06
-5702.35
-5582.7
-5036.9
-4719.34
-4679.1
-4768.32
-5264.28
-5670.18
-5266.99
-4714.18
-4591.36
-4629.72
-5031.77
-5584.38
-5342.83
-4754.6
-4609.91
-4687.08
-5107.92
-5601.24
-5382.86
-4827.33
-4635.45
-4642.63
-4922.87
-5480.56
-5449.72
-4857.52
-4589.63
-4589.45
-4868.72
-5555.3
-3415.22
-3809.35
-4670.44
-5096.18
-5224.25
-5262.43
-5213.91
-5109.78
-5028.63
-5013.42
-5082.57
-5295.94
-5506.6
-5400.13
-5050.29
-4845.48
-4816.5
-4877.11
-5183.19
-5425.45
-5173.24
-4821.43
-4734.27
-4757.81
-5009.9
-5351.2
-5219.57
-4859.36
-4756.16
-4805.96
-5084.81
-5384.33
-5230.98
-4885.76
-4764.11
-4770.1
-4955
-5287.13
-5263.57
-4905
-4728.37
-4730.41
-4919.34
-5343.77
-3789.84
-4030.15
-4577.61
-4928.19
-5080.71
-5145.62
-5145.59
-5106.87
-5072.39
-5069.18
-5116.6
-5242.72
-5347.95
-5267.38
-5063.74
-4940.41
-4919.05
-4957.7
-5124.05
-5247.74
-5102.88
-4900.03
-4842.19
-4856.58
-5001.43
-5188.34
-5125.67
-4930.59
-4863.76
-4894.77
-5059.38
-5219.87
-5126.43
-4932.5
-4859.85
-4865.3
-4976.23
-5149.5
-5130.15
-4937.26
-4833.96
-4837.21
-4953.85
-5187.34
-4080.42
-4228.54
-4554.52
-4815.45
-4964.22
-5047.3
-5084.1
-5091.66
-5090.84
-5097.44
-5126.5
-5188.74
-5229.96
-5178.36
-5072.25
-5004.24
-4988.82
-5008.76
-5083.52
-5132.28
-5056.54
-4952.25
-4917.49
-4926.04
-4999.5
-5087.72
-5062.95
-4972.6
-4935.75
-4953.4
-5036.76
-5109.57
-5060.78
-4964.51
-4925.06
-4930.02
-4987.12
-5062.11
-5046.95
-4957.25
-4906.55
-4910.53
-4973.48
-5084.09
-4294.63
-4389.62
-4576.89
-4756.91
-4884.13
-4972.87
-5031.74
-5067.83
-5088.56
-5101.84
-5117.78
-5140.75
-5149.92
-5121.7
-5073.26
-5040.16
-5029.48
-5034.93
-5057.75
-5067.14
-5030.52
-4983.26
-4964.83
-4969.23
-5000.31
-5034.68
-5027.45
-4993.66
-4977.47
-4985.83
-5020
-5045.89
-5023.96
-4983.13
-4964.84
-4968.12
-4991.07
-5014.51
-5003.66
-4968.78
-4950.21
-4954.41
-4982.56
-5025.22
-4446.78
-4511.74
-4622.05
-4738.82
-4840.41
-4924.13
-4990.74
-5039.98
-5072.26
-5089.55
-5097.59
-5101.94
-5099.48
-5086.48
-5068.23
-5054.62
-5047.32
-5043.78
-5042.55
-5036.22
-5018.57
-4999.49
-4991.14
-4992.46
-5002.12
-5012.09
-5011.04
-5002.08
-4997.11
-4999.8
-5009.53
-5015.09
-5006.36
-4992.38
-4985.81
-4986.82
-4991.9
-4993.76
-4986.47
-4975.93
-4972.87
-4976.43
-4985.85
-4997.51
-4558.97
-4601.34
-4669.58
-4747.1
-4824.31
-4896.89
-4960.76
-5011.76
-5046.85
-5065.75
-5072.2
-5071.87
-5068.57
-5064.23
-5059.7
-5055.39
-5050.16
-5042.95
-5033.91
-5024.03
-5014.12
-5006.98
-5003.69
-5003.17
-5004.15
-5005.19
-5005.19
-5004.22
-5003.61
-5003.56
-5003.96
-5003.04
-4999.82
-4996.41
-4994.87
-4994.19
-4992.22
-4987.89
-4982.99
-4981.07
-4982.96
-4985.32
-4986.87
-4987.72
-4645.93
-4671.33
-4714.17
-4766.64
-4824.75
-4883.83
-4939.02
-4985.24
-5018.6
-5038.14
-5046.45
-5048.29
-5048.24
-5048.69
-5049.42
-5048.82
-5045.13
-5037.83
-5028.55
-5019.87
-5013.59
-5010.22
-5008.6
-5007.38
-5005.79
-5004.35
-5003.78
-5003.98
-5004.09
-5003.13
-5001.34
-4999.5
-4998.32
-4998.01
-4997.84
-4996.41
-4992.86
-4988.09
-4984.8
-4984.81
-4986.87
-4988.13
-4987.4
-4986
-4715.64
-4729.78
-4756.16
-4791.44
-4833.4
-4879.01
-4923.31
-4962.03
-4991.73
-5011.35
-5022.66
-5028.49
-5032.21
-5035.51
-5038.12
-5038.77
-5036.4
-5031.11
-5024.39
-5018.18
-5013.89
-5011.48
-5010.1
-5008.6
-5006.62
-5004.73
-5003.62
-5003.24
-5002.85
-5001.8
-5000.26
-4998.93
-4998.42
-4998.5
-4998.26
-4996.73
-4993.74
-4990.28
-4987.93
-4987.57
-4988.38
-4988.69
-4987.87
-4986.72
-4771.39
-4779.18
-4795.12
-4818.18
-4847.17
-4879.87
-4913.41
-4944.07
-4969.35
-4988.25
-5001.42
-5010.48
-5017.14
-5022.32
-5025.98
-5027.58
-5026.78
-5023.93
-5020.05
-5016.3
-5013.42
-5011.42
-5009.91
-5008.37
-5006.63
-5004.94
-5003.62
-5002.67
-5001.83
-5000.87
-4999.86
-4999.06
-4998.65
-4998.4
-4997.82
-4996.48
-4994.41
-4992.14
-4990.38
-4989.55
-4989.34
-4989.05
-4988.43
-4987.83
-4815.24
-4819.77
-4829.53
-4844.33
-4863.63
-4886.12
-4909.9
-4932.88
-4953.27
-4970.18
-4983.6
-4994.08
-5002.32
-5008.72
-5013.32
-5016.04
-5016.91
-5016.29
-5014.8
-5013.04
-5011.41
-5010
-5008.69
-5007.36
-5005.95
-5004.56
-5003.31
-5002.22
-5001.27
-5000.4
-4999.64
-4999.04
-4998.58
-4998.09
-4997.36
-4996.26
-4994.83
-4993.31
-4991.97
-4990.99
-4990.31
-4989.76
-4989.27
-4988.91
-4849.29
-4852.14
-4858.32
-4867.83
-4880.44
-4895.42
-4911.75
-4928.26
-4943.83
-4957.82
-4969.94
-4980.2
-4988.72
-4995.62
-5000.93
-5004.67
-5006.99
-5008.14
-5008.46
-5008.28
-5007.82
-5007.19
-5006.43
-5005.54
-5004.56
-5003.56
-5002.57
-5001.65
-5000.8
-5000.05
-4999.4
-4998.84
-4998.32
-4997.74
-4997.02
-4996.13
-4995.11
-4994.02
-4992.99
-4992.1
-4991.36
-4990.77
-4990.34
-4990.08
-4875.48
-4877.38
-4881.41
-4887.61
-4895.84
-4905.72
-4916.73
-4928.24
-4939.73
-4950.64
-4960.68
-4969.69
-4977.57
-4984.28
-4989.8
-4994.16
-4997.45
-4999.81
-5001.4
-5002.42
-5002.99
-5003.21
-5003.15
-5002.88
-5002.45
-5001.92
-5001.34
-5000.73
-5000.13
-4999.56
-4999.02
-4998.51
-4998
-4997.45
-4996.83
-4996.13
-4995.36
-4994.58
-4993.81
-4993.1
-4992.48
-4991.97
-4991.61
-4991.4
-4895.35
-4896.65
-4899.34
-4903.45
-4908.89
-4915.46
-4922.9
-4930.9
-4939.13
-4947.31
-4955.19
-4962.58
-4969.35
-4975.4
-4980.69
-4985.18
-4988.92
-4991.94
-4994.33
-4996.18
-4997.57
-4998.55
-4999.21
-4999.59
-4999.76
-4999.76
-4999.63
-4999.42
-4999.14
-4998.81
-4998.46
-4998.09
-4997.69
-4997.25
-4996.77
-4996.25
-4995.7
-4995.14
-4994.6
-4994.08
-4993.63
-4993.26
-4993
-4992.84
-4910.06
-4910.96
-4912.79
-4915.57
-4919.25
-4923.72
-4928.83
-4934.43
-4940.34
-4946.39
-4952.41
-4958.27
-4963.85
-4969.05
-4973.82
-4978.1
-4981.88
-4985.16
-4987.96
-4990.32
-4992.27
-4993.85
-4995.11
-4996.07
-4996.79
-4997.3
-4997.64
-4997.83
-4997.91
-4997.89
-4997.79
-4997.63
-4997.41
-4997.14
-4996.84
-4996.5
-4996.14
-4995.78
-4995.42
-4995.08
-4994.78
-4994.54
-4994.37
-4994.27
-4919.73
-4920.39
-4921.71
-4923.72
-4926.38
-4929.61
-4933.35
-4937.49
-4941.94
-4946.57
-4951.31
-4956.04
-4960.67
-4965.13
-4969.36
-4973.3
-4976.92
-4980.21
-4983.15
-4985.76
-4988.03
-4989.98
-4991.64
-4993.03
-4994.17
-4995.08
-4995.8
-4996.35
-4996.75
-4997.01
-4997.17
-4997.23
-4997.21
-4997.13
-4997
-4996.83
-4996.63
-4996.41
-4996.2
-4995.99
-4995.81
-4995.66
-4995.55
-4995.49
-4925.17
-4925.7
-4926.75
-4928.34
-4930.47
-4933.06
-4936.07
-4939.43
-4943.08
-4946.93
-4950.92
-4954.97
-4959.01
-4962.99
-4966.83
-4970.5
-4973.97
-4977.19
-4980.16
-4982.86
-4985.29
-4987.44
-4989.34
-4990.98
-4992.38
-4993.56
-4994.54
-4995.33
-4995.96
-4996.43
-4996.78
-4997.02
-4997.16
-4997.22
-4997.22
-4997.17
-4997.08
-4996.97
-4996.84
-4996.72
-4996.61
-4996.51
-4996.44
-4996.41
-4927.95
-4928.41
-4929.32
-4930.7
-4932.55
-4934.82
-4937.45
-4940.41
-4943.65
-4947.09
-4950.68
-4954.37
-4958.08
-4961.78
-4965.41
-4968.92
-4972.29
-4975.47
-4978.44
-4981.19
-4983.7
-4985.97
-4988
-4989.8
-4991.36
-4992.71
-4993.84
-4994.79
-4995.56
-4996.18
-4996.65
-4997
-4997.24
-4997.4
-4997.48
-4997.5
-4997.48
-4997.43
-4997.36
-4997.29
-4997.21
-4997.15
-4997.1
-4997.07
-4929.2
-4929.63
-4930.46
-4931.75
-4933.46
-4935.55
-4938.01
-4940.77
-4943.79
-4947.03
-4950.42
-4953.92
-4957.48
-4961.04
-4964.57
-4968.01
-4971.32
-4974.49
-4977.48
-4980.27
-4982.84
-4985.19
-4987.31
-4989.2
-4990.87
-4992.32
-4993.56
-4994.6
-4995.46
-4996.16
-4996.71
-4997.13
-4997.44
-4997.65
-4997.78
-4997.84
-4997.86
-4997.84
-4997.8
-4997.75
-4997.69
-4997.64
-4997.6
-4997.58
-4929.59
-4929.99
-4930.8
-4932.03
-4933.67
-4935.7
-4938.07
-4940.74
-4943.67
-4946.81
-4950.12
-4953.55
-4957.05
-4960.56
-4964.05
-4967.47
-4970.79
-4973.97
-4976.99
-4979.82
-4982.44
-4984.85
-4987.03
-4988.99
-4990.72
-4992.24
-4993.54
-4994.65
-4995.56
-4996.31
-4996.9
-4997.36
-4997.7
-4997.93
-4998.08
-4998.17
-4998.2
-4998.19
-4998.16
-4998.11
-4998.07
-4998.02
-4997.99
-4997.97
-4929.49
-4929.89
-4930.68
-4931.9
-4933.52
-4935.52
-4937.87
-4940.51
-4943.42
-4946.55
-4949.84
-4953.26
-4956.75
-4960.27
-4963.77
-4967.21
-4970.55
-4973.76
-4976.81
-4979.67
-4982.34
-4984.79
-4987.02
-4989.02
-4990.79
-4992.34
-4993.68
-4994.81
-4995.75
-4996.52
-4997.13
-4997.6
-4997.94
-4998.18
-4998.34
-4998.42
-4998.45
-4998.44
-4998.41
-4998.36
-4998.31
-4998.26
-4998.23
-4998.21
-4929.23
-4929.63
-4930.42
-4931.63
-4933.26
-4935.27
-4937.62
-4940.28
-4943.2
-4946.34
-4949.65
-4953.09
-4956.61
-4960.15
-4963.68
-4967.15
-4970.52
-4973.76
-4976.84
-4979.74
-4982.43
-4984.91
-4987.16
-4989.17
-4990.96
-4992.52
-4993.87
-4995
-4995.95
-4996.71
-4997.31
-4997.77
-4998.1
-4998.33
-4998.47
-4998.54
-4998.56
-4998.54
-4998.5
-4998.44
-4998.38
-4998.33
-4998.29
-4998.27
-4928.98
-4929.38
-4930.17
-4931.39
-4933.03
-4935.06
-4937.44
-4940.13
-4943.08
-4946.26
-4949.61
-4953.08
-4956.64
-4960.21
-4963.77
-4967.27
-4970.67
-4973.94
-4977.04
-4979.95
-4982.65
-4985.14
-4987.39
-4989.4
-4991.18
-4992.73
-4994.05
-4995.17
-4996.08
-4996.82
-4997.39
-4997.82
-4998.12
-4998.32
-4998.44
-4998.48
-4998.48
-4998.44
-4998.38
-4998.31
-4998.24
-4998.18
-4998.14
-4998.12
-4928.84
-4929.24
-4930.03
-4931.27
-4932.94
-4935
-4937.41
-4940.14
-4943.13
-4946.35
-4949.74
-4953.25
-4956.83
-4960.44
-4964.03
-4967.55
-4970.96
-4974.24
-4977.35
-4980.26
-4982.96
-4985.43
-4987.66
-4989.65
-4991.4
-4992.92
-4994.2
-4995.27
-4996.14
-4996.83
-4997.35
-4997.73
-4997.98
-4998.13
-4998.2
-4998.21
-4998.17
-4998.11
-4998.03
-4997.94
-4997.87
-4997.8
-4997.75
-4997.73
-4928.9
-4929.3
-4930.1
-4931.35
-4933.05
-4935.14
-4937.58
-4940.34
-4943.36
-4946.61
-4950.03
-4953.56
-4957.17
-4960.8
-4964.4
-4967.93
-4971.35
-4974.63
-4977.73
-4980.63
-4983.31
-4985.76
-4987.96
-4989.91
-4991.62
-4993.08
-4994.31
-4995.32
-4996.13
-4996.75
-4997.2
-4997.51
-4997.7
-4997.78
-4997.79
-4997.74
-4997.65
-4997.55
-4997.44
-4997.33
-4997.24
-4997.17
-4997.12
-4997.1
-4929.2
-4929.59
-4930.4
-4931.67
-4933.38
-4935.49
-4937.95
-4940.72
-4943.76
-4947.01
-4950.44
-4953.98
-4957.6
-4961.23
-4964.83
-4968.37
-4971.78
-4975.05
-4978.14
-4981.02
-4983.68
-4986.09
-4988.26
-4990.16
-4991.82
-4993.22
-4994.39
-4995.33
-4996.07
-4996.61
-4996.98
-4997.21
-4997.31
-4997.31
-4997.24
-4997.11
-4996.95
-4996.78
-4996.62
-4996.47
-4996.36
-4996.29
-4996.24
-4996.23
-4929.77
-4930.16
-4930.97
-4932.24
-4933.94
-4936.04
-4938.48
-4941.24
-4944.26
-4947.5
-4950.92
-4954.46
-4958.07
-4961.69
-4965.29
-4968.82
-4972.23
-4975.48
-4978.56
-4981.42
-4984.04
-4986.42
-4988.55
-4990.41
-4992.01
-4993.36
-4994.46
-4995.33
-4995.98
-4996.44
-4996.73
-4996.86
-4996.87
-4996.78
-4996.6
-4996.37
-4996.12
-4995.85
-4995.61
-4995.4
-4995.24
-4995.14
-4995.1
-4995.1
-4930.66
-4931.04
-4931.83
-4933.04
-4934.7
-4936.74
-4939.13
-4941.83
-4944.81
-4948.02
-4951.41
-4954.93
-4958.53
-4962.15
-4965.74
-4969.25
-4972.65
-4975.89
-4978.95
-4981.79
-4984.39
-4986.74
-4988.82
-4990.64
-4992.19
-4993.48
-4994.52
-4995.32
-4995.9
-4996.28
-4996.48
-4996.52
-4996.43
-4996.23
-4995.95
-4995.6
-4995.22
-4994.84
-4994.47
-4994.14
-4993.89
-4993.72
-4993.67
-4993.69
-4931.93
-4932.26
-4932.98
-4934.06
-4935.6
-4937.53
-4939.82
-4942.45
-4945.36
-4948.52
-4951.88
-4955.38
-4958.95
-4962.56
-4966.14
-4969.65
-4973.03
-4976.26
-4979.3
-4982.12
-4984.7
-4987.02
-4989.08
-4990.85
-4992.36
-4993.6
-4994.58
-4995.32
-4995.84
-4996.14
-4996.26
-4996.21
-4996.03
-4995.72
-4995.32
-4994.85
-4994.34
-4993.8
-4993.27
-4992.78
-4992.37
-4992.05
-4991.94
-4991.93
-4933.71
-4933.84
-4934.38
-4935.21
-4936.57
-4938.33
-4940.5
-4943.02
-4945.87
-4948.97
-4952.29
-4955.76
-4959.32
-4962.91
-4966.49
-4969.98
-4973.37
-4976.59
-4979.62
-4982.42
-4984.98
-4987.28
-4989.31
-4991.05
-4992.52
-4993.72
-4994.65
-4995.34
-4995.79
-4996.03
-4996.08
-4995.95
-4995.68
-4995.28
-4994.77
-4994.18
-4993.52
-4992.82
-4992.11
-4991.39
-4990.76
-4990.15
-4989.91
-4989.73
-4936.11
-4935.72
-4935.98
-4936.41
-4937.52
-4939.08
-4941.11
-4943.52
-4946.29
-4949.34
-4952.62
-4956.07
-4959.62
-4963.2
-4966.77
-4970.26
-4973.64
-4976.86
-4979.88
-4982.68
-4985.22
-4987.5
-4989.51
-4991.23
-4992.67
-4993.83
-4994.73
-4995.37
-4995.77
-4995.96
-4995.94
-4995.75
-4995.4
-4994.91
-4994.31
-4993.6
-4992.81
-4991.95
-4991.04
-4990.08
-4989.16
-4988.13
-4987.62
-4986.94
-4939.28
-4937.82
-4937.63
-4937.54
-4938.37
-4939.72
-4941.61
-4943.93
-4946.62
-4949.63
-4952.88
-4956.31
-4959.85
-4963.43
-4966.99
-4970.48
-4973.86
-4977.08
-4980.1
-4982.88
-4985.42
-4987.69
-4989.68
-4991.38
-4992.8
-4993.93
-4994.79
-4995.4
-4995.77
-4995.91
-4995.84
-4995.6
-4995.19
-4994.63
-4993.95
-4993.14
-4992.24
-4991.23
-4990.14
-4988.92
-4987.69
-4986.12
-4985.19
-4983.43
-4943.31
-4939.95
-4939.18
-4938.52
-4939.06
-4940.22
-4941.98
-4944.22
-4946.86
-4949.83
-4953.06
-4956.48
-4960.01
-4963.59
-4967.15
-4970.65
-4974.02
-4977.24
-4980.26
-4983.04
-4985.58
-4987.84
-4989.81
-4991.5
-4992.9
-4994.01
-4994.86
-4995.44
-4995.77
-4995.88
-4995.78
-4995.5
-4995.04
-4994.43
-4993.68
-4992.81
-4991.81
-4990.69
-4989.44
-4987.99
-4986.45
-4984.29
-4982.8
-4979.13
-4948.11
-4941.91
-4940.48
-4939.26
-4939.57
-4940.57
-4942.24
-4944.42
-4947.02
-4949.96
-4953.18
-4956.59
-4960.12
-4963.69
-4967.26
-4970.76
-4974.14
-4977.35
-4980.37
-4983.16
-4985.69
-4987.94
-4989.91
-4991.59
-4992.98
-4994.08
-4994.9
-4995.47
-4995.78
-4995.87
-4995.75
-4995.43
-4994.94
-4994.3
-4993.51
-4992.58
-4991.52
-4990.31
-4988.95
-4987.31
-4985.52
-4982.79
-4980.67
-4974.12
-4953.34
-4943.47
-4941.39
-4939.75
-4939.89
-4940.78
-4942.4
-4944.53
-4947.11
-4950.04
-4953.24
-4956.65
-4960.18
-4963.76
-4967.32
-4970.82
-4974.2
-4977.42
-4980.44
-4983.22
-4985.75
-4988
-4989.97
-4991.64
-4993.02
-4994.12
-4994.94
-4995.49
-4995.79
-4995.87
-4995.73
-4995.4
-4994.89
-4994.22
-4993.41
-4992.45
-4991.35
-4990.08
-4988.65
-4986.89
-4984.92
-4981.76
-4979.01
-4968.76
-4958.28
-4944.45
-4941.88
-4940
-4940.05
-4940.89
-4942.47
-4944.58
-4947.15
-4950.07
-4953.27
-4956.68
-4960.21
-4963.78
-4967.35
-4970.85
-4974.23
-4977.45
-4980.47
-4983.25
-4985.78
-4988.03
-4990
-4991.67
-4993.05
-4994.14
-4994.95
-4995.5
-4995.8
-4995.87
-4995.72
-4995.38
-4994.87
-4994.19
-4993.36
-4992.39
-4991.26
-4989.97
-4988.5
-4986.69
-4984.61
-4981.21
-4977.98
-4963.75
-4962.23
-4944.88
-4942.05
-4940.09
-4940.1
-4940.92
-4942.49
-4944.6
-4947.16
-4950.08
-4953.28
-4956.69
-4960.21
-4963.79
-4967.36
-4970.86
-4974.24
-4977.46
-4980.48
-4983.26
-4985.79
-4988.04
-4990
-4991.67
-4993.05
-4994.14
-4994.95
-4995.5
-4995.8
-4995.86
-4995.72
-4995.38
-4994.86
-4994.18
-4993.35
-4992.37
-4991.24
-4989.94
-4988.45
-4986.62
-4984.51
-4981.03
-4977.53
-4959.78
)
;

boundaryField
{
    movingWall
    {
        type            zeroGradient;
    }
    fixedWalls
    {
        type            zeroGradient;
    }
    frontAndBack
    {
        type            empty;
    }
    defaultFaces
    {
        type            empty;
    }
}


// ************************************************************************* //
