/*--------------------------------*- C++ -*----------------------------------*\
  =========                 |
  \\      /  F ield         | OpenFOAM: The Open Source CFD Toolbox
   \\    /   O peration     | Website:  https://openfoam.org
    \\  /    A nd           | Version:  7
     \\/     M anipulation  |
\*---------------------------------------------------------------------------*/
FoamFile
{
    version     2.0;
    format      ascii;
    class       volScalarField;
    location    "1.37";
    object      p;
}
// * * * * * * * * * * * * * * * * * * * * * * * * * * * * * * * * * * * * * //

dimensions      [0 2 -2 0 0 0 0];

internalField   nonuniform List<scalar> 
1936
(
-3.71754e-05
-3338.08
-6320.7
-5429.56
-4205.48
-3605.75
-3382.27
-3863.31
-5863.09
-7264.43
-5528.84
-3499.6
-2999.07
-3014.97
-3754.54
-5678.94
-6796.92
-5279.1
-3394.75
-2842.58
-2873.29
-3647.08
-6004.41
-7219.6
-5220.71
-3233.4
-2765.94
-2814.06
-3598.98
-5584.58
-6832.25
-5323.11
-3324.41
-2788.96
-2853.03
-3865.37
-6407.16
-7053.19
-4637.88
-2909.75
-2667.27
-2810.17
-4194.05
-6614.88
-85.4216
-3289.58
-6258.99
-5425.62
-4226.48
-3645.09
-3424.65
-3867.29
-5813.78
-7190.04
-5482.4
-3509.13
-3048.87
-3068.99
-3776.51
-5654.92
-6748.31
-5257.87
-3423.7
-2900.51
-2920.06
-3642.91
-5941.53
-7143
-5181.61
-3246.65
-2817.24
-2869.16
-3622.24
-5563.24
-6781.29
-5296.49
-3353.12
-2849.44
-2898.71
-3853.52
-6338.1
-6980.32
-4609.19
-2936.51
-2725.14
-2860.27
-4196.41
-6569.71
-361.582
-3155.25
-6026.89
-5417.35
-4301.43
-3743.34
-3526.73
-3900.2
-5687.76
-6956.41
-5368.93
-3555.17
-3164.54
-3205.88
-3857.43
-5589.07
-6587.57
-5205.67
-3520.33
-3040.57
-3033.04
-3658.75
-5771.66
-6902.84
-5094.06
-3302.88
-2936.45
-3009.23
-3708.05
-5506.12
-6612.74
-5228.42
-3449.64
-2993.22
-3012.41
-3851.69
-6140.36
-6753.49
-4559.52
-3020.6
-2855.65
-2998.58
-4228.86
-6424.18
-747.721
-3014.51
-5674.31
-5361.93
-4392.79
-3873
-3672.7
-3972.56
-5518.14
-6611.8
-5221.2
-3645.46
-3328.75
-3388.32
-3967.01
-5480.76
-6335.82
-5123.49
-3653.46
-3226.44
-3196.63
-3709.5
-5539.17
-6545.84
-4979.92
-3406.7
-3106.59
-3196.61
-3824.09
-5407.73
-6349.05
-5126.27
-3584.55
-3184.58
-3179.35
-3876.96
-5860.76
-6415.71
-4504.84
-3158.87
-3036.91
-3187.93
-4271.41
-6192.64
-1186.53
-2914.39
-5261.01
-5247.58
-4470.5
-4007.8
-3837.89
-4074.02
-5333.9
-6215.85
-5066.25
-3769.65
-3518.93
-3582.92
-4078.61
-5342.57
-6032.54
-5020.24
-3793.22
-3425.41
-3387.52
-3790.47
-5286.18
-6132.31
-4857.7
-3545.93
-3305.6
-3398.11
-3942.77
-5277.88
-6031.72
-5003.49
-3727.88
-3389.72
-3374.78
-3928.02
-5549.46
-6024.31
-4454.28
-3333.49
-3243.87
-3391.63
-4307.89
-5910.67
-1639.68
-2882.73
-4843.83
-5073.62
-4516.04
-4129.97
-4001.48
-4187.11
-5153.47
-5815.6
-4921.45
-3913.82
-3717.33
-3771.49
-4176.96
-5184.52
-5709.03
-4902.26
-3923.14
-3619.84
-3586.77
-3892.15
-5043.07
-5711.31
-4738.92
-3705.38
-3514.87
-3595.63
-4048.35
-5124.76
-5694.01
-4869.74
-3863.4
-3589.79
-3577.52
-3998.64
-5244.37
-5625.16
-4412.42
-3525.7
-3458.19
-3589.25
-4328.85
-5606.42
-2079.83
-2926.59
-4473.18
-4857.17
-4520.66
-4230.16
-4144.79
-4291.36
-4986.78
-5445.45
-4796.86
-4060.77
-3908.32
-3943.05
-4257.94
-5018.11
-5390.99
-4779.54
-4037.64
-3799.93
-3777.6
-4001.12
-4830.11
-5320.35
-4630.94
-3866.62
-3718.25
-3777.75
-4136.62
-4959.19
-5363.35
-4736.72
-3984.11
-3774.4
-3769.9
-4078.41
-4971.57
-5253.5
-4379.77
-3716.77
-3663.91
-3768.32
-4336.87
-5303.49
-2488.46
-3037.24
-4184.28
-4628.33
-4486.75
-4300.89
-4254.56
-4370.83
-4836.63
-5127.59
-4694.71
-4195.1
-4078.34
-4092.61
-4322.11
-4854.99
-5100.27
-4664.06
-4135.51
-3959.7
-3947.47
-4104.68
-4656.26
-4986.23
-4536.53
-4014.26
-3901.58
-3938.37
-4208.32
-4793.73
-5062.34
-4616.79
-4088.02
-3936.58
-3939.13
-4155.64
-4745.54
-4934.98
-4353.78
-3890.85
-3848.28
-3922.88
-4338.02
-5022.62
-2852.98
-3195.6
-3993.16
-4419.48
-4423.5
-4336.57
-4324.34
-4417.66
-4705.58
-4873.59
-4612.95
-4304.23
-4217.34
-4217.02
-4368.66
-4707.94
-4854.1
-4564.82
-4216.43
-4095.33
-4087.46
-4192.51
-4524.56
-4724.18
-4459.16
-4136.28
-4054.66
-4074.85
-4261.84
-4642.89
-4808.5
-4517.15
-4173.92
-4072.67
-4076.71
-4220.94
-4572.22
-4684.3
-4332.49
-4036.63
-4002.99
-4052.3
-4334.95
-4780.13
-3164.42
-3376.17
-3896.88
-4255.07
-4344.72
-4337.67
-4356.06
-4431.67
-4595.86
-4684.57
-4548.84
-4380.33
-4320.06
-4311.6
-4397.87
-4587.49
-4662.45
-4488.03
-4279.38
-4202.22
-4194.56
-4257.35
-4433.1
-4538.87
-4401.59
-4226.1
-4172.44
-4182.37
-4297.87
-4519.26
-4611.98
-4441.54
-4240.28
-4178.16
-4181.3
-4267.68
-4450.92
-4506.24
-4316.41
-4148.47
-4123.47
-4154.74
-4328.72
-4587.48
-3418.11
-3554.25
-3876.34
-4146.75
-4267.88
-4314
-4357.19
-4419.51
-4508.16
-4553.78
-4498.78
-4422.45
-4386.03
-4373.73
-4411.02
-4498.35
-4527.45
-4434.15
-4323.15
-4277.58
-4269.49
-4299.24
-4376.72
-4423.63
-4364.4
-4284.38
-4254.45
-4257.81
-4318.2
-4429.35
-4474.55
-4388.98
-4286.07
-4251.94
-4253.28
-4296.36
-4375.44
-4395.37
-4306.72
-4225.18
-4210.03
-4228.1
-4320.54
-4449.77
-3616.4
-3709.63
-3903.62
-4092.03
-4208.98
-4280.75
-4338.33
-4390.93
-4440.95
-4468.94
-4459.41
-4436.29
-4418.75
-4405.72
-4412.04
-4439
-4443.02
-4399.42
-4348.39
-4323.73
-4315.69
-4323.03
-4347.45
-4363.3
-4344.62
-4317.3
-4304.2
-4303.23
-4326.98
-4372.05
-4390.06
-4355.57
-4312.57
-4296.76
-4296.67
-4311.44
-4335.46
-4337.79
-4303.38
-4271.85
-4265.2
-4273.42
-4312.46
-4364.05
-3765.9
-3834.06
-3952.82
-4076.81
-4174.79
-4249.84
-4309.61
-4356.02
-4391.31
-4415.6
-4427.74
-4430.61
-4425.73
-4414.14
-4405.26
-4403.25
-4396.72
-4378.57
-4359.01
-4347.18
-4339.53
-4335.14
-4336.19
-4338.84
-4336.72
-4332.72
-4328.98
-4325.52
-4329.17
-4340.82
-4345.91
-4336.53
-4324.34
-4319.5
-4318.07
-4318.24
-4318.97
-4315.16
-4304.7
-4296.67
-4295.07
-4296.48
-4306.42
-4319.66
-3881.09
-3927.95
-4002.97
-4085.36
-4161.46
-4227.51
-4282
-4323.9
-4355.58
-4380.97
-4401.27
-4414.11
-4416.41
-4407.9
-4394.51
-4382.99
-4374.07
-4366.55
-4360.66
-4355.56
-4348.86
-4340.75
-4334.6
-4333.03
-4335.08
-4337.94
-4337.67
-4333.22
-4328.44
-4326.9
-4327.17
-4327.11
-4327.39
-4327.79
-4325.85
-4321.03
-4315.23
-4310.65
-4308.11
-4308.01
-4307.98
-4305.57
-4303.33
-4302.2
-3971.57
-4000.86
-4048.52
-4104.09
-4160.86
-4214.17
-4260.62
-4298.67
-4329.55
-4355.76
-4377.67
-4392.72
-4397.91
-4392.99
-4382.08
-4370.96
-4363.31
-4359.72
-4358.29
-4355.92
-4350.55
-4342.97
-4336.51
-4334.12
-4335.68
-4338.43
-4338.35
-4333.81
-4327.27
-4322.33
-4321.2
-4323.34
-4326.79
-4328.85
-4327.23
-4322.17
-4316.42
-4312.55
-4311.71
-4312.37
-4311.87
-4308.12
-4302.72
-4298.3
-4043.4
-4060.28
-4089.82
-4126.89
-4167.59
-4208.57
-4246.56
-4280.13
-4309.3
-4334.53
-4355.35
-4369.97
-4376.64
-4375.51
-4369.37
-4362.3
-4357.35
-4355.26
-4354.5
-4352.8
-4348.77
-4343.23
-4338.37
-4336.05
-4336.22
-4337.02
-4336.03
-4332.13
-4326.8
-4322.6
-4321.28
-4322.86
-4325.57
-4327.1
-4325.87
-4322.36
-4318.32
-4315.51
-4314.36
-4313.87
-4312.39
-4308.74
-4304.15
-4300.66
-4100.12
-4109.54
-4127.36
-4151.41
-4179.49
-4209.35
-4239.19
-4267.24
-4292.86
-4315.47
-4334.2
-4347.89
-4355.72
-4358.06
-4356.64
-4353.89
-4351.69
-4350.61
-4349.92
-4348.48
-4345.72
-4342.13
-4338.89
-4336.88
-4336.04
-4335.36
-4333.69
-4330.61
-4326.91
-4323.97
-4322.81
-4323.35
-4324.57
-4325.11
-4324.18
-4322.05
-4319.54
-4317.4
-4315.85
-4314.43
-4312.42
-4309.56
-4306.51
-4304.34
-4144.45
-4149.81
-4160.54
-4175.83
-4194.63
-4215.64
-4237.62
-4259.55
-4280.4
-4299.34
-4315.5
-4328.08
-4336.69
-4341.62
-4343.78
-4344.44
-4344.59
-4344.66
-4344.44
-4343.57
-4341.93
-4339.83
-4337.78
-4336.18
-4334.96
-4333.71
-4331.99
-4329.7
-4327.26
-4325.29
-4324.23
-4324
-4324.08
-4323.88
-4323.05
-4321.62
-4319.93
-4318.27
-4316.69
-4315.06
-4313.18
-4311.1
-4309.21
-4307.96
-4178.76
-4181.97
-4188.56
-4198.29
-4210.67
-4225.02
-4240.61
-4256.71
-4272.58
-4287.51
-4300.8
-4311.92
-4320.58
-4326.85
-4331.17
-4334.05
-4335.99
-4337.26
-4337.91
-4337.92
-4337.34
-4336.37
-4335.26
-4334.18
-4333.13
-4331.97
-4330.59
-4329.02
-4327.43
-4326.06
-4325.08
-4324.45
-4323.95
-4323.34
-4322.47
-4321.37
-4320.11
-4318.78
-4317.43
-4316.01
-4314.55
-4313.14
-4311.99
-4311.29
-4205.05
-4207.08
-4211.26
-4217.53
-4225.67
-4235.32
-4246.06
-4257.45
-4269.04
-4280.28
-4290.75
-4300.07
-4308.01
-4314.51
-4319.68
-4323.7
-4326.78
-4329.06
-4330.63
-4331.56
-4331.96
-4331.96
-4331.69
-4331.24
-4330.66
-4329.94
-4329.07
-4328.09
-4327.09
-4326.15
-4325.33
-4324.6
-4323.91
-4323.17
-4322.34
-4321.42
-4320.43
-4319.4
-4318.35
-4317.29
-4316.27
-4315.36
-4314.67
-4314.26
-4224.94
-4226.28
-4229.01
-4233.13
-4238.53
-4245.01
-4252.34
-4260.27
-4268.51
-4276.78
-4284.77
-4292.25
-4299.02
-4305
-4310.16
-4314.5
-4318.1
-4321.01
-4323.29
-4324.99
-4326.21
-4327.01
-4327.49
-4327.71
-4327.71
-4327.53
-4327.2
-4326.74
-4326.2
-4325.63
-4325.04
-4324.44
-4323.83
-4323.17
-4322.48
-4321.74
-4320.98
-4320.22
-4319.46
-4318.73
-4318.07
-4317.5
-4317.08
-4316.84
-4239.68
-4240.58
-4242.42
-4245.19
-4248.84
-4253.25
-4258.3
-4263.85
-4269.72
-4275.75
-4281.76
-4287.6
-4293.14
-4298.28
-4302.96
-4307.14
-4310.81
-4313.98
-4316.65
-4318.87
-4320.66
-4322.09
-4323.18
-4323.99
-4324.55
-4324.9
-4325.06
-4325.07
-4324.96
-4324.74
-4324.44
-4324.08
-4323.67
-4323.21
-4322.72
-4322.2
-4321.66
-4321.14
-4320.63
-4320.15
-4319.73
-4319.38
-4319.14
-4319
-4249.42
-4250.07
-4251.39
-4253.37
-4255.99
-4259.19
-4262.87
-4266.95
-4271.34
-4275.91
-4280.59
-4285.26
-4289.82
-4294.2
-4298.33
-4302.17
-4305.68
-4308.85
-4311.67
-4314.13
-4316.26
-4318.06
-4319.57
-4320.8
-4321.79
-4322.54
-4323.1
-4323.49
-4323.71
-4323.81
-4323.8
-4323.69
-4323.5
-4323.26
-4322.97
-4322.64
-4322.3
-4321.96
-4321.63
-4321.32
-4321.06
-4320.84
-4320.69
-4320.61
-4254.94
-4255.46
-4256.5
-4258.07
-4260.15
-4262.7
-4265.65
-4268.95
-4272.53
-4276.31
-4280.22
-4284.18
-4288.13
-4292.01
-4295.75
-4299.31
-4302.65
-4305.75
-4308.58
-4311.14
-4313.43
-4315.43
-4317.18
-4318.66
-4319.91
-4320.93
-4321.75
-4322.38
-4322.85
-4323.16
-4323.35
-4323.43
-4323.42
-4323.34
-4323.2
-4323.01
-4322.8
-4322.58
-4322.36
-4322.16
-4321.98
-4321.83
-4321.73
-4321.67
-4257.8
-4258.25
-4259.14
-4260.5
-4262.31
-4264.53
-4267.1
-4270
-4273.15
-4276.51
-4280.02
-4283.61
-4287.22
-4290.81
-4294.32
-4297.72
-4300.95
-4304
-4306.83
-4309.43
-4311.8
-4313.91
-4315.79
-4317.42
-4318.83
-4320.01
-4320.99
-4321.77
-4322.39
-4322.84
-4323.16
-4323.36
-4323.46
-4323.48
-4323.43
-4323.33
-4323.2
-4323.05
-4322.89
-4322.74
-4322.61
-4322.5
-4322.42
-4322.38
-4259.13
-4259.55
-4260.36
-4261.62
-4263.28
-4265.33
-4267.72
-4270.41
-4273.36
-4276.51
-4279.81
-4283.21
-4286.65
-4290.1
-4293.5
-4296.81
-4299.99
-4303.02
-4305.86
-4308.5
-4310.92
-4313.11
-4315.07
-4316.8
-4318.3
-4319.58
-4320.66
-4321.54
-4322.24
-4322.78
-4323.18
-4323.45
-4323.61
-4323.69
-4323.69
-4323.64
-4323.54
-4323.43
-4323.31
-4323.18
-4323.07
-4322.98
-4322.91
-4322.88
-4259.58
-4259.98
-4260.76
-4261.96
-4263.56
-4265.54
-4267.84
-4270.44
-4273.29
-4276.35
-4279.56
-4282.88
-4286.26
-4289.65
-4293.01
-4296.3
-4299.48
-4302.51
-4305.38
-4308.05
-4310.51
-4312.76
-4314.77
-4316.56
-4318.13
-4319.47
-4320.61
-4321.54
-4322.3
-4322.88
-4323.32
-4323.63
-4323.82
-4323.92
-4323.95
-4323.91
-4323.84
-4323.74
-4323.62
-4323.51
-4323.4
-4323.32
-4323.26
-4323.23
-4259.54
-4259.93
-4260.7
-4261.89
-4263.47
-4265.42
-4267.7
-4270.27
-4273.1
-4276.13
-4279.32
-4282.63
-4286
-4289.39
-4292.76
-4296.06
-4299.25
-4302.31
-4305.21
-4307.91
-4310.41
-4312.69
-4314.75
-4316.58
-4318.18
-4319.55
-4320.72
-4321.68
-4322.45
-4323.06
-4323.51
-4323.82
-4324.02
-4324.13
-4324.15
-4324.12
-4324.04
-4323.94
-4323.82
-4323.71
-4323.6
-4323.52
-4323.46
-4323.43
-4259.34
-4259.72
-4260.49
-4261.67
-4263.26
-4265.21
-4267.5
-4270.08
-4272.92
-4275.96
-4279.17
-4282.5
-4285.89
-4289.31
-4292.7
-4296.02
-4299.25
-4302.33
-4305.25
-4307.98
-4310.51
-4312.81
-4314.89
-4316.73
-4318.34
-4319.72
-4320.89
-4321.85
-4322.62
-4323.22
-4323.66
-4323.96
-4324.14
-4324.23
-4324.24
-4324.19
-4324.11
-4323.99
-4323.86
-4323.74
-4323.63
-4323.54
-4323.48
-4323.44
-4259.13
-4259.51
-4260.28
-4261.48
-4263.08
-4265.05
-4267.36
-4269.97
-4272.84
-4275.92
-4279.17
-4282.53
-4285.95
-4289.4
-4292.82
-4296.17
-4299.42
-4302.53
-4305.46
-4308.21
-4310.74
-4313.05
-4315.12
-4316.95
-4318.55
-4319.91
-4321.06
-4321.99
-4322.74
-4323.3
-4323.71
-4323.98
-4324.13
-4324.19
-4324.17
-4324.09
-4323.98
-4323.84
-4323.7
-4323.56
-4323.44
-4323.35
-4323.28
-4323.25
-4259.03
-4259.42
-4260.19
-4261.4
-4263.02
-4265.02
-4267.37
-4270.02
-4272.92
-4276.04
-4279.33
-4282.72
-4286.18
-4289.65
-4293.1
-4296.47
-4299.73
-4302.85
-4305.79
-4308.53
-4311.05
-4313.34
-4315.39
-4317.2
-4318.77
-4320.09
-4321.2
-4322.08
-4322.77
-4323.29
-4323.64
-4323.86
-4323.96
-4323.96
-4323.9
-4323.78
-4323.64
-4323.47
-4323.31
-4323.15
-4323.02
-4322.92
-4322.85
-4322.82
-4259.12
-4259.51
-4260.28
-4261.51
-4263.16
-4265.19
-4267.57
-4270.25
-4273.19
-4276.33
-4279.64
-4283.06
-4286.54
-4290.03
-4293.49
-4296.87
-4300.14
-4303.25
-4306.18
-4308.91
-4311.41
-4313.68
-4315.69
-4317.46
-4318.98
-4320.25
-4321.3
-4322.12
-4322.75
-4323.19
-4323.47
-4323.61
-4323.64
-4323.58
-4323.45
-4323.28
-4323.08
-4322.87
-4322.68
-4322.5
-4322.36
-4322.25
-4322.18
-4322.15
-4259.45
-4259.83
-4260.61
-4261.86
-4263.52
-4265.57
-4267.97
-4270.66
-4273.61
-4276.76
-4280.08
-4283.5
-4286.99
-4290.49
-4293.95
-4297.33
-4300.59
-4303.69
-4306.61
-4309.31
-4311.79
-4314.02
-4315.99
-4317.71
-4319.17
-4320.39
-4321.37
-4322.12
-4322.67
-4323.03
-4323.23
-4323.29
-4323.23
-4323.09
-4322.87
-4322.62
-4322.34
-4322.07
-4321.82
-4321.61
-4321.45
-4321.33
-4321.27
-4321.25
-4260.04
-4260.43
-4261.21
-4262.45
-4264.11
-4266.15
-4268.52
-4271.2
-4274.13
-4277.27
-4280.58
-4284
-4287.48
-4290.97
-4294.42
-4297.79
-4301.04
-4304.13
-4307.03
-4309.71
-4312.16
-4314.35
-4316.28
-4317.95
-4319.36
-4320.52
-4321.43
-4322.11
-4322.58
-4322.86
-4322.96
-4322.93
-4322.78
-4322.53
-4322.21
-4321.85
-4321.48
-4321.12
-4320.78
-4320.5
-4320.29
-4320.15
-4320.1
-4320.09
-4260.95
-4261.33
-4262.09
-4263.28
-4264.89
-4266.87
-4269.19
-4271.82
-4274.7
-4277.81
-4281.09
-4284.49
-4287.96
-4291.44
-4294.88
-4298.24
-4301.48
-4304.55
-4307.43
-4310.09
-4312.51
-4314.67
-4316.56
-4318.19
-4319.54
-4320.64
-4321.48
-4322.09
-4322.49
-4322.68
-4322.7
-4322.57
-4322.32
-4321.96
-4321.53
-4321.06
-4320.56
-4320.07
-4319.62
-4319.22
-4318.92
-4318.71
-4318.64
-4318.66
-4262.24
-4262.57
-4263.26
-4264.31
-4265.81
-4267.68
-4269.9
-4272.45
-4275.27
-4278.33
-4281.58
-4284.95
-4288.4
-4291.86
-4295.3
-4298.65
-4301.87
-4304.93
-4307.8
-4310.44
-4312.83
-4314.96
-4316.82
-4318.4
-4319.71
-4320.76
-4321.55
-4322.09
-4322.41
-4322.53
-4322.47
-4322.25
-4321.9
-4321.44
-4320.89
-4320.29
-4319.66
-4319.02
-4318.4
-4317.83
-4317.37
-4317.01
-4316.89
-4316.88
-4264.03
-4264.15
-4264.68
-4265.48
-4266.79
-4268.49
-4270.59
-4273.04
-4275.79
-4278.79
-4282
-4285.35
-4288.78
-4292.23
-4295.65
-4299
-4302.21
-4305.27
-4308.12
-4310.74
-4313.12
-4315.22
-4317.05
-4318.6
-4319.88
-4320.87
-4321.61
-4322.1
-4322.36
-4322.42
-4322.28
-4321.98
-4321.54
-4320.98
-4320.32
-4319.6
-4318.82
-4318.02
-4317.21
-4316.43
-4315.74
-4315.1
-4314.84
-4314.67
-4266.44
-4266.05
-4266.29
-4266.69
-4267.75
-4269.25
-4271.21
-4273.55
-4276.22
-4279.17
-4282.34
-4285.67
-4289.08
-4292.53
-4295.95
-4299.28
-4302.5
-4305.54
-4308.39
-4311
-4313.36
-4315.45
-4317.26
-4318.78
-4320.02
-4320.98
-4321.68
-4322.13
-4322.34
-4322.33
-4322.13
-4321.76
-4321.25
-4320.6
-4319.85
-4319.01
-4318.1
-4317.13
-4316.13
-4315.09
-4314.12
-4313.06
-4312.54
-4311.87
-4269.62
-4268.15
-4267.95
-4267.83
-4268.61
-4269.9
-4271.72
-4273.96
-4276.56
-4279.47
-4282.61
-4285.91
-4289.32
-4292.76
-4296.17
-4299.51
-4302.72
-4305.77
-4308.61
-4311.21
-4313.56
-4315.64
-4317.43
-4318.93
-4320.15
-4321.08
-4321.75
-4322.16
-4322.33
-4322.28
-4322.03
-4321.61
-4321.03
-4320.31
-4319.48
-4318.54
-4317.51
-4316.4
-4315.22
-4313.92
-4312.63
-4311.04
-4310.1
-4308.36
-4273.65
-4270.3
-4269.51
-4268.81
-4269.32
-4270.41
-4272.11
-4274.26
-4276.81
-4279.68
-4282.79
-4286.09
-4289.49
-4292.93
-4296.34
-4299.68
-4302.89
-4305.93
-4308.77
-4311.38
-4313.72
-4315.79
-4317.57
-4319.05
-4320.25
-4321.17
-4321.81
-4322.19
-4322.33
-4322.25
-4321.96
-4321.5
-4320.87
-4320.1
-4319.21
-4318.19
-4317.08
-4315.84
-4314.5
-4312.98
-4311.38
-4309.19
-4307.7
-4304.05
-4278.46
-4272.26
-4270.81
-4269.56
-4269.83
-4270.77
-4272.37
-4274.46
-4276.97
-4279.81
-4282.92
-4286.2
-4289.6
-4293.04
-4296.45
-4299.79
-4303.01
-4306.05
-4308.89
-4311.49
-4313.83
-4315.89
-4317.66
-4319.14
-4320.33
-4321.23
-4321.86
-4322.22
-4322.34
-4322.24
-4321.93
-4321.43
-4320.77
-4319.97
-4319.03
-4317.96
-4316.78
-4315.46
-4314
-4312.29
-4310.44
-4307.69
-4305.57
-4299.03
-4283.69
-4273.82
-4271.73
-4270.06
-4270.15
-4270.98
-4272.53
-4274.58
-4277.06
-4279.89
-4282.99
-4286.27
-4289.66
-4293.1
-4296.52
-4299.86
-4303.07
-4306.12
-4308.96
-4311.56
-4313.9
-4315.96
-4317.72
-4319.2
-4320.38
-4321.27
-4321.89
-4322.24
-4322.35
-4322.23
-4321.91
-4321.39
-4320.72
-4319.89
-4318.92
-4317.82
-4316.6
-4315.22
-4313.7
-4311.86
-4309.83
-4306.65
-4303.9
-4293.67
-4288.63
-4274.8
-4272.22
-4270.31
-4270.31
-4271.09
-4272.6
-4274.64
-4277.11
-4279.93
-4283.02
-4286.3
-4289.69
-4293.13
-4296.55
-4299.89
-4303.11
-4306.15
-4308.99
-4311.59
-4313.93
-4315.99
-4317.75
-4319.22
-4320.4
-4321.29
-4321.9
-4322.25
-4322.35
-4322.23
-4321.9
-4321.38
-4320.69
-4319.85
-4318.87
-4317.76
-4316.52
-4315.12
-4313.55
-4311.66
-4309.53
-4306.1
-4302.87
-4288.66
-4292.58
-4275.23
-4272.39
-4270.4
-4270.36
-4271.12
-4272.63
-4274.65
-4277.12
-4279.94
-4283.03
-4286.31
-4289.7
-4293.14
-4296.56
-4299.9
-4303.11
-4306.16
-4309
-4311.6
-4313.94
-4315.99
-4317.76
-4319.23
-4320.41
-4321.29
-4321.91
-4322.25
-4322.35
-4322.23
-4321.89
-4321.37
-4320.68
-4319.84
-4318.86
-4317.74
-4316.49
-4315.08
-4313.5
-4311.59
-4309.42
-4305.92
-4302.42
-4284.69
)
;

boundaryField
{
    movingWall
    {
        type            zeroGradient;
    }
    fixedWalls
    {
        type            zeroGradient;
    }
    frontAndBack
    {
        type            empty;
    }
    defaultFaces
    {
        type            empty;
    }
}


// ************************************************************************* //
