/*--------------------------------*- C++ -*----------------------------------*\
  =========                 |
  \\      /  F ield         | OpenFOAM: The Open Source CFD Toolbox
   \\    /   O peration     | Website:  https://openfoam.org
    \\  /    A nd           | Version:  7
     \\/     M anipulation  |
\*---------------------------------------------------------------------------*/
FoamFile
{
    version     2.0;
    format      ascii;
    class       volVectorField;
    location    "9.4";
    object      U;
}
// * * * * * * * * * * * * * * * * * * * * * * * * * * * * * * * * * * * * * //

dimensions      [0 1 -1 0 0 0 0];

internalField   nonuniform List<vector> 
900
(
(9.78704e-05 -9.64903e-05 0)
(0.000110194 -1.07383e-05 0)
(-0.000229036 0.00010021 0)
(-0.00086047 0.000187209 0)
(-0.00170236 0.000242913 0)
(-0.00268239 0.00027367 0)
(-0.00373946 0.000287901 0)
(-0.00482791 0.000291722 0)
(-0.00591283 0.000288193 0)
(-0.00696364 0.000277868 0)
(-0.00794906 0.000259579 0)
(-0.00883382 0.000231216 0)
(-0.00957756 0.000190479 0)
(-0.0101358 0.000135634 0)
(-0.010463 6.62603e-05 0)
(-0.0105174 -1.61193e-05 0)
(-0.0102673 -0.000108196 0)
(-0.00969773 -0.000203406 0)
(-0.00881777 -0.000293205 0)
(-0.00766455 -0.00036777 0)
(-0.00630463 -0.000417311 0)
(-0.00483095 -0.000433775 0)
(-0.00335475 -0.000412503 0)
(-0.00199346 -0.000353502 0)
(-0.000855577 -0.000262081 0)
(-2.69124e-05 -0.00014944 0)
(0.00044166 -3.03074e-05 0)
(0.000547526 8.11815e-05 0)
(0.000363949 0.000144831 0)
(0.00010751 0.000107925 0)
(1.44217e-05 -0.000114147 0)
(-0.000391246 0.000385195 0)
(-0.00156622 0.000948001 0)
(-0.00334351 0.00140607 0)
(-0.00558449 0.00172727 0)
(-0.00814656 0.0019254 0)
(-0.0108973 0.00202649 0)
(-0.0137257 0.00205249 0)
(-0.0165371 0.00201581 0)
(-0.0192445 0.00191942 0)
(-0.0217598 0.00175933 0)
(-0.023989 0.00152784 0)
(-0.0258312 0.0012173 0)
(-0.0271808 0.000823829 0)
(-0.0279356 0.00035076 0)
(-0.0280076 -0.000188856 0)
(-0.0273343 -0.000769444 0)
(-0.0258936 -0.00135335 0)
(-0.0237174 -0.00189342 0)
(-0.0208981 -0.00233737 0)
(-0.0175905 -0.0026347 0)
(-0.014004 -0.00274489 0)
(-0.0103863 -0.00264554 0)
(-0.00699771 -0.00233849 0)
(-0.00408096 -0.00185294 0)
(-0.00182766 -0.00124572 0)
(-0.000343764 -0.00059727 0)
(0.000355733 -9.64247e-06 0)
(0.000403359 0.000377248 0)
(0.000147161 0.000360416 0)
(-0.000108887 0.000233931 0)
(-0.00103272 0.0015794 0)
(-0.00311686 0.00294456 0)
(-0.00600853 0.00405855 0)
(-0.00951627 0.00486195 0)
(-0.0134561 0.00537388 0)
(-0.0176503 0.00563942 0)
(-0.0219432 0.00569985 0)
(-0.0261959 0.00557979 0)
(-0.0302769 0.00528561 0)
(-0.034053 0.00480961 0)
(-0.037384 0.00413713 0)
(-0.0401227 0.00325511 0)
(-0.0421195 0.00216067 0)
(-0.0432326 0.000869141 0)
(-0.0433413 -0.000579977 0)
(-0.042363 -0.0021185 0)
(-0.0402714 -0.00365101 0)
(-0.037113 -0.00506063 0)
(-0.0330161 -0.00621996 0)
(-0.0281927 -0.0070071 0)
(-0.0229303 -0.00732467 0)
(-0.01757 -0.00711868 0)
(-0.0124747 -0.00639354 0)
(-0.00798668 -0.00521978 0)
(-0.00438301 -0.0037337 0)
(-0.00183107 -0.00213158 0)
(-0.000359712 -0.00066749 0)
(0.000173422 0.000365423 0)
(0.000117722 0.0005808 0)
(-0.000227634 0.000945736 0)
(-0.00166755 0.00352723 0)
(-0.00465576 0.00592584 0)
(-0.00862311 0.00784788 0)
(-0.0133111 0.00923438 0)
(-0.0184988 0.0101217 0)
(-0.0239758 0.0105777 0)
(-0.029556 0.0106633 0)
(-0.0350703 0.0104144 0)
(-0.0403557 0.00983937 0)
(-0.0452457 0.00892579 0)
(-0.0495654 0.00765162 0)
(-0.053132 0.00599914 0)
(-0.0557605 0.00396916 0)
(-0.0572756 0.00159417 0)
(-0.0575275 -0.00105175 0)
(-0.0564097 -0.00384915 0)
(-0.0538818 -0.00663091 0)
(-0.0499889 -0.00919457 0)
(-0.0448734 -0.0113198 0)
(-0.0387813 -0.0127947 0)
(-0.0320545 -0.0134476 0)
(-0.0251091 -0.0131794 0)
(-0.0183977 -0.0119909 0)
(-0.0123591 -0.00999792 0)
(-0.00736117 -0.00743213 0)
(-0.00364525 -0.00462916 0)
(-0.00128111 -0.00201166 0)
(-0.000141209 -6.52198e-05 0)
(7.56423e-05 0.000644292 0)
(-0.000331453 0.00199155 0)
(-0.00225422 0.00620408 0)
(-0.00610504 0.0098593 0)
(-0.011093 0.0127157 0)
(-0.0168866 0.0147564 0)
(-0.0232286 0.0160558 0)
(-0.0298818 0.0167133 0)
(-0.0366398 0.0168117 0)
(-0.043315 0.0163975 0)
(-0.0497244 0.0154795 0)
(-0.0556793 0.0140384 0)
(-0.0609796 0.0120429 0)
(-0.0654144 0.00946961 0)
(-0.0687671 0.00632242 0)
(-0.0708282 0.00265159 0)
(-0.071413 -0.00143281 0)
(-0.0703789 -0.00575574 0)
(-0.0676519 -0.0100697 0)
(-0.0632534 -0.0140749 0)
(-0.0573162 -0.0174416 0)
(-0.0500974 -0.0198471 0)
(-0.0419773 -0.0210224 0)
(-0.0334402 -0.0208015 0)
(-0.0250342 -0.0191659 0)
(-0.0173111 -0.0162716 0)
(-0.010755 -0.012454 0)
(-0.00570935 -0.00820804 0)
(-0.00231269 -0.00415242 0)
(-0.000474421 -0.000983705 0)
(4.01832e-05 0.000534224 0)
(-0.000421234 0.00334224 0)
(-0.00278454 0.0095651 0)
(-0.00743783 0.0146983 0)
(-0.0133802 0.0186114 0)
(-0.0202086 0.0213708 0)
(-0.0276305 0.023114 0)
(-0.0353876 0.023985 0)
(-0.0432611 0.0240936 0)
(-0.0510547 0.0234975 0)
(-0.058576 0.0222042 0)
(-0.065624 0.0201842 0)
(-0.0719818 0.0173931 0)
(-0.077415 0.0137968 0)
(-0.0816761 0.00939707 0)
(-0.0845164 0.00425676 0)
(-0.0857059 -0.00148187 0)
(-0.0850459 -0.0075904 0)
(-0.0824032 -0.0137367 0)
(-0.0777483 -0.0195137 0)
(-0.071175 -0.0244642 0)
(-0.0629261 -0.0281275 0)
(-0.053404 -0.0301035 0)
(-0.0431588 -0.030124 0)
(-0.0328481 -0.0281214 0)
(-0.0231683 -0.024276 0)
(-0.014762 -0.0190299 0)
(-0.00811958 -0.0130599 0)
(-0.00348539 -0.00721752 0)
(-0.000827569 -0.00244848 0)
(1.37166e-05 0.000251009 0)
(-0.000499786 0.00496591 0)
(-0.00326025 0.0135519 0)
(-0.00864725 0.0203752 0)
(-0.0154708 0.0254647 0)
(-0.0232624 0.0290084 0)
(-0.0316989 0.0312327 0)
(-0.0405065 0.0323412 0)
(-0.0494618 0.0324777 0)
(-0.0583691 0.0317132 0)
(-0.0670365 0.030052 0)
(-0.0752598 0.0274503 0)
(-0.0828126 0.0238435 0)
(-0.0894412 0.019178 0)
(-0.0948661 0.0134422 0)
(-0.0987922 0.0066981 0)
(-0.100931 -0.000891485 0)
(-0.101006 -0.00903661 0)
(-0.0987946 -0.0173402 0)
(-0.0941851 -0.0252786 0)
(-0.0871965 -0.0322449 0)
(-0.0780253 -0.0376062 0)
(-0.0670727 -0.0407848 0)
(-0.0549472 -0.0413576 0)
(-0.0424312 -0.0391583 0)
(-0.0304033 -0.0343585 0)
(-0.0197226 -0.0275013 0)
(-0.0110902 -0.0194712 0)
(-0.00491072 -0.0114032 0)
(-0.00124291 -0.0045536 0)
(-1.21893e-05 -0.000212045 0)
(-0.000568804 0.00683282 0)
(-0.00368283 0.0181033 0)
(-0.00972942 0.0268159 0)
(-0.0173543 0.0332002 0)
(-0.0260333 0.0375999 0)
(-0.0354191 0.0403551 0)
(-0.0452295 0.0417446 0)
(-0.0552445 0.0419548 0)
(-0.0652774 0.0410729 0)
(-0.0751466 0.0390981 0)
(-0.0846537 0.0359668 0)
(-0.0935701 0.031585 0)
(-0.101627 0.0258665 0)
(-0.108515 0.0187707 0)
(-0.113886 0.0103413 0)
(-0.117363 0.000743953 0)
(-0.118586 -0.00969789 0)
(-0.117228 -0.0205185 0)
(-0.113042 -0.0310748 0)
(-0.105935 -0.0405925 0)
(-0.0960154 -0.0482279 0)
(-0.0836487 -0.0531673 0)
(-0.0694805 -0.0547596 0)
(-0.0544212 -0.0526644 0)
(-0.0395684 -0.0469853 0)
(-0.0260656 -0.0383434 0)
(-0.0149106 -0.0278558 0)
(-0.00674647 -0.0170101 0)
(-0.00177274 -0.00746348 0)
(-4.15445e-05 -0.000893647 0)
(-0.000628415 0.00891387 0)
(-0.00404999 0.0231554 0)
(-0.0106755 0.0339412 0)
(-0.0190131 0.0417369 0)
(-0.0284944 0.0470722 0)
(-0.0387557 0.0504235 0)
(-0.0495136 0.0521605 0)
(-0.0605591 0.0525216 0)
(-0.0717234 0.0516134 0)
(-0.0828434 0.0494287 0)
(-0.0937359 0.0458773 0)
(-0.104177 0.0408247 0)
(-0.113889 0.0341353 0)
(-0.122532 0.0257191 0)
(-0.129701 0.0155789 0)
(-0.134939 0.003857 0)
(-0.137772 -0.00912731 0)
(-0.137735 -0.0228396 0)
(-0.134428 -0.0365238 0)
(-0.127601 -0.0492258 0)
(-0.117227 -0.0598537 0)
(-0.10358 -0.067292 0)
(-0.0872993 -0.0705689 0)
(-0.0694016 -0.0690634 0)
(-0.0512227 -0.0627129 0)
(-0.0342595 -0.0521606 0)
(-0.0199146 -0.0387698 0)
(-0.00918269 -0.0244647 0)
(-0.00248966 -0.0114318 0)
(-8.67109e-05 -0.00187231 0)
(-0.00067752 0.0111777 0)
(-0.00435555 0.0286384 0)
(-0.0114698 0.0416627 0)
(-0.0204192 0.0509827 0)
(-0.0306024 0.0573393 0)
(-0.0416472 0.0613662 0)
(-0.0532758 0.0635389 0)
(-0.0652968 0.0641573 0)
(-0.0775664 0.0633513 0)
(-0.0899482 0.0611062 0)
(-0.102282 0.0572985 0)
(-0.114357 0.0517399 0)
(-0.125893 0.0442271 0)
(-0.136525 0.0345956 0)
(-0.145796 0.0227772 0)
(-0.153168 0.00885899 0)
(-0.158049 -0.0068601 0)
(-0.159823 -0.0238157 0)
(-0.157916 -0.0411535 0)
(-0.151886 -0.0577368 0)
(-0.141514 -0.072197 0)
(-0.126917 -0.083054 0)
(-0.108649 -0.0889117 0)
(-0.0877723 -0.0887282 0)
(-0.0658423 -0.0821253 0)
(-0.0447593 -0.0696559 0)
(-0.0264536 -0.0529065 0)
(-0.0124279 -0.0343292 0)
(-0.00347115 -0.0168092 0)
(-0.00015847 -0.00325846 0)
(-0.000714241 0.0135887 0)
(-0.00459043 0.034473 0)
(-0.0120907 0.0498792 0)
(-0.0215344 0.0608288 0)
(-0.0322981 0.0682948 0)
(-0.0440072 0.0730858 0)
(-0.0563943 0.0757976 0)
(-0.0692905 0.0768007 0)
(-0.0825818 0.0762535 0)
(-0.0961645 0.0741328 0)
(-0.109908 0.0702751 0)
(-0.123623 0.0644261 0)
(-0.137034 0.0562957 0)
(-0.149763 0.0456202 0)
(-0.161313 0.0322302 0)
(-0.171073 0.0161238 0)
(-0.178347 -0.00245599 0)
(-0.182377 -0.022939 0)
(-0.18241 -0.0444117 0)
(-0.177793 -0.0655714 0)
(-0.168068 -0.0847673 0)
(-0.153112 -0.100111 0)
(-0.133287 -0.109683 0)
(-0.109587 -0.111856 0)
(-0.0837034 -0.105728 0)
(-0.0579397 -0.0915622 0)
(-0.0348687 -0.0710702 0)
(-0.0167025 -0.0473012 0)
(-0.00480172 -0.0240533 0)
(-0.000268378 -0.00520696 0)
(-0.000736411 0.0161052 0)
(-0.00474454 0.0405688 0)
(-0.0125143 0.0584738 0)
(-0.0223162 0.0711456 0)
(-0.0335134 0.0798044 0)
(-0.0457324 0.0854483 0)
(-0.0587185 0.0888059 0)
(-0.0723268 0.0903282 0)
(-0.0864749 0.0902072 0)
(-0.101094 0.0884115 0)
(-0.116088 0.0847329 0)
(-0.131296 0.0788399 0)
(-0.146458 0.0703396 0)
(-0.161196 0.0588472 0)
(-0.174995 0.0440665 0)
(-0.1872 0.0258778 0)
(-0.197028 0.00443246 0)
(-0.203621 -0.0197478 0)
(-0.206083 -0.0457131 0)
(-0.203542 -0.0720441 0)
(-0.195274 -0.0968399 0)
(-0.180841 -0.117801 0)
(-0.160288 -0.132415 0)
(-0.134364 -0.138311 0)
(-0.104729 -0.133794 0)
(-0.0739984 -0.118526 0)
(-0.0454485 -0.0941137 0)
(-0.0222291 -0.0641978 0)
(-0.00657474 -0.0337326 0)
(-0.000430393 -0.00791967 0)
(-0.000742123 0.0186803 0)
(-0.0048092 0.0468242 0)
(-0.0127198 0.0673134 0)
(-0.0227252 0.0817805 0)
(-0.0341815 0.0917011 0)
(-0.0467165 0.0982742 0)
(-0.0600869 0.102372 0)
(-0.074169 0.104535 0)
(-0.0889101 0.104995 0)
(-0.104276 0.103715 0)
(-0.120204 0.100438 0)
(-0.136566 0.0947489 0)
(-0.153132 0.0861415 0)
(-0.169539 0.0740952 0)
(-0.185283 0.0581692 0)
(-0.199704 0.0381044 0)
(-0.211999 0.0139312 0)
(-0.221245 -0.013926 0)
(-0.226453 -0.044521 0)
(-0.226596 -0.0763956 0)
(-0.220684 -0.107474 0)
(-0.207914 -0.135102 0)
(-0.187884 -0.156175 0)
(-0.160894 -0.167451 0)
(-0.128306 -0.166159 0)
(-0.0928207 -0.150927 0)
(-0.0583601 -0.122827 0)
(-0.0292139 -0.0859131 0)
(-0.00889241 -0.046523 0)
(-0.000662276 -0.0116505 0)
(-0.00073038 0.0212627 0)
(-0.00478022 0.0531292 0)
(-0.0126959 0.0762508 0)
(-0.0227362 0.0925586 0)
(-0.0342524 0.103784 0)
(-0.0468705 0.111335 0)
(-0.0603531 0.116236 0)
(-0.0745918 0.119125 0)
(-0.0895569 0.120282 0)
(-0.105243 0.119664 0)
(-0.12162 0.116971 0)
(-0.138596 0.111701 0)
(-0.155978 0.103231 0)
(-0.173443 0.0909029 0)
(-0.190528 0.074124 0)
(-0.206622 0.0524877 0)
(-0.220962 0.0258908 0)
(-0.232634 -0.0053569 0)
(-0.240646 -0.0404441 0)
(-0.243903 -0.0778965 0)
(-0.241193 -0.115596 0)
(-0.231353 -0.150671 0)
(-0.213448 -0.179515 0)
(-0.187119 -0.197992 0)
(-0.153105 -0.20201 0)
(-0.113809 -0.188647 0)
(-0.0735417 -0.15776 0)
(-0.0378078 -0.113336 0)
(-0.0118613 -0.0631925 0)
(-0.000986797 -0.0167103 0)
(-0.000701783 0.0238003 0)
(-0.00466138 0.0593717 0)
(-0.012449 0.0851322 0)
(-0.0223505 0.103289 0)
(-0.0337107 0.115824 0)
(-0.0461464 0.124356 0)
(-0.0594183 0.13007 0)
(-0.0734238 0.133711 0)
(-0.0881468 0.13561 0)
(-0.103603 0.13573 0)
(-0.119791 0.133728 0)
(-0.136655 0.129025 0)
(-0.154048 0.120887 0)
(-0.171709 0.108525 0)
(-0.189252 0.0912072 0)
(-0.206157 0.0683861 0)
(-0.221774 0.03982 0)
(-0.235336 0.00567873 0)
(-0.245897 -0.0333761 0)
(-0.252358 -0.0759914 0)
(-0.253459 -0.120158 0)
(-0.247735 -0.162982 0)
(-0.2337 -0.20056 0)
(-0.210193 -0.227981 0)
(-0.176998 -0.239722 0)
(-0.135726 -0.23081 0)
(-0.0905652 -0.198976 0)
(-0.0480432 -0.147209 0)
(-0.0155815 -0.0845607 0)
(-0.0014325 -0.0234697 0)
(-0.000659256 0.0262461 0)
(-0.00446823 0.0654485 0)
(-0.0120117 0.0938083 0)
(-0.02161 0.113775 0)
(-0.0325943 0.12757 0)
(-0.0445628 0.137024 0)
(-0.0572641 0.14349 0)
(-0.0705918 0.147826 0)
(-0.0845335 0.150424 0)
(-0.0991172 0.151259 0)
(-0.114366 0.149957 0)
(-0.13026 0.145872 0)
(-0.14671 0.138179 0)
(-0.163536 0.125981 0)
(-0.180459 0.108431 0)
(-0.197103 0.0848633 0)
(-0.212993 0.0549097 0)
(-0.227546 0.0185996 0)
(-0.239994 -0.0235448 0)
(-0.2494 -0.0704462 0)
(-0.254539 -0.120348 0)
(-0.253786 -0.170575 0)
(-0.245207 -0.217235 0)
(-0.226808 -0.254938 0)
(-0.197185 -0.27684 0)
(-0.156638 -0.275585 0)
(-0.108506 -0.245772 0)
(-0.0597502 -0.187918 0)
(-0.0201295 -0.111425 0)
(-0.00203462 -0.0323539 0)
(-0.000608807 0.0285649 0)
(-0.00423203 0.0712797 0)
(-0.0114518 0.102151 0)
(-0.0206107 0.123831 0)
(-0.0310129 0.138769 0)
(-0.0422272 0.14901 0)
(-0.0539821 0.156079 0)
(-0.0661593 0.160956 0)
(-0.0787434 0.164104 0)
(-0.0917694 0.165519 0)
(-0.105281 0.164812 0)
(-0.119299 0.161291 0)
(-0.1338 0.154066 0)
(-0.148701 0.142163 0)
(-0.163861 0.124657 0)
(-0.179077 0.100803 0)
(-0.194092 0.0701416 0)
(-0.208562 0.0325878 0)
(-0.22198 -0.0115309 0)
(-0.23367 -0.0614664 0)
(-0.242582 -0.115815 0)
(-0.247117 -0.172375 0)
(-0.245084 -0.227644 0)
(-0.233789 -0.276206 0)
(-0.210581 -0.310292 0)
(-0.174058 -0.320162 0)
(-0.125893 -0.296427 0)
(-0.0724734 -0.235234 0)
(-0.0255391 -0.144447 0)
(-0.00283727 -0.0438313 0)
(-0.000560491 0.030744 0)
(-0.00400447 0.0768284 0)
(-0.0108817 0.110076 0)
(-0.0195155 0.133303 0)
(-0.029163 0.149183 0)
(-0.0393541 0.159982 0)
(-0.0497934 0.167408 0)
(-0.0603497 0.172571 0)
(-0.0710042 0.176011 0)
(-0.0817991 0.177764 0)
(-0.0928019 0.177441 0)
(-0.10408 0.174331 0)
(-0.115685 0.167509 0)
(-0.127648 0.155965 0)
(-0.139979 0.138737 0)
(-0.15267 0.115038 0)
(-0.16569 0.0843594 0)
(-0.178967 0.0465225 0)
(-0.192332 0.00167861 0)
(-0.205381 -0.0497358 0)
(-0.21733 -0.106794 0)
(-0.226836 -0.167962 0)
(-0.2317 -0.230481 0)
(-0.228807 -0.289461 0)
(-0.214432 -0.33686 0)
(-0.18533 -0.361005 0)
(-0.140819 -0.348134 0)
(-0.0854294 -0.288043 0)
(-0.0317894 -0.183996 0)
(-0.00389931 -0.0583965 0)
(-0.000530075 0.0328054 0)
(-0.00386421 0.0821249 0)
(-0.0104705 0.117565 0)
(-0.0185679 0.142088 0)
(-0.0273401 0.158609 0)
(-0.0362735 0.169633 0)
(-0.0450544 0.177066 0)
(-0.0535486 0.182159 0)
(-0.0617431 0.185542 0)
(-0.0696969 0.187299 0)
(-0.0775102 0.187066 0)
(-0.0853069 0.184139 0)
(-0.0932264 0.177594 0)
(-0.101422 0.166423 0)
(-0.110066 0.149665 0)
(-0.119347 0.126535 0)
(-0.12946 0.096501 0)
(-0.140591 0.0593207 0)
(-0.152868 0.0150039 0)
(-0.166208 -0.0362525 0)
(-0.180174 -0.0940752 0)
(-0.193778 -0.157686 0)
(-0.205082 -0.225336 0)
(-0.210926 -0.293196 0)
(-0.206911 -0.353773 0)
(-0.188143 -0.394376 0)
(-0.151215 -0.397198 0)
(-0.0975363 -0.344179 0)
(-0.0388054 -0.229968 0)
(-0.00530816 -0.0765571 0)
(-0.000542616 0.0348242 0)
(-0.00392814 0.0872971 0)
(-0.0104596 0.124696 0)
(-0.0181064 0.150157 0)
(-0.0259469 0.166893 0)
(-0.0334306 0.177691 0)
(-0.0402468 0.184679 0)
(-0.0462824 0.189259 0)
(-0.0515528 0.19216 0)
(-0.0561526 0.193529 0)
(-0.0602304 0.193044 0)
(-0.0639797 0.190035 0)
(-0.0676372 0.183614 0)
(-0.0714848 0.172806 0)
(-0.0758525 0.156689 0)
(-0.0811189 0.134512 0)
(-0.0876878 0.105738 0)
(-0.095962 0.070094 0)
(-0.106309 0.0274841 0)
(-0.11894 -0.022131 0)
(-0.13377 -0.0788294 0)
(-0.150215 -0.142582 0)
(-0.166806 -0.212772 0)
(-0.180729 -0.287031 0)
(-0.187456 -0.359247 0)
(-0.180962 -0.416968 0)
(-0.1552 -0.439492 0)
(-0.107518 -0.400437 0)
(-0.0464695 -0.281603 0)
(-0.00720404 -0.098838 0)
(-0.000640634 0.0369559 0)
(-0.00437298 0.0926107 0)
(-0.0111898 0.13167 0)
(-0.0185838 0.157567 0)
(-0.025498 0.173937 0)
(-0.031374 0.183927 0)
(-0.0359481 0.189916 0)
(-0.0391718 0.193471 0)
(-0.0411252 0.195422 0)
(-0.0419655 0.195987 0)
(-0.0419101 0.1949 0)
(-0.0412348 0.19155 0)
(-0.0402796 0.185107 0)
(-0.0394522 0.174659 0)
(-0.0392237 0.159344 0)
(-0.0401504 0.13848 0)
(-0.0428102 0.111508 0)
(-0.0477653 0.0781549 0)
(-0.0555755 0.0382506 0)
(-0.0666722 -0.00846654 0)
(-0.0812441 -0.0623887 0)
(-0.0991147 -0.124133 0)
(-0.119391 -0.194152 0)
(-0.139922 -0.271714 0)
(-0.156639 -0.352751 0)
(-0.16315 -0.42643 0)
(-0.151313 -0.471033 0)
(-0.114029 -0.452798 0)
(-0.0546135 -0.337325 0)
(-0.00980807 -0.125809 0)
(-0.000902426 0.039484 0)
(-0.00547691 0.098522 0)
(-0.0131438 0.138837 0)
(-0.0205902 0.164459 0)
(-0.0266154 0.179683 0)
(-0.0307229 0.188131 0)
(-0.0327738 0.192474 0)
(-0.0328501 0.194446 0)
(-0.0311448 0.194972 0)
(-0.0279109 0.194333 0)
(-0.0234541 0.192329 0)
(-0.0181419 0.188416 0)
(-0.0124169 0.181847 0)
(-0.00680172 0.171793 0)
(-0.0018638 0.15746 0)
(0.00166432 0.138189 0)
(0.00306848 0.113492 0)
(0.00172038 0.0830482 0)
(-0.00311685 0.0465981 0)
(-0.0120044 0.00378045 0)
(-0.0253063 -0.0460552 0)
(-0.043209 -0.103992 0)
(-0.0653946 -0.171333 0)
(-0.0905638 -0.248885 0)
(-0.115622 -0.334967 0)
(-0.134686 -0.421613 0)
(-0.138475 -0.488445 0)
(-0.115691 -0.496779 0)
(-0.0629359 -0.394626 0)
(-0.013429 -0.158121 0)
(-0.00148191 0.0429095 0)
(-0.0076975 0.105749 0)
(-0.0170095 0.146702 0)
(-0.02487 0.171023 0)
(-0.0299908 0.184059 0)
(-0.0320814 0.190065 0)
(-0.0312509 0.192038 0)
(-0.0278007 0.191855 0)
(-0.0220934 0.190507 0)
(-0.0145103 0.188321 0)
(-0.00545958 0.185149 0)
(0.00460074 0.18052 0)
(0.0151404 0.173772 0)
(0.0255464 0.164165 0)
(0.0351324 0.150983 0)
(0.0431195 0.133578 0)
(0.0487125 0.111536 0)
(0.0511505 0.0844752 0)
(0.0496799 0.052051 0)
(0.0436533 0.013843 0)
(0.0325283 -0.0309773 0)
(0.015881 -0.0837492 0)
(-0.00648488 -0.146329 0)
(-0.0341664 -0.220686 0)
(-0.0653797 -0.30749 0)
(-0.0956009 -0.402499 0)
(-0.115665 -0.489178 0)
(-0.110941 -0.527754 0)
(-0.0707696 -0.449958 0)
(-0.0183866 -0.196462 0)
(-0.00269079 0.0481196 0)
(-0.0118063 0.115353 0)
(-0.0237463 0.155886 0)
(-0.0322752 0.177391 0)
(-0.0362275 0.186861 0)
(-0.0357847 0.189357 0)
(-0.0314856 0.188185 0)
(-0.0239583 0.185304 0)
(-0.0137929 0.181709 0)
(-0.00152371 0.177726 0)
(0.0123354 0.173234 0)
(0.0272485 0.167817 0)
(0.0426238 0.160891 0)
(0.0577948 0.151798 0)
(0.0720202 0.139895 0)
(0.0844949 0.124604 0)
(0.0943902 0.105474 0)
(0.100894 0.082112 0)
(0.103231 0.0541241 0)
(0.100692 0.0209842 0)
(0.0926141 -0.0181946 0)
(0.0783675 -0.064831 0)
(0.0573509 -0.121009 0)
(0.0291493 -0.189371 0)
(-0.00589668 -0.272455 0)
(-0.0452836 -0.369973 0)
(-0.0814053 -0.47147 0)
(-0.0976485 -0.54102 0)
(-0.0766459 -0.498467 0)
(-0.0247453 -0.241255 0)
(-0.00515545 0.0567183 0)
(-0.0190869 0.128799 0)
(-0.0345504 0.166932 0)
(-0.0434469 0.183368 0)
(-0.0452721 0.18749 0)
(-0.0411268 0.185262 0)
(-0.0322243 0.180189 0)
(-0.0196363 0.174169 0)
(-0.0042261 0.16809 0)
(0.0133118 0.162206 0)
(0.0323735 0.156375 0)
(0.0523773 0.150207 0)
(0.0727134 0.143177 0)
(0.0927139 0.134699 0)
(0.111645 0.124196 0)
(0.128719 0.111137 0)
(0.143118 0.0950674 0)
(0.154026 0.0755735 0)
(0.160651 0.0522208 0)
(0.162226 0.024437 0)
(0.157966 -0.00865814 0)
(0.147054 -0.0484383 0)
(0.128536 -0.096918 0)
(0.101334 -0.156933 0)
(0.0645226 -0.232116 0)
(0.0182282 -0.325641 0)
(-0.0330751 -0.434338 0)
(-0.0724684 -0.531603 0)
(-0.0777167 -0.533487 0)
(-0.0317959 -0.292115 0)
(-0.0100796 0.0716943 0)
(-0.0315114 0.147839 0)
(-0.050293 0.179759 0)
(-0.0575151 0.187793 0)
(-0.0545447 0.184369 0)
(-0.0440778 0.176181 0)
(-0.0282876 0.166619 0)
(-0.00878158 0.157268 0)
(0.0133008 0.148737 0)
(0.0371426 0.1411 0)
(0.0621077 0.134126 0)
(0.0876356 0.127411 0)
(0.113168 0.120464 0)
(0.138106 0.112756 0)
(0.161792 0.103766 0)
(0.18351 0.0930102 0)
(0.2025 0.0800511 0)
(0.217977 0.0644755 0)
(0.22914 0.045843 0)
(0.23516 0.0235992 0)
(0.235102 -0.00305948 0)
(0.227965 -0.0353489 0)
(0.212478 -0.075035 0)
(0.18703 -0.124735 0)
(0.149726 -0.188345 0)
(0.0987228 -0.271403 0)
(0.0340916 -0.377952 0)
(-0.029669 -0.494448 0)
(-0.069235 -0.546355 0)
(-0.0374434 -0.34757 0)
(-0.0195113 0.0982811 0)
(-0.051252 0.173188 0)
(-0.0686429 0.191995 0)
(-0.0674304 0.187021 0)
(-0.0532706 0.173729 0)
(-0.0311935 0.158777 0)
(-0.00444974 0.144752 0)
(0.0249295 0.132502 0)
(0.0557044 0.122117 0)
(0.0871152 0.113354 0)
(0.118656 0.105824 0)
(0.149924 0.0990716 0)
(0.180532 0.0926143 0)
(0.210047 0.0859735 0)
(0.237969 0.0786915 0)
(0.263718 0.0703441 0)
(0.286642 0.0605414 0)
(0.306021 0.0489099 0)
(0.321073 0.0350516 0)
(0.330926 0.0184866 0)
(0.334501 -0.00144438 0)
(0.330637 -0.025624 0)
(0.317768 -0.0554926 0)
(0.293889 -0.0932094 0)
(0.256371 -0.142223 0)
(0.201954 -0.208824 0)
(0.127402 -0.302757 0)
(0.0406182 -0.42648 0)
(-0.0435778 -0.527745 0)
(-0.0370685 -0.403132 0)
(-0.0350102 0.142527 0)
(-0.0747198 0.1978 0)
(-0.0709116 0.192674 0)
(-0.0447818 0.170386 0)
(-0.00781131 0.146812 0)
(0.0334316 0.126425 0)
(0.0756094 0.10985 0)
(0.117144 0.0966509 0)
(0.157354 0.0861808 0)
(0.196007 0.0778155 0)
(0.233053 0.0709945 0)
(0.268476 0.0652167 0)
(0.302217 0.0600306 0)
(0.334125 0.0550283 0)
(0.36394 0.0498421 0)
(0.391279 0.0441425 0)
(0.415646 0.0376322 0)
(0.436428 0.0300318 0)
(0.452903 0.0210522 0)
(0.464206 0.0103483 0)
(0.469294 -0.00257016 0)
(0.4669 -0.0181893 0)
(0.455204 -0.0374741 0)
(0.432038 -0.0619642 0)
(0.394284 -0.0942149 0)
(0.33809 -0.139652 0)
(0.257037 -0.209846 0)
(0.152862 -0.324303 0)
(0.0153576 -0.465577 0)
(-0.0171412 -0.441635 0)
(-0.0378186 0.235365 0)
(-0.0489241 0.202393 0)
(0.0254673 0.151883 0)
(0.097095 0.116517 0)
(0.164321 0.0905502 0)
(0.225283 0.0716864 0)
(0.279666 0.0582142 0)
(0.328133 0.0485273 0)
(0.371616 0.0414231 0)
(0.410988 0.0360927 0)
(0.446963 0.0319787 0)
(0.480068 0.028669 0)
(0.510644 0.02584 0)
(0.538854 0.0232288 0)
(0.564688 0.0206163 0)
(0.587974 0.017817 0)
(0.608398 0.0146715 0)
(0.625501 0.0110357 0)
(0.638702 0.00677723 0)
(0.647182 0.00173822 0)
(0.650167 -0.00419226 0)
(0.646513 -0.0114315 0)
(0.634497 -0.0203843 0)
(0.612152 -0.0317706 0)
(0.576158 -0.0469153 0)
(0.522882 -0.0692661 0)
(0.442452 -0.107145 0)
(0.333297 -0.18771 0)
(0.143225 -0.335634 0)
(0.0605804 -0.412647 0)
(0.231204 0.15858 0)
(0.290864 0.116764 0)
(0.439584 0.0755576 0)
(0.537756 0.0502886 0)
(0.604397 0.0340978 0)
(0.653908 0.0235185 0)
(0.692446 0.0167053 0)
(0.723309 0.0123321 0)
(0.74876 0.00948165 0)
(0.770356 0.00757671 0)
(0.789124 0.00626106 0)
(0.805721 0.00530673 0)
(0.820551 0.00456057 0)
(0.833827 0.00391538 0)
(0.845613 0.00329338 0)
(0.855849 0.00263594 0)
(0.864375 0.00189821 0)
(0.870944 0.00104058 0)
(0.875239 3.95801e-05 0)
(0.876877 -0.00115181 0)
(0.875336 -0.0024334 0)
(0.869906 -0.00403937 0)
(0.859799 -0.0060531 0)
(0.844041 -0.00861559 0)
(0.820257 -0.012002 0)
(0.786712 -0.0172749 0)
(0.731672 -0.0266383 0)
(0.655216 -0.0486708 0)
(0.453876 -0.109844 0)
(0.313129 -0.177396 0)
)
;

boundaryField
{
    movingWall
    {
        type            fixedValue;
        value           uniform (1 0 0);
    }
    fixedWalls
    {
        type            noSlip;
    }
    frontAndBack
    {
        type            empty;
    }
}


// ************************************************************************* //
