/*--------------------------------*- C++ -*----------------------------------*\
  =========                 |
  \\      /  F ield         | OpenFOAM: The Open Source CFD Toolbox
   \\    /   O peration     | Website:  https://openfoam.org
    \\  /    A nd           | Version:  7
     \\/     M anipulation  |
\*---------------------------------------------------------------------------*/
FoamFile
{
    version     2.0;
    format      ascii;
    class       volVectorField;
    location    "6.4";
    object      U;
}
// * * * * * * * * * * * * * * * * * * * * * * * * * * * * * * * * * * * * * //

dimensions      [0 1 -1 0 0 0 0];

internalField   nonuniform List<vector> 
900
(
(7.42643e-05 -7.33682e-05 0)
(5.36785e-05 5.70453e-06 0)
(-0.000271282 0.000101373 0)
(-0.000833021 0.000172582 0)
(-0.00156484 0.000216958 0)
(-0.00240441 0.000240406 0)
(-0.00330004 0.00024971 0)
(-0.00421307 0.000249861 0)
(-0.00511431 0.000243637 0)
(-0.00597963 0.000232052 0)
(-0.00678636 0.000214896 0)
(-0.00751079 0.000191221 0)
(-0.00812691 0.000159789 0)
(-0.00860633 0.000119515 0)
(-0.00891954 6.9938e-05 0)
(-0.00903838 1.15125e-05 0)
(-0.00893877 -5.47401e-05 0)
(-0.00860513 -0.000125064 0)
(-0.00803532 -0.00019479 0)
(-0.00724365 -0.000258074 0)
(-0.00626354 -0.000308382 0)
(-0.00514785 -0.000339399 0)
(-0.00396635 -0.000346035 0)
(-0.00280038 -0.000325329 0)
(-0.00173526 -0.000277031 0)
(-0.000850725 -0.000203747 0)
(-0.000207675 -0.000111895 0)
(0.00014627 -1.65823e-05 0)
(0.000213588 6.91831e-05 0)
(9.10816e-05 9.03558e-05 0)
(-3.52304e-06 -5.59684e-05 0)
(-0.00038869 0.000384866 0)
(-0.00142458 0.000855979 0)
(-0.00294726 0.00122758 0)
(-0.00483837 0.00148185 0)
(-0.00697802 0.0016325 0)
(-0.0092552 0.00170126 0)
(-0.0115775 0.00170702 0)
(-0.0138685 0.00166206 0)
(-0.0160612 0.0015721 0)
(-0.0180929 0.00143771 0)
(-0.0199 0.00125624 0)
(-0.0214167 0.0010239 0)
(-0.0225748 0.000737996 0)
(-0.0233065 0.000399036 0)
(-0.0235511 1.26421e-05 0)
(-0.0232587 -0.000408732 0)
(-0.0224006 -0.000845142 0)
(-0.0209802 -0.00126946 0)
(-0.0190372 -0.00164901 0)
(-0.0166526 -0.00194875 0)
(-0.0139489 -0.00213574 0)
(-0.0110844 -0.00218417 0)
(-0.00824077 -0.00208013 0)
(-0.00560667 -0.00182514 0)
(-0.00335689 -0.00143799 0)
(-0.00162922 -0.000957309 0)
(-0.000504761 -0.0004496 0)
(2.31192e-05 -2.31287e-07 0)
(7.28299e-05 0.000211326 0)
(-0.000106811 0.0002746 0)
(-0.000909144 0.00143294 0)
(-0.00266707 0.00255855 0)
(-0.00507196 0.00345581 0)
(-0.00796156 0.00408819 0)
(-0.0111823 0.0044756 0)
(-0.0145863 0.00465684 0)
(-0.0180453 0.00466898 0)
(-0.0214488 0.00453823 0)
(-0.0246975 0.00427819 0)
(-0.0276969 0.00389187 0)
(-0.030353 0.00337545 0)
(-0.0325695 0.00272314 0)
(-0.0342491 0.00193221 0)
(-0.0352976 0.00100808 0)
(-0.0356305 -3.10952e-05 0)
(-0.0351821 -0.00115041 0)
(-0.033917 -0.00229822 0)
(-0.0318422 -0.00340583 0)
(-0.0290156 -0.00439209 0)
(-0.0255513 -0.00517115 0)
(-0.0216203 -0.00566306 0)
(-0.0174419 -0.00580586 0)
(-0.0132684 -0.00556725 0)
(-0.00936123 -0.00495365 0)
(-0.00596295 -0.00401551 0)
(-0.00326589 -0.00285074 0)
(-0.00137958 -0.00160909 0)
(-0.000307557 -0.000495713 0)
(1.57038e-05 0.000174793 0)
(-0.000197495 0.000886488 0)
(-0.00139161 0.00306292 0)
(-0.00383369 0.00502005 0)
(-0.00705064 0.00655734 0)
(-0.0108287 0.00764198 0)
(-0.014985 0.00830889 0)
(-0.0193453 0.00861699 0)
(-0.0237571 0.00862255 0)
(-0.0280867 0.00836625 0)
(-0.0322123 0.00787001 0)
(-0.0360168 0.00713958 0)
(-0.039383 0.00617047 0)
(-0.0421923 0.00495559 0)
(-0.0443246 0.00349371 0)
(-0.0456642 0.00179801 0)
(-0.0461075 -9.64543e-05 0)
(-0.0455729 -0.00212813 0)
(-0.0440146 -0.00420398 0)
(-0.0414376 -0.00620361 0)
(-0.0379077 -0.00798563 0)
(-0.0335598 -0.00940058 0)
(-0.0285992 -0.010309 0)
(-0.0232936 -0.0106024 0)
(-0.0179539 -0.0102242 0)
(-0.0129061 -0.00918573 0)
(-0.0084555 -0.00757632 0)
(-0.00484747 -0.00556594 0)
(-0.00222583 -0.00340435 0)
(-0.000618706 -0.00141882 0)
(-3.28195e-05 -4.66804e-05 0)
(-0.000271509 0.00174586 0)
(-0.00181403 0.00523054 0)
(-0.00488118 0.008183 0)
(-0.00883785 0.0104518 0)
(-0.0134155 0.0120378 0)
(-0.0184022 0.0130062 0)
(-0.0236015 0.0134423 0)
(-0.028844 0.013424 0)
(-0.0339815 0.0130072 0)
(-0.0388774 0.0122218 0)
(-0.0433997 0.0110761 0)
(-0.0474155 0.00956413 0)
(-0.0507886 0.00767723 0)
(-0.0533803 0.00541543 0)
(-0.0550547 0.00279967 0)
(-0.0556878 -0.000117001 0)
(-0.0551765 -0.0032405 0)
(-0.0534558 -0.00643456 0)
(-0.0505171 -0.00951928 0)
(-0.0464209 -0.0122823 0)
(-0.0413099 -0.0144974 0)
(-0.0354134 -0.0159512 0)
(-0.0290417 -0.0164748 0)
(-0.0225655 -0.015977 0)
(-0.016382 -0.0144704 0)
(-0.0108707 -0.0120869 0)
(-0.00634327 -0.0090792 0)
(-0.00299099 -0.00581106 0)
(-0.000874255 -0.00273958 0)
(-6.26903e-05 -0.000419656 0)
(-0.000331687 0.00281865 0)
(-0.00217877 0.00788246 0)
(-0.00580712 0.0119895 0)
(-0.0104335 0.0150764 0)
(-0.015736 0.0172066 0)
(-0.0214739 0.0184924 0)
(-0.0274318 0.0190555 0)
(-0.0334284 0.0189998 0)
(-0.0393071 0.0183977 0)
(-0.0449241 0.0172874 0)
(-0.0501392 0.0156783 0)
(-0.0548095 0.0135617 0)
(-0.0587859 0.0109248 0)
(-0.0619131 0.00776623 0)
(-0.0640337 0.00411214 0)
(-0.0649957 3.12801e-05 0)
(-0.0646675 -0.00435157 0)
(-0.0629525 -0.00885407 0)
(-0.0598097 -0.013231 0)
(-0.0552762 -0.0171885 0)
(-0.0494861 -0.0204073 0)
(-0.042682 -0.0225796 0)
(-0.0352145 -0.0234548 0)
(-0.027522 -0.0228884 0)
(-0.0200916 -0.0208836 0)
(-0.0134022 -0.0176159 0)
(-0.0078585 -0.0134334 0)
(-0.00372013 -0.00883443 0)
(-0.00108663 -0.00442758 0)
(-7.50841e-05 -0.000906046 0)
(-0.000381874 0.0040743 0)
(-0.00249553 0.0109628 0)
(-0.00662534 0.0163745 0)
(-0.0118577 0.0203634 0)
(-0.0178216 0.0230797 0)
(-0.02425 0.0247006 0)
(-0.0309116 0.0253949 0)
(-0.0376179 0.0252986 0)
(-0.0442097 0.0245033 0)
(-0.0505425 0.0230556 0)
(-0.0564743 0.0209647 0)
(-0.061858 0.0182159 0)
(-0.0665357 0.0147879 0)
(-0.0703365 0.0106724 0)
(-0.0730791 0.00589408 0)
(-0.0745779 0.000530858 0)
(-0.0746584 -0.00526983 0)
(-0.0731733 -0.0112795 0)
(-0.0700277 -0.0171846 0)
(-0.065211 -0.0225984 0)
(-0.0588259 -0.0270888 0)
(-0.0511121 -0.0302248 0)
(-0.0424558 -0.0316405 0)
(-0.0333745 -0.0311068 0)
(-0.024472 -0.0285964 0)
(-0.0163657 -0.0243242 0)
(-0.009595 -0.0187495 0)
(-0.00452095 -0.0125379 0)
(-0.00129618 -0.00649063 0)
(-7.70049e-05 -0.0014863 0)
(-0.000424986 0.00548881 0)
(-0.00277395 0.0144231 0)
(-0.00735287 0.02128 0)
(-0.0131351 0.0262531 0)
(-0.0197066 0.0296005 0)
(-0.0267776 0.0315809 0)
(-0.0341051 0.0324215 0)
(-0.0414983 0.0322975 0)
(-0.0488014 0.0313233 0)
(-0.0558755 0.0295545 0)
(-0.0625842 0.0269983 0)
(-0.0687823 0.0236298 0)
(-0.0743077 0.0194125 0)
(-0.0789759 0.0143216 0)
(-0.0825794 0.00836931 0)
(-0.0848913 0.00163 0)
(-0.0856797 -0.00573626 0)
(-0.0847243 -0.0134651 0)
(-0.0818481 -0.0211747 0)
(-0.0769608 -0.0283752 0)
(-0.0701011 -0.0344969 0)
(-0.0614803 -0.0389472 0)
(-0.0515083 -0.0411959 0)
(-0.04079 -0.0408789 0)
(-0.0300777 -0.0379 0)
(-0.0201795 -0.0324995 0)
(-0.0118305 -0.0252663 0)
(-0.00554545 -0.0170805 0)
(-0.00155902 -0.00900126 0)
(-7.71451e-05 -0.00216706 0)
(-0.000462749 0.00704344 0)
(-0.00302106 0.0182228 0)
(-0.00800381 0.026656 0)
(-0.0142866 0.0326947 0)
(-0.0214189 0.036723 0)
(-0.0290926 0.0390965 0)
(-0.037058 0.0401126 0)
(-0.0451269 0.0399934 0)
(-0.0531536 0.0388806 0)
(-0.0610123 0.0368402 0)
(-0.0685797 0.0338755 0)
(-0.0757202 0.0299461 0)
(-0.0822741 0.0249916 0)
(-0.0880468 0.018958 0)
(-0.0928036 0.0118281 0)
(-0.0962697 0.00365403 0)
(-0.0981415 -0.00541081 0)
(-0.0981017 -0.0150825 0)
(-0.0958579 -0.0249184 0)
(-0.0912001 -0.0343183 0)
(-0.0840604 -0.0425482 0)
(-0.0745819 -0.0488052 0)
(-0.0631722 -0.0523275 0)
(-0.0505212 -0.0525408 0)
(-0.0375603 -0.049214 0)
(-0.0253512 -0.0425795 0)
(-0.0149091 -0.0333705 0)
(-0.00698267 -0.0227458 0)
(-0.00194301 -0.0121168 0)
(-8.48547e-05 -0.00298808 0)
(-0.000495972 0.00872266 0)
(-0.00324101 0.022327 0)
(-0.00858741 0.0324588 0)
(-0.0153261 0.0396431 0)
(-0.0229757 0.0444065 0)
(-0.0312148 0.0472162 0)
(-0.0397914 0.0484515 0)
(-0.0485264 0.0483905 0)
(-0.0572905 0.0472076 0)
(-0.0659791 0.0449811 0)
(-0.0744909 0.041709 0)
(-0.0827095 0.0373298 0)
(-0.0904854 0.0317484 0)
(-0.0976206 0.0248656 0)
(-0.103856 0.0166131 0)
(-0.108863 0.00699344 0)
(-0.112257 -0.00387509 0)
(-0.113599 -0.0157117 0)
(-0.112448 -0.0280336 0)
(-0.108429 -0.04013 0)
(-0.101314 -0.0510777 0)
(-0.0911233 -0.0598081 0)
(-0.0782156 -0.0652417 0)
(-0.0633421 -0.0664875 0)
(-0.0476292 -0.0630751 0)
(-0.0324587 -0.0551602 0)
(-0.0192341 -0.0436193 0)
(-0.00905679 -0.0299669 0)
(-0.00252743 -0.0160971 0)
(-0.000110259 -0.00402765 0)
(-0.000524845 0.0105125 0)
(-0.00343561 0.0267044 0)
(-0.00910814 0.038648 0)
(-0.0162595 0.0470555 0)
(-0.0243825 0.0526109 0)
(-0.0331461 0.0559072 0)
(-0.0423009 0.0574184 0)
(-0.051682 0.0574882 0)
(-0.0611839 0.0563303 0)
(-0.0707313 0.054039 0)
(-0.0802548 0.0506061 0)
(-0.0896672 0.0459434 0)
(-0.0988402 0.0399092 0)
(-0.107582 0.0323405 0)
(-0.115614 0.023091 0)
(-0.122558 0.0120799 0)
(-0.127935 -0.000648036 0)
(-0.131174 -0.0148489 0)
(-0.131655 -0.0300338 0)
(-0.128796 -0.0453924 0)
(-0.12215 -0.059796 0)
(-0.111546 -0.0718559 0)
(-0.0972208 -0.0800771 0)
(-0.0799294 -0.0831128 0)
(-0.0609758 -0.0800981 0)
(-0.0421122 -0.0709851 0)
(-0.0252555 -0.0567524 0)
(-0.0120257 -0.0393481 0)
(-0.00340393 -0.0213222 0)
(-0.000164612 -0.0054083 0)
(-0.000549192 0.0123992 0)
(-0.00360515 0.0313247 0)
(-0.00956708 0.045184 0)
(-0.017087 0.0548877 0)
(-0.0256346 0.0612913 0)
(-0.0348722 0.065128 0)
(-0.0445565 0.0669798 0)
(-0.0545416 0.067267 0)
(-0.0647518 0.0662511 0)
(-0.0751491 0.0640469 0)
(-0.0857051 0.0606407 0)
(-0.0963726 0.0559126 0)
(-0.107056 0.0496629 0)
(-0.117581 0.041644 0)
(-0.127662 0.0316025 0)
(-0.136879 0.0193358 0)
(-0.144656 0.00476934 0)
(-0.150291 -0.0119471 0)
(-0.152976 -0.0303511 0)
(-0.151881 -0.0495631 0)
(-0.146296 -0.0682517 0)
(-0.135783 -0.0846687 0)
(-0.120358 -0.0968071 0)
(-0.100677 -0.102704 0)
(-0.0781439 -0.100888 0)
(-0.0548838 -0.0908937 0)
(-0.0334443 -0.0736799 0)
(-0.0161776 -0.0516775 0)
(-0.00467793 -0.0283081 0)
(-0.00026093 -0.00730323 0)
(-0.000568748 0.0143691 0)
(-0.00374958 0.036158 0)
(-0.00996436 0.0520262 0)
(-0.0178059 0.0630912 0)
(-0.0267216 0.0703934 0)
(-0.0363677 0.0748209 0)
(-0.0465086 0.077078 0)
(-0.0570208 0.0776742 0)
(-0.0678627 0.0769284 0)
(-0.0790394 0.0749822 0)
(-0.0905708 0.0718188 0)
(-0.102459 0.0672831 0)
(-0.114652 0.0611064 0)
(-0.127006 0.052937 0)
(-0.139242 0.0423838 0)
(-0.150911 0.0290825 0)
(-0.161371 0.0127882 0)
(-0.169792 -0.00650242 0)
(-0.175183 -0.0283971 0)
(-0.176475 -0.0520025 0)
(-0.172665 -0.0758132 0)
(-0.162979 -0.0977145 0)
(-0.147105 -0.115118 0)
(-0.125442 -0.125289 0)
(-0.0993367 -0.125887 0)
(-0.0711914 -0.115708 0)
(-0.0442449 -0.0954295 0)
(-0.0218225 -0.0679224 0)
(-0.00647113 -0.0377209 0)
(-0.000415304 -0.00994418 0)
(-0.0005835 0.016408 0)
(-0.00387022 0.0411747 0)
(-0.0103028 0.0591327 0)
(-0.0184166 0.0716116 0)
(-0.0276344 0.0798494 0)
(-0.0376038 0.0849052 0)
(-0.0480971 0.0876209 0)
(-0.0590135 0.0886088 0)
(-0.070347 0.088256 0)
(-0.0821482 0.086739 0)
(-0.0944891 0.084041 0)
(-0.107426 0.0799708 0)
(-0.120958 0.0741822 0)
(-0.134984 0.0662022 0)
(-0.149249 0.0554758 0)
(-0.163304 0.0414397 0)
(-0.176468 0.0236338 0)
(-0.187818 0.00185383 0)
(-0.196232 -0.0236569 0)
(-0.200445 -0.052042 0)
(-0.199168 -0.0816893 0)
(-0.19126 -0.110163 0)
(-0.175972 -0.134288 0)
(-0.153261 -0.150444 0)
(-0.124162 -0.155153 0)
(-0.0911205 -0.146041 0)
(-0.0579894 -0.12303 0)
(-0.029273 -0.089194 0)
(-0.00892424 -0.0503837 0)
(-0.00064919 -0.0136313 0)
(-0.000594122 0.0185034 0)
(-0.00397194 0.0463484 0)
(-0.0105928 0.066462 0)
(-0.0189298 0.0803884 0)
(-0.0283743 0.0895762 0)
(-0.038561 0.0952725 0)
(-0.0492662 0.0984737 0)
(-0.0604097 0.099909 0)
(-0.0720188 0.100045 0)
(-0.0841875 0.0991021 0)
(-0.0970375 0.097068 0)
(-0.110679 0.0937159 0)
(-0.125167 0.0886179 0)
(-0.140448 0.0811691 0)
(-0.156312 0.0706325 0)
(-0.172338 0.056221 0)
(-0.187856 0.0372269 0)
(-0.201928 0.0132018 0)
(-0.213367 -0.0158248 0)
(-0.220793 -0.0490996 0)
(-0.222714 -0.0850061 0)
(-0.217641 -0.120901 0)
(-0.204327 -0.153109 0)
(-0.182095 -0.177116 0)
(-0.15135 -0.188098 0)
(-0.114181 -0.182011 0)
(-0.0747544 -0.157301 0)
(-0.0387986 -0.116659 0)
(-0.0121967 -0.0672705 0)
(-0.00099263 -0.0187451 0)
(-0.000602558 0.0206464 0)
(-0.00406599 0.0516602 0)
(-0.0108586 0.0739781 0)
(-0.0193757 0.0893585 0)
(-0.0289661 0.099476 0)
(-0.0392434 0.105785 0)
(-0.0499824 0.109454 0)
(-0.0611182 0.111344 0)
(-0.0727058 0.112013 0)
(-0.0848751 0.111731 0)
(-0.0977899 0.110497 0)
(-0.111607 0.108052 0)
(-0.126432 0.103886 0)
(-0.142268 0.0972617 0)
(-0.158962 0.0872559 0)
(-0.176159 0.0728509 0)
(-0.193261 0.0530805 0)
(-0.209401 0.0272336 0)
(-0.223428 -0.00490582 0)
(-0.233983 -0.0428127 0)
(-0.239501 -0.0849442 0)
(-0.23824 -0.128636 0)
(-0.228465 -0.169918 0)
(-0.208747 -0.20353 0)
(-0.178534 -0.223246 0)
(-0.139036 -0.222905 0)
(-0.0941493 -0.198544 0)
(-0.0505379 -0.151365 0)
(-0.0164577 -0.0894688 0)
(-0.00148797 -0.0257578 0)
(-0.000612806 0.0228366 0)
(-0.00417381 0.0571079 0)
(-0.0111457 0.0816585 0)
(-0.0198152 0.0984622 0)
(-0.0294712 0.10944 0)
(-0.039696 0.116276 0)
(-0.0502559 0.120333 0)
(-0.061095 0.122615 0)
(-0.0722873 0.12378 0)
(-0.0839876 0.124158 0)
(-0.096389 0.123761 0)
(-0.109683 0.122304 0)
(-0.124016 0.119202 0)
(-0.139446 0.113595 0)
(-0.155897 0.104388 0)
(-0.173111 0.0903487 0)
(-0.190619 0.0702694 0)
(-0.207717 0.0431825 0)
(-0.223456 0.00860768 0)
(-0.236599 -0.0332014 0)
(-0.245659 -0.0809255 0)
(-0.24885 -0.132103 0)
(-0.244063 -0.182773 0)
(-0.229113 -0.22726 0)
(-0.202269 -0.258128 0)
(-0.163324 -0.26687 0)
(-0.115076 -0.246132 0)
(-0.064356 -0.193954 0)
(-0.0218638 -0.118091 0)
(-0.0021945 -0.0352408 0)
(-0.000632097 0.0250887 0)
(-0.00433201 0.0627181 0)
(-0.0115313 0.0895065 0)
(-0.0203533 0.107652 0)
(-0.0300035 0.119354 0)
(-0.040022 0.126558 0)
(-0.0501614 0.130838 0)
(-0.0603693 0.133359 0)
(-0.0707308 0.134886 0)
(-0.0814134 0.135807 0)
(-0.0926249 0.136157 0)
(-0.104576 0.135628 0)
(-0.117445 0.133576 0)
(-0.131342 0.129039 0)
(-0.146276 0.120782 0)
(-0.16212 0.1074 0)
(-0.178591 0.0874874 0)
(-0.195229 0.0598563 0)
(-0.211372 0.0237815 0)
(-0.226068 -0.0207541 0)
(-0.238109 -0.0728214 0)
(-0.245849 -0.130371 0)
(-0.247027 -0.189817 0)
(-0.238868 -0.245559 0)
(-0.218443 -0.289449 0)
(-0.183743 -0.310792 0)
(-0.135573 -0.298121 0)
(-0.0796726 -0.244258 0)
(-0.0285223 -0.154104 0)
(-0.00319496 -0.0478602 0)
(-0.000672894 0.0274431 0)
(-0.00459988 0.0685642 0)
(-0.0121368 0.0975673 0)
(-0.0211536 0.116905 0)
(-0.0307435 0.129107 0)
(-0.040397 0.136423 0)
(-0.0498532 0.140666 0)
(-0.0590634 0.143171 0)
(-0.0681197 0.144811 0)
(-0.0771938 0.146035 0)
(-0.0864957 0.1469 0)
(-0.0962431 0.147087 0)
(-0.106636 0.145911 0)
(-0.117837 0.142342 0)
(-0.129947 0.135052 0)
(-0.142994 0.122524 0)
(-0.156914 0.10322 0)
(-0.171546 0.0758009 0)
(-0.186589 0.039356 0)
(-0.201483 -0.00641126 0)
(-0.215449 -0.0611071 0)
(-0.227172 -0.123164 0)
(-0.234523 -0.189748 0)
(-0.234459 -0.255924 0)
(-0.223091 -0.313589 0)
(-0.196536 -0.350539 0)
(-0.152902 -0.351075 0)
(-0.0953297 -0.300849 0)
(-0.0364457 -0.198063 0)
(-0.00460661 -0.0643602 0)
(-0.000756723 0.0299816 0)
(-0.00507144 0.0747918 0)
(-0.0131457 0.105947 0)
(-0.0224559 0.126232 0)
(-0.0319515 0.138597 0)
(-0.0410765 0.145656 0)
(-0.0495685 0.149493 0)
(-0.0573938 0.151618 0)
(-0.0646563 0.153012 0)
(-0.0715304 0.15418 0)
(-0.0782234 0.155201 0)
(-0.0849539 0.155755 0)
(-0.0919403 0.155141 0)
(-0.0993953 0.152301 0)
(-0.107521 0.145869 0)
(-0.116509 0.134286 0)
(-0.12653 0.115958 0)
(-0.137725 0.0894671 0)
(-0.150178 0.0537662 0)
(-0.163879 0.00831189 0)
(-0.178438 -0.0469084 0)
(-0.19295 -0.111034 0)
(-0.205797 -0.182221 0)
(-0.214063 -0.256724 0)
(-0.21337 -0.327383 0)
(-0.198283 -0.381629 0)
(-0.163965 -0.400299 0)
(-0.10959 -0.360727 0)
(-0.0455076 -0.249757 0)
(-0.00659961 -0.0855355 0)
(-0.000922149 0.0328538 0)
(-0.00589656 0.0816523 0)
(-0.0148293 0.114835 0)
(-0.0245953 0.135685 0)
(-0.0339742 0.147727 0)
(-0.0423886 0.154028 0)
(-0.0496084 0.156974 0)
(-0.0556426 0.158258 0)
(-0.0606245 0.158955 0)
(-0.0647408 0.159615 0)
(-0.0682 0.160339 0)
(-0.0712239 0.160816 0)
(-0.0740515 0.160356 0)
(-0.0769494 0.157913 0)
(-0.0802228 0.152145 0)
(-0.0842249 0.141515 0)
(-0.089358 0.124449 0)
(-0.0960607 0.0995194 0)
(-0.104781 0.0656018 0)
(-0.115907 0.0219568 0)
(-0.129553 -0.0316892 0)
(-0.14538 -0.0952696 0)
(-0.162325 -0.167991 0)
(-0.178016 -0.247651 0)
(-0.188228 -0.328864 0)
(-0.186676 -0.400139 0)
(-0.165905 -0.440526 0)
(-0.120324 -0.419354 0)
(-0.0553914 -0.307839 0)
(-0.00941654 -0.112202 0)
(-0.00124198 0.0363216 0)
(-0.00731963 0.0895502 0)
(-0.0175862 0.124519 0)
(-0.0280216 0.145347 0)
(-0.0372361 0.156385 0)
(-0.0446978 0.161273 0)
(-0.0502759 0.162737 0)
(-0.0540722 0.162639 0)
(-0.056283 0.162129 0)
(-0.0571273 0.161784 0)
(-0.0568284 0.161718 0)
(-0.0556208 0.161641 0)
(-0.0537699 0.160894 0)
(-0.0515986 0.158489 0)
(-0.0495101 0.153155 0)
(-0.0480056 0.143441 0)
(-0.0476875 0.127851 0)
(-0.0492442 0.105011 0)
(-0.0534358 0.073794 0)
(-0.060989 0.0333232 0)
(-0.0724397 -0.0169953 0)
(-0.0879627 -0.0776264 0)
(-0.107136 -0.148748 0)
(-0.128425 -0.229786 0)
(-0.148383 -0.317695 0)
(-0.160825 -0.403496 0)
(-0.156581 -0.466831 0)
(-0.125294 -0.471119 0)
(-0.0655079 -0.36955 0)
(-0.0133674 -0.14516 0)
(-0.00186047 0.0408434 0)
(-0.0097506 0.0991042 0)
(-0.0219947 0.135383 0)
(-0.0333031 0.155287 0)
(-0.0421855 0.164383 0)
(-0.0482973 0.16704 0)
(-0.0517204 0.166336 0)
(-0.0527267 0.164275 0)
(-0.0516233 0.162038 0)
(-0.0486922 0.160202 0)
(-0.044191 0.158881 0)
(-0.0383785 0.157805 0)
(-0.0315517 0.156372 0)
(-0.0240855 0.153679 0)
(-0.0164654 0.148571 0)
(-0.00931039 0.139729 0)
(-0.00337041 0.12578 0)
(0.000490813 0.105425 0)
(0.00126797 0.0775424 0)
(-0.00204755 0.0412039 0)
(-0.0102974 -0.00438436 0)
(-0.0240319 -0.060022 0)
(-0.0434607 -0.12671 0)
(-0.0680203 -0.205266 0)
(-0.0955189 -0.295102 0)
(-0.12088 -0.390834 0)
(-0.134579 -0.475377 0)
(-0.122316 -0.510036 0)
(-0.0748267 -0.430622 0)
(-0.0187384 -0.185098 0)
(-0.00307153 0.0472307 0)
(-0.0138899 0.111215 0)
(-0.0288669 0.147856 0)
(-0.0410624 0.165442 0)
(-0.0491109 0.171329 0)
(-0.0531181 0.170761 0)
(-0.0535541 0.167147 0)
(-0.0509652 0.162553 0)
(-0.0458296 0.158127 0)
(-0.038528 0.154399 0)
(-0.0293729 0.151457 0)
(-0.0186552 0.149048 0)
(-0.00669986 0.146633 0)
(0.00608426 0.143412 0)
(0.0191637 0.138373 0)
(0.0318496 0.130358 0)
(0.0432919 0.118144 0)
(0.0524994 0.100539 0)
(0.058351 0.0764422 0)
(0.0596969 0.0449249 0)
(0.0554976 0.005091 0)
(0.0448045 -0.0441024 0)
(0.0268452 -0.104116 0)
(0.00133614 -0.176717 0)
(-0.0310212 -0.26341 0)
(-0.0671066 -0.362854 0)
(-0.0986978 -0.463706 0)
(-0.109062 -0.530276 0)
(-0.0815532 -0.485225 0)
(-0.025516 -0.232258 0)
(-0.00547309 0.0569601 0)
(-0.0209222 0.127103 0)
(-0.0392104 0.162197 0)
(-0.0516528 0.175321 0)
(-0.0575602 0.176324 0)
(-0.0579352 0.171393 0)
(-0.053884 0.164136 0)
(-0.0463541 0.156542 0)
(-0.03606 0.149618 0)
(-0.0235116 0.143775 0)
(-0.00908839 0.13904 0)
(0.00689309 0.135156 0)
(0.0241002 0.131636 0)
(0.0421229 0.127788 0)
(0.060432 0.122749 0)
(0.0783358 0.115531 0)
(0.0949681 0.105077 0)
(0.109301 0.0903367 0)
(0.120173 0.0703035 0)
(0.126358 0.0440528 0)
(0.126625 0.010632 0)
(0.11976 -0.0311452 0)
(0.104576 -0.082826 0)
(0.0800059 -0.146616 0)
(0.0453386 -0.225379 0)
(0.00126699 -0.321433 0)
(-0.0470277 -0.430737 0)
(-0.0823818 -0.526254 0)
(-0.0826505 -0.525776 0)
(-0.0328694 -0.285899 0)
(-0.0102387 0.0728224 0)
(-0.0327194 0.148172 0)
(-0.0537143 0.177931 0)
(-0.0639236 0.183354 0)
(-0.0645559 0.17737 0)
(-0.0581969 0.166906 0)
(-0.0468932 0.15545 0)
(-0.032112 0.144664 0)
(-0.0148365 0.135253 0)
(0.00430185 0.127411 0)
(0.024889 0.121038 0)
(0.0466194 0.11584 0)
(0.0692052 0.111359 0)
(0.0923025 0.106999 0)
(0.115455 0.102041 0)
(0.13805 0.0956683 0)
(0.159293 0.087005 0)
(0.178211 0.0751584 0)
(0.193672 0.0592491 0)
(0.204419 0.0384155 0)
(0.209083 0.0117466 0)
(0.206233 -0.0218997 0)
(0.194322 -0.0639939 0)
(0.171648 -0.116723 0)
(0.136382 -0.183442 0)
(0.0869895 -0.269017 0)
(0.0242751 -0.376824 0)
(-0.037026 -0.492821 0)
(-0.0733408 -0.542963 0)
(-0.0385488 -0.344041 0)
(-0.0194238 0.099801 0)
(-0.0514616 0.17474 0)
(-0.0700552 0.192253 0)
(-0.0708195 0.18543 0)
(-0.0592897 0.17021 0)
(-0.0404043 0.153474 0)
(-0.0172993 0.137901 0)
(0.00812206 0.124412 0)
(0.0347582 0.113175 0)
(0.0620152 0.104039 0)
(0.089586 0.0967098 0)
(0.117303 0.0908101 0)
(0.145031 0.0858915 0)
(0.172588 0.0814388 0)
(0.199679 0.0768679 0)
(0.225854 0.0715348 0)
(0.250473 0.0647533 0)
(0.272694 0.0558162 0)
(0.291481 0.0440098 0)
(0.305616 0.0286137 0)
(0.313632 0.00886765 0)
(0.313944 -0.0161714 0)
(0.304704 -0.0477103 0)
(0.283711 -0.0876356 0)
(0.248282 -0.139041 0)
(0.195273 -0.207742 0)
(0.121778 -0.302924 0)
(0.0361783 -0.426803 0)
(-0.0461553 -0.527063 0)
(-0.0378323 -0.401723 0)
(-0.0346999 0.143802 0)
(-0.0738944 0.199531 0)
(-0.0701308 0.193957 0)
(-0.0447483 0.170567 0)
(-0.00914115 0.145721 0)
(0.0301304 0.124094 0)
(0.0698017 0.106404 0)
(0.108403 0.0922752 0)
(0.145364 0.0811215 0)
(0.180593 0.0723779 0)
(0.214215 0.0655429 0)
(0.246425 0.0601638 0)
(0.277396 0.0558113 0)
(0.307216 0.0520583 0)
(0.335831 0.0484643 0)
(0.363014 0.0445696 0)
(0.388328 0.0398982 0)
(0.411111 0.0339647 0)
(0.43047 0.0262773 0)
(0.445306 0.0163279 0)
(0.454159 0.00353886 0)
(0.455455 -0.0126024 0)
(0.447122 -0.032937 0)
(0.426675 -0.0588547 0)
(0.390851 -0.0926869 0)
(0.335795 -0.13956 0)
(0.255233 -0.210685 0)
(0.151224 -0.325264 0)
(0.014327 -0.465991 0)
(-0.0174208 -0.441529 0)
(-0.0375733 0.235934 0)
(-0.0477981 0.203554 0)
(0.0273835 0.152994 0)
(0.0992104 0.117167 0)
(0.1662 0.0905775 0)
(0.226342 0.0710658 0)
(0.279337 0.0570019 0)
(0.325927 0.0468213 0)
(0.367143 0.0393527 0)
(0.403984 0.0338142 0)
(0.437316 0.0296726 0)
(0.467848 0.0265337 0)
(0.496123 0.0240803 0)
(0.522506 0.0220366 0)
(0.547176 0.0201464 0)
(0.570103 0.0181609 0)
(0.591045 0.0158351 0)
(0.609528 0.0129281 0)
(0.624841 0.00920838 0)
(0.636007 0.00445418 0)
(0.641892 -0.0015596 0)
(0.641159 -0.00910369 0)
(0.631743 -0.0186307 0)
(0.611419 -0.0307723 0)
(0.576716 -0.0467132 0)
(0.523974 -0.0697454 0)
(0.443431 -0.108014 0)
(0.333767 -0.188517 0)
(0.143289 -0.336066 0)
(0.0605616 -0.412862 0)
(0.231283 0.158596 0)
(0.291368 0.117065 0)
(0.44075 0.0758688 0)
(0.539445 0.0505366 0)
(0.60632 0.0342142 0)
(0.655685 0.023474 0)
(0.693695 0.0165059 0)
(0.723701 0.0120036 0)
(0.748041 0.00906136 0)
(0.768363 0.00710893 0)
(0.785797 0.00579463 0)
(0.801113 0.00489272 0)
(0.814835 0.00424904 0)
(0.827292 0.0037507 0)
(0.838648 0.00330826 0)
(0.848912 0.0028454 0)
(0.857945 0.00229403 0)
(0.865471 0.00159158 0)
(0.871076 0.00068687 0)
(0.87423 -0.000465763 0)
(0.874241 -0.00183563 0)
(0.870267 -0.00355504 0)
(0.861257 -0.00575935 0)
(0.846177 -0.00855304 0)
(0.822599 -0.0121596 0)
(0.788812 -0.0175986 0)
(0.733196 -0.0270383 0)
(0.656037 -0.0490227 0)
(0.454156 -0.110051 0)
(0.313181 -0.17748 0)
)
;

boundaryField
{
    movingWall
    {
        type            fixedValue;
        value           uniform (1 0 0);
    }
    fixedWalls
    {
        type            noSlip;
    }
    frontAndBack
    {
        type            empty;
    }
}


// ************************************************************************* //
