/*--------------------------------*- C++ -*----------------------------------*\
  =========                 |
  \\      /  F ield         | OpenFOAM: The Open Source CFD Toolbox
   \\    /   O peration     | Website:  https://openfoam.org
    \\  /    A nd           | Version:  7
     \\/     M anipulation  |
\*---------------------------------------------------------------------------*/
FoamFile
{
    version     2.0;
    format      ascii;
    class       volScalarField;
    location    "1.32";
    object      p;
}
// * * * * * * * * * * * * * * * * * * * * * * * * * * * * * * * * * * * * * //

dimensions      [0 2 -2 0 0 0 0];

internalField   nonuniform List<scalar> 
1936
(
0.000130014
-3475.74
-6854.17
-5413.67
-3917.84
-3537.47
-3414.7
-4098.74
-5937.34
-7380.7
-6174.58
-3987.6
-3043.21
-2906.29
-3205.03
-4558.52
-6505.2
-6669.84
-4655.32
-3082.25
-2812.21
-2967.6
-4520.54
-6955.72
-6733.46
-4331.26
-2921.42
-2684.98
-2956.25
-4384.38
-6539.42
-6752.95
-4487.85
-2891.21
-2744.5
-3211.79
-5392.46
-7227.58
-5709.53
-3345.78
-2671.57
-2690.65
-4001.02
-6971.06
-84.7731
-3437.72
-6792.18
-5404.34
-3938
-3578.26
-3456.54
-4100.76
-5890.86
-7309.46
-6126.85
-3985.14
-3083.58
-2964.09
-3244.7
-4560.11
-6464.49
-6617.01
-4643.65
-3124.61
-2875.27
-3003.61
-4487.27
-6875.63
-6675.42
-4320.09
-2956.27
-2745.94
-3001.59
-4391.45
-6500.12
-6689.68
-4469.07
-2940.17
-2809.75
-3234.34
-5350.03
-7160.55
-5677.72
-3369.15
-2733.61
-2743.23
-3989.83
-6903.07
-355.244
-3337.4
-6553.42
-5389.83
-4013.67
-3673.46
-3560.42
-4123.01
-5771.46
-7088.49
-5996.52
-4005.61
-3188.27
-3100.6
-3360.94
-4583.23
-6338.49
-6452.24
-4627.74
-3248.74
-3021.65
-3104.27
-4421.65
-6634.15
-6500.66
-4320.88
-3055.86
-2888.51
-3131.97
-4433.84
-6376.41
-6493.79
-4437.12
-3074.51
-2961.87
-3314.4
-5246.96
-6943.52
-5594.26
-3459.05
-2880.14
-2877.97
-3996.89
-6693.56
-731.813
-3229.32
-6185.24
-5336.92
-4117.72
-3803.77
-3710.97
-4177
-5610
-6760.14
-5809.15
-4055.37
-3345.35
-3286.15
-3521.89
-4609.35
-6137.89
-6202.98
-4608.23
-3421.51
-3217.87
-3259.76
-4356.78
-6286.09
-6233.8
-4334.04
-3211.85
-3086.67
-3312.99
-4483.16
-6172.3
-6204.02
-4406.15
-3265.47
-3169.12
-3443.4
-5109.84
-6613.06
-5463.85
-3591
-3082.02
-3073.69
-4025.68
-6379.86
-1157.68
-3145.76
-5749.8
-5236.93
-4222.84
-3946.76
-3884.8
-4255.69
-5431.73
-6376.2
-5593.91
-4128.95
-3535.15
-3493.62
-3697.84
-4626.15
-5889.96
-5909.2
-4584.84
-3609.25
-3431.57
-3446.53
-4307.77
-5892.83
-5915.36
-4355.67
-3404.58
-3312.42
-3512.62
-4520.99
-5914.2
-5870.14
-4381.2
-3478.17
-3396.68
-3600.32
-4963.46
-6224.65
-5303.14
-3739.18
-3306.31
-3297.62
-4070.66
-6016.28
-1597.46
-3106.85
-5299.67
-5089.84
-4312.39
-4086.77
-4060.47
-4346.53
-5254.52
-5979.89
-5373.42
-4217.5
-3739.12
-3704.71
-3871.48
-4625.28
-5617.93
-5603.16
-4556.07
-3791.4
-3642.72
-3643.31
-4281.61
-5504.86
-5579.54
-4381.17
-3613.2
-3544.25
-3710.32
-4536.86
-5625.95
-5532.67
-4364.87
-3688.31
-3621.21
-3768.2
-4824.34
-5823.18
-5125.53
-3887.41
-3530.54
-3524.16
-4127.05
-5645.29
-2029.65
-3122.77
-4879.06
-4905.66
-4377.37
-4213.14
-4217.99
-4433.81
-5090.38
-5605.25
-5164.17
-4310.71
-3939.15
-3905.42
-4030.94
-4608.74
-5343.31
-5310.28
-4525.22
-3955.49
-3837.34
-3831.51
-4278.33
-5158.95
-5257.2
-4403.6
-3817.83
-3764.16
-3891.65
-4531.53
-5332.79
-5222.01
-4360.13
-3878.84
-3827.01
-3930.78
-4704.15
-5443.56
-4945.43
-4023.41
-3740.04
-3736.11
-4188.63
-5298.11
-2443.89
-3193.95
-4520.88
-4705.33
-4411.85
-4316.06
-4342.9
-4502.96
-4944.04
-5276.73
-4978.73
-4396.24
-4120.22
-4084.79
-4169.36
-4581.77
-5087.28
-5048.96
-4498.19
-4095.63
-4005.83
-3997.88
-4292.37
-4876.17
-4973.12
-4417.35
-4001.17
-3957.84
-4048.64
-4511.59
-5059.62
-4957.3
-4367.19
-4041.67
-4003.58
-4075.59
-4607.02
-5111.36
-4777.18
-4140.06
-3925.12
-3922.46
-4246.98
-4997.22
-2830.34
-3312.93
-4248.5
-4513.92
-4414.18
-4385.55
-4427.15
-4545.04
-4816.83
-5009.17
-4824.46
-4462.95
-4270.99
-4235.04
-4283.47
-4550.72
-4866.94
-4832.39
-4476.59
-4209.77
-4143.96
-4134.16
-4314.72
-4665.29
-4743.66
-4419.98
-4151.69
-4117.37
-4177.2
-4483.91
-4826.06
-4749.02
-4381.19
-4172.83
-4146.27
-4195.44
-4531.21
-4842.73
-4634.56
-4232.46
-4079.67
-4076.38
-4295.54
-4755.63
-3171.05
-3464.72
-4076.05
-4354.24
-4387.8
-4416.78
-4470.88
-4557.2
-4709.58
-4806.7
-4704.47
-4505.39
-4384.42
-4350.76
-4370.42
-4520.77
-4693.75
-4667
-4459.79
-4297.23
-4250.08
-4238.63
-4336.56
-4522.98
-4576.58
-4414.48
-4263.91
-4238.53
-4274.57
-4455.07
-4644.96
-4597.9
-4394.6
-4272.38
-4253.66
-4285.86
-4474.84
-4644.4
-4526.48
-4298.54
-4200.26
-4196.11
-4329.24
-4578.39
-3449.25
-3625.98
-4000.11
-4242.13
-4344.54
-4414.54
-4479.85
-4544.6
-4622.38
-4664.5
-4617.17
-4524.65
-4458.78
-4429.56
-4428.83
-4495.07
-4571.63
-4552.37
-4446.48
-4357.78
-4324.53
-4312.28
-4354.27
-4438.17
-4470.07
-4406.28
-4337.61
-4322.01
-4340.21
-4429.97
-4520.24
-4498.22
-4403.04
-4340.66
-4328.14
-4345.49
-4435.76
-4513.14
-4454.55
-4341.09
-4285.25
-4280.88
-4349.23
-4463.22
-3662.72
-3774.06
-3995.85
-4181.61
-4302.15
-4393.51
-4464.7
-4515.18
-4553.85
-4571.2
-4556.93
-4525.6
-4496.85
-4474.53
-4461.12
-4475.42
-4495.91
-4481.9
-4435.56
-4393.53
-4371.44
-4358.35
-4367.56
-4396.11
-4413.29
-4399.48
-4378.69
-4371.85
-4377.67
-4411.76
-4446.15
-4439.71
-4405.78
-4380.72
-4373.24
-4378.68
-4411.22
-4437.77
-4413.15
-4365.17
-4337.59
-4333.9
-4360.14
-4400.16
-3819.79
-3896.42
-4029.28
-4163.38
-4273.68
-4365.4
-4434.54
-4477.67
-4501.43
-4512.69
-4516.21
-4514.67
-4507.35
-4491.95
-4473.17
-4461.85
-4455.62
-4444.24
-4426.82
-4410.12
-4396.68
-4383.82
-4377.66
-4381.48
-4390.16
-4395.51
-4396.66
-4395.72
-4394.57
-4400.94
-4409.48
-4410.06
-4404.45
-4399.09
-4395.29
-4393.12
-4397.85
-4401.84
-4393.15
-4376.88
-4365.57
-4361.9
-4366.42
-4373.69
-3937.3
-3990.09
-4075.07
-4169.8
-4260.37
-4340.42
-4401.78
-4440.59
-4462.14
-4475.64
-4487.64
-4497.59
-4500.09
-4491.13
-4472.42
-4452.7
-4437.49
-4427.28
-4420.57
-4415.15
-4407.46
-4396.31
-4385.67
-4381.33
-4385.28
-4394.03
-4401.41
-4403.11
-4399.49
-4395.75
-4395.25
-4397.64
-4401.47
-4403.9
-4402.26
-4397.02
-4391.93
-4388.53
-4385.22
-4381.66
-4378.02
-4374.36
-4370.86
-4367.78
-4029.13
-4063.3
-4119.45
-4186.78
-4256.94
-4321.46
-4373.24
-4409.17
-4432.53
-4449.74
-4465.17
-4477.96
-4483.56
-4478.46
-4463.83
-4445.64
-4430.2
-4421.12
-4417.49
-4415.33
-4410.59
-4401.96
-4392.35
-4386.59
-4387.75
-4394.1
-4400.64
-4402.6
-4399.18
-4393.98
-4391.44
-4393.49
-4398.56
-4402.36
-4401.67
-4396.43
-4389.83
-4385.32
-4383.83
-4383.5
-4382.39
-4379.36
-4374.66
-4370.46
-4102.77
-4123.62
-4160.25
-4207.22
-4258.74
-4308.81
-4351.39
-4384.3
-4408.88
-4428.29
-4444.62
-4457.25
-4463.54
-4461.51
-4452.07
-4439.14
-4427.42
-4419.89
-4416.49
-4414.5
-4410.92
-4404.67
-4397.53
-4392.71
-4392.23
-4395.31
-4398.91
-4399.99
-4397.62
-4394
-4392
-4393.13
-4396.37
-4398.96
-4398.5
-4394.69
-4389.75
-4386.12
-4384.69
-4384.44
-4383.67
-4381.3
-4377.86
-4374.91
-4161.75
-4174.23
-4197.59
-4229.25
-4265.61
-4302.55
-4336.5
-4365.29
-4388.93
-4408.39
-4424.31
-4436.22
-4442.94
-4443.69
-4439.23
-4431.91
-4424.56
-4419.12
-4415.8
-4413.34
-4410.21
-4405.82
-4401.03
-4397.42
-4396.11
-4396.77
-4397.94
-4398.03
-4396.56
-4394.45
-4393.18
-4393.54
-4394.95
-4395.99
-4395.42
-4393.05
-4389.93
-4387.41
-4385.97
-4385.22
-4384.27
-4382.57
-4380.46
-4378.86
-4208.56
-4216.18
-4230.91
-4251.65
-4276.4
-4302.71
-4328.39
-4351.89
-4372.54
-4390.24
-4404.87
-4416.07
-4423.32
-4426.46
-4426.03
-4423.29
-4419.77
-4416.57
-4414.02
-4411.74
-4409.17
-4406.12
-4402.95
-4400.35
-4398.77
-4398.15
-4397.9
-4397.36
-4396.31
-4395.05
-4394.17
-4393.97
-4394.21
-4394.27
-4393.58
-4392.08
-4390.18
-4388.44
-4387.15
-4386.18
-4385.19
-4383.99
-4382.78
-4381.95
-4245.39
-4250.15
-4259.46
-4272.85
-4289.28
-4307.41
-4325.97
-4343.95
-4360.56
-4375.4
-4388.1
-4398.33
-4405.84
-4410.6
-4412.93
-4413.42
-4412.83
-4411.74
-4410.46
-4409.01
-4407.3
-4405.33
-4403.3
-4401.47
-4400.05
-4399.03
-4398.23
-4397.43
-4396.54
-4395.65
-4394.9
-4394.4
-4394.03
-4393.59
-4392.85
-4391.8
-4390.57
-4389.36
-4388.29
-4387.36
-4386.49
-4385.65
-4384.93
-4384.46
-4274
-4277.02
-4282.92
-4291.52
-4302.28
-4314.49
-4327.45
-4340.5
-4353.14
-4364.85
-4375.31
-4384.24
-4391.45
-4396.91
-4400.74
-4403.18
-4404.56
-4405.19
-4405.27
-4404.93
-4404.25
-4403.3
-4402.21
-4401.1
-4400.08
-4399.18
-4398.37
-4397.59
-4396.82
-4396.08
-4395.39
-4394.77
-4394.19
-4393.57
-4392.87
-4392.06
-4391.18
-4390.3
-4389.47
-4388.71
-4388.03
-4387.43
-4386.98
-4386.7
-4295.79
-4297.71
-4301.47
-4307
-4314.02
-4322.16
-4331.04
-4340.27
-4349.48
-4358.37
-4366.64
-4374.08
-4380.54
-4385.95
-4390.3
-4393.69
-4396.21
-4398.02
-4399.22
-4399.93
-4400.23
-4400.22
-4399.97
-4399.57
-4399.08
-4398.56
-4398.01
-4397.44
-4396.85
-4396.26
-4395.68
-4395.09
-4394.51
-4393.91
-4393.29
-4392.63
-4391.97
-4391.31
-4390.69
-4390.12
-4389.61
-4389.2
-4388.91
-4388.74
-4311.88
-4313.12
-4315.54
-4319.13
-4323.74
-4329.2
-4335.26
-4341.73
-4348.37
-4354.98
-4361.37
-4367.38
-4372.88
-4377.8
-4382.1
-4385.76
-4388.8
-4391.28
-4393.24
-4394.74
-4395.85
-4396.61
-4397.09
-4397.34
-4397.42
-4397.35
-4397.18
-4396.92
-4396.6
-4396.22
-4395.8
-4395.35
-4394.87
-4394.38
-4393.87
-4393.36
-4392.85
-4392.35
-4391.89
-4391.47
-4391.12
-4390.83
-4390.63
-4390.53
-4322.4
-4323.25
-4324.91
-4327.39
-4330.61
-4334.46
-4338.82
-4343.56
-4348.52
-4353.59
-4358.64
-4363.54
-4368.22
-4372.58
-4376.57
-4380.16
-4383.34
-4386.1
-4388.46
-4390.43
-4392.05
-4393.35
-4394.36
-4395.12
-4395.66
-4396.01
-4396.2
-4396.26
-4396.2
-4396.05
-4395.83
-4395.55
-4395.21
-4394.85
-4394.46
-4394.07
-4393.68
-4393.3
-4392.94
-4392.63
-4392.36
-4392.15
-4392.01
-4391.94
-4328.3
-4328.95
-4330.21
-4332.11
-4334.61
-4337.62
-4341.07
-4344.86
-4348.89
-4353.08
-4357.33
-4361.55
-4365.67
-4369.62
-4373.34
-4376.8
-4379.97
-4382.82
-4385.36
-4387.57
-4389.48
-4391.1
-4392.43
-4393.52
-4394.37
-4395.01
-4395.47
-4395.76
-4395.92
-4395.95
-4395.89
-4395.74
-4395.53
-4395.27
-4394.98
-4394.66
-4394.35
-4394.04
-4393.75
-4393.49
-4393.27
-4393.1
-4392.99
-4392.93
-4331.34
-4331.88
-4332.94
-4334.56
-4336.68
-4339.26
-4342.23
-4345.52
-4349.05
-4352.77
-4356.58
-4360.42
-4364.23
-4367.94
-4371.5
-4374.86
-4378.01
-4380.9
-4383.53
-4385.88
-4387.95
-4389.75
-4391.28
-4392.57
-4393.61
-4394.44
-4395.08
-4395.53
-4395.83
-4395.99
-4396.03
-4395.98
-4395.85
-4395.65
-4395.42
-4395.16
-4394.89
-4394.62
-4394.36
-4394.13
-4393.94
-4393.79
-4393.69
-4393.64
-4332.75
-4333.25
-4334.2
-4335.66
-4337.59
-4339.95
-4342.67
-4345.7
-4348.98
-4352.44
-4356.03
-4359.68
-4363.32
-4366.91
-4370.39
-4373.72
-4376.86
-4379.79
-4382.48
-4384.92
-4387.1
-4389.02
-4390.69
-4392.1
-4393.28
-4394.23
-4394.97
-4395.53
-4395.91
-4396.15
-4396.26
-4396.27
-4396.18
-4396.03
-4395.83
-4395.59
-4395.34
-4395.09
-4394.85
-4394.63
-4394.45
-4394.31
-4394.21
-4394.17
-4333.24
-4333.71
-4334.62
-4336
-4337.83
-4340.07
-4342.67
-4345.57
-4348.73
-4352.08
-4355.57
-4359.13
-4362.71
-4366.25
-4369.71
-4373.05
-4376.21
-4379.19
-4381.94
-4384.45
-4386.71
-4388.71
-4390.47
-4391.97
-4393.22
-4394.25
-4395.07
-4395.69
-4396.13
-4396.41
-4396.56
-4396.59
-4396.52
-4396.39
-4396.19
-4395.96
-4395.72
-4395.47
-4395.23
-4395.01
-4394.83
-4394.69
-4394.59
-4394.55
-4333.22
-4333.68
-4334.56
-4335.91
-4337.7
-4339.89
-4342.44
-4345.3
-4348.42
-4351.73
-4355.19
-4358.74
-4362.31
-4365.86
-4369.34
-4372.7
-4375.91
-4378.92
-4381.73
-4384.29
-4386.61
-4388.68
-4390.49
-4392.04
-4393.35
-4394.42
-4395.27
-4395.92
-4396.38
-4396.68
-4396.84
-4396.88
-4396.81
-4396.67
-4396.47
-4396.24
-4395.98
-4395.72
-4395.48
-4395.25
-4395.07
-4394.92
-4394.82
-4394.78
-4333.02
-4333.46
-4334.33
-4335.67
-4337.45
-4339.63
-4342.18
-4345.03
-4348.15
-4351.48
-4354.95
-4358.51
-4362.11
-4365.69
-4369.21
-4372.61
-4375.85
-4378.91
-4381.75
-4384.36
-4386.72
-4388.82
-4390.66
-4392.24
-4393.57
-4394.65
-4395.51
-4396.16
-4396.62
-4396.91
-4397.05
-4397.07
-4396.99
-4396.83
-4396.61
-4396.36
-4396.08
-4395.81
-4395.55
-4395.31
-4395.12
-4394.96
-4394.86
-4394.81
-4332.79
-4333.24
-4334.1
-4335.44
-4337.23
-4339.43
-4341.99
-4344.87
-4348.02
-4351.37
-4354.88
-4358.48
-4362.12
-4365.74
-4369.29
-4372.72
-4376
-4379.09
-4381.96
-4384.59
-4386.97
-4389.08
-4390.92
-4392.5
-4393.81
-4394.88
-4395.72
-4396.34
-4396.77
-4397.03
-4397.14
-4397.12
-4397.01
-4396.81
-4396.56
-4396.28
-4395.98
-4395.68
-4395.4
-4395.15
-4394.94
-4394.79
-4394.68
-4394.63
-4332.68
-4333.12
-4333.98
-4335.33
-4337.14
-4339.36
-4341.96
-4344.88
-4348.06
-4351.46
-4355.01
-4358.65
-4362.32
-4365.97
-4369.55
-4373.01
-4376.31
-4379.41
-4382.29
-4384.93
-4387.3
-4389.4
-4391.22
-4392.78
-4394.06
-4395.09
-4395.89
-4396.46
-4396.84
-4397.04
-4397.1
-4397.02
-4396.85
-4396.61
-4396.31
-4395.98
-4395.65
-4395.32
-4395.02
-4394.75
-4394.53
-4394.37
-4394.26
-4394.21
-4332.75
-4333.19
-4334.05
-4335.42
-4337.25
-4339.5
-4342.13
-4345.08
-4348.3
-4351.73
-4355.3
-4358.97
-4362.67
-4366.34
-4369.94
-4373.41
-4376.72
-4379.82
-4382.7
-4385.32
-4387.68
-4389.75
-4391.54
-4393.05
-4394.29
-4395.27
-4396.01
-4396.52
-4396.83
-4396.96
-4396.94
-4396.79
-4396.55
-4396.23
-4395.87
-4395.48
-4395.09
-4394.72
-4394.39
-4394.1
-4393.87
-4393.71
-4393.6
-4393.55
-4333.06
-4333.49
-4334.36
-4335.74
-4337.59
-4339.86
-4342.5
-4345.47
-4348.7
-4352.14
-4355.73
-4359.41
-4363.11
-4366.8
-4370.4
-4373.87
-4377.18
-4380.28
-4383.14
-4385.74
-4388.07
-4390.11
-4391.86
-4393.32
-4394.51
-4395.43
-4396.09
-4396.53
-4396.76
-4396.81
-4396.71
-4396.47
-4396.14
-4395.74
-4395.29
-4394.82
-4394.36
-4393.92
-4393.54
-4393.21
-4392.96
-4392.79
-4392.69
-4392.66
-4333.64
-4334.07
-4334.94
-4336.31
-4338.15
-4340.41
-4343.04
-4345.99
-4349.21
-4352.64
-4356.23
-4359.9
-4363.61
-4367.28
-4370.88
-4374.35
-4377.65
-4380.73
-4383.58
-4386.16
-4388.45
-4390.46
-4392.17
-4393.58
-4394.71
-4395.56
-4396.16
-4396.52
-4396.67
-4396.63
-4396.44
-4396.11
-4395.68
-4395.18
-4394.62
-4394.05
-4393.49
-4392.97
-4392.5
-4392.1
-4391.81
-4391.61
-4391.52
-4391.51
-4334.54
-4334.96
-4335.8
-4337.12
-4338.92
-4341.12
-4343.69
-4346.6
-4349.78
-4353.18
-4356.74
-4360.4
-4364.09
-4367.76
-4371.35
-4374.81
-4378.1
-4381.17
-4383.99
-4386.55
-4388.82
-4390.79
-4392.45
-4393.82
-4394.89
-4395.69
-4396.22
-4396.51
-4396.58
-4396.46
-4396.17
-4395.75
-4395.22
-4394.61
-4393.94
-4393.25
-4392.57
-4391.92
-4391.33
-4390.82
-4390.43
-4390.17
-4390.08
-4390.08
-4335.82
-4336.19
-4336.96
-4338.14
-4339.82
-4341.91
-4344.4
-4347.22
-4350.34
-4353.7
-4357.23
-4360.86
-4364.54
-4368.19
-4371.77
-4375.23
-4378.5
-4381.56
-4384.37
-4386.91
-4389.15
-4391.09
-4392.72
-4394.04
-4395.07
-4395.81
-4396.28
-4396.51
-4396.51
-4396.31
-4395.94
-4395.42
-4394.79
-4394.07
-4393.3
-4392.48
-4391.66
-4390.86
-4390.11
-4389.43
-4388.89
-4388.48
-4388.33
-4388.32
-4337.6
-4337.77
-4338.37
-4339.3
-4340.79
-4342.72
-4345.08
-4347.81
-4350.86
-4354.16
-4357.65
-4361.26
-4364.92
-4368.57
-4372.14
-4375.58
-4378.85
-4381.9
-4384.7
-4387.22
-4389.44
-4391.36
-4392.96
-4394.25
-4395.23
-4395.93
-4396.35
-4396.51
-4396.45
-4396.19
-4395.74
-4395.15
-4394.43
-4393.61
-4392.72
-4391.78
-4390.82
-4389.86
-4388.92
-4388.02
-4387.25
-4386.56
-4386.29
-4386.11
-4340.01
-4339.66
-4339.97
-4340.5
-4341.74
-4343.47
-4345.69
-4348.32
-4351.29
-4354.54
-4358
-4361.59
-4365.24
-4368.88
-4372.44
-4375.88
-4379.14
-4382.19
-4384.98
-4387.49
-4389.69
-4391.59
-4393.16
-4394.43
-4395.38
-4396.03
-4396.41
-4396.53
-4396.42
-4396.1
-4395.59
-4394.93
-4394.13
-4393.23
-4392.24
-4391.19
-4390.1
-4388.97
-4387.84
-4386.69
-4385.63
-4384.53
-4383.99
-4383.32
-4343.18
-4341.76
-4341.63
-4341.64
-4342.6
-4344.12
-4346.2
-4348.73
-4351.63
-4354.84
-4358.27
-4361.84
-4365.48
-4369.11
-4372.68
-4376.12
-4379.38
-4382.42
-4385.2
-4387.7
-4389.9
-4391.78
-4393.34
-4394.58
-4395.5
-4396.13
-4396.48
-4396.56
-4396.41
-4396.04
-4395.48
-4394.76
-4393.91
-4392.93
-4391.87
-4390.72
-4389.51
-4388.24
-4386.92
-4385.52
-4384.15
-4382.5
-4381.56
-4379.82
-4347.21
-4343.9
-4343.19
-4342.61
-4343.3
-4344.62
-4346.58
-4349.03
-4351.88
-4355.05
-4358.46
-4362.02
-4365.65
-4369.29
-4372.85
-4376.29
-4379.55
-4382.59
-4385.37
-4387.87
-4390.06
-4391.93
-4393.48
-4394.7
-4395.61
-4396.21
-4396.54
-4396.59
-4396.41
-4396.01
-4395.41
-4394.65
-4393.75
-4392.72
-4391.59
-4390.37
-4389.07
-4387.68
-4386.21
-4384.57
-4382.89
-4380.65
-4379.16
-4375.52
-4352.02
-4345.87
-4344.48
-4343.36
-4343.81
-4344.98
-4346.85
-4349.23
-4352.04
-4355.19
-4358.58
-4362.14
-4365.77
-4369.4
-4372.97
-4376.41
-4379.67
-4382.71
-4385.49
-4387.99
-4390.17
-4392.04
-4393.57
-4394.79
-4395.68
-4396.28
-4396.58
-4396.62
-4396.41
-4395.99
-4395.37
-4394.58
-4393.64
-4392.58
-4391.41
-4390.14
-4388.77
-4387.29
-4385.7
-4383.88
-4381.95
-4379.15
-4377.03
-4370.51
-4357.25
-4347.43
-4345.4
-4343.85
-4344.13
-4345.19
-4347
-4349.35
-4352.13
-4355.27
-4358.65
-4362.2
-4365.83
-4369.47
-4373.03
-4376.48
-4379.74
-4382.78
-4385.56
-4388.06
-4390.24
-4392.1
-4393.63
-4394.84
-4395.73
-4396.31
-4396.61
-4396.64
-4396.42
-4395.98
-4395.35
-4394.54
-4393.59
-4392.5
-4391.3
-4390
-4388.59
-4387.06
-4385.4
-4383.46
-4381.34
-4378.11
-4375.36
-4365.14
-4362.19
-4348.41
-4345.89
-4344.1
-4344.29
-4345.3
-4347.08
-4349.4
-4352.18
-4355.3
-4358.69
-4362.23
-4365.86
-4369.5
-4373.07
-4376.51
-4379.77
-4382.82
-4385.6
-4388.09
-4390.27
-4392.13
-4393.66
-4394.87
-4395.75
-4396.33
-4396.62
-4396.65
-4396.42
-4395.98
-4395.34
-4394.52
-4393.56
-4392.47
-4391.25
-4389.94
-4388.51
-4386.95
-4385.25
-4383.25
-4381.04
-4377.57
-4374.33
-4360.14
-4366.14
-4348.84
-4346.06
-4344.19
-4344.34
-4345.33
-4347.1
-4349.42
-4352.19
-4355.31
-4358.7
-4362.24
-4365.87
-4369.51
-4373.07
-4376.52
-4379.78
-4382.82
-4385.61
-4388.1
-4390.28
-4392.14
-4393.67
-4394.87
-4395.76
-4396.34
-4396.63
-4396.65
-4396.42
-4395.98
-4395.33
-4394.52
-4393.55
-4392.45
-4391.24
-4389.92
-4388.48
-4386.92
-4385.2
-4383.18
-4380.93
-4377.38
-4373.89
-4356.17
)
;

boundaryField
{
    movingWall
    {
        type            zeroGradient;
    }
    fixedWalls
    {
        type            zeroGradient;
    }
    frontAndBack
    {
        type            empty;
    }
    defaultFaces
    {
        type            empty;
    }
}


// ************************************************************************* //
