/*--------------------------------*- C++ -*----------------------------------*\
  =========                 |
  \\      /  F ield         | OpenFOAM: The Open Source CFD Toolbox
   \\    /   O peration     | Website:  https://openfoam.org
    \\  /    A nd           | Version:  7
     \\/     M anipulation  |
\*---------------------------------------------------------------------------*/
FoamFile
{
    version     2.0;
    format      ascii;
    class       volVectorField;
    location    "1.32";
    object      U;
}
// * * * * * * * * * * * * * * * * * * * * * * * * * * * * * * * * * * * * * //

dimensions      [0 1 -1 0 0 0 0];

internalField   nonuniform List<vector> 
1936
(
(-10.2172 2.50714 0)
(-62.7916 223.222 0)
(8.94218 438.363 0)
(24.0419 349.127 0)
(-2.63235 255.248 0)
(0.0600528 232.279 0)
(-21.7836 224.289 0)
(-28.4893 266.313 0)
(-32.7626 381.999 0)
(-1.91965 473.016 0)
(33.6316 396.71 0)
(32.0169 258.693 0)
(21.2306 199.938 0)
(6.21226 191.477 0)
(-11.581 209.432 0)
(-25.7114 294.952 0)
(-22.8188 417.893 0)
(11.0519 427.869 0)
(26.8918 300.438 0)
(9.32085 201.345 0)
(-9.99296 185.296 0)
(-22.7118 194.512 0)
(-40.6938 291.756 0)
(-16.4727 445.464 0)
(31.5613 431.724 0)
(35.3484 280.223 0)
(22.9241 191.827 0)
(8.75846 177.399 0)
(-10.4048 193.724 0)
(-26.8497 283.947 0)
(-27.1535 420.079 0)
(9.9808 432.861 0)
(32.5127 289.583 0)
(9.76852 189.45 0)
(-7.65755 181.093 0)
(-23.266 209.627 0)
(-38.0628 346.858 0)
(-1.00628 462.862 0)
(33.5056 367.323 0)
(19.827 217.899 0)
(-0.345593 176.274 0)
(-12.6585 177.275 0)
(-35.6778 259.022 0)
(-30.6944 437.055 0)
(-9.91239 6.23615 0)
(-70.2392 -2.42493 0)
(6.03672 -5.18769 0)
(26.1581 -0.426354 0)
(-4.066 1.68712 0)
(-2.31284 2.45043 0)
(-17.7119 2.62065 0)
(-24.5319 0.419023 0)
(-32.4881 -2.91931 0)
(-1.89718 -5.09394 0)
(34.6135 -3.12159 0)
(28.8406 0.300002 0)
(15.333 2.60439 0)
(6.36762 3.49919 0)
(-8.38689 2.76183 0)
(-25.6752 0.422116 0)
(-23.9767 -2.91006 0)
(11.8608 -3.79348 0)
(26.3582 -0.495859 0)
(5.94573 2.94484 0)
(-9.62408 3.76702 0)
(-16.3405 2.4404 0)
(-37.7045 -1.76235 0)
(-16.9626 -5.60957 0)
(33.1508 -4.06208 0)
(34.1342 -0.205018 0)
(16.3633 2.40537 0)
(7.60956 3.67802 0)
(-6.96647 3.12199 0)
(-27.4809 0.855383 0)
(-28.9489 -2.84423 0)
(10.5825 -4.51723 0)
(30.7704 -0.905623 0)
(5.43259 3.25934 0)
(-5.38823 3.91576 0)
(-17.628 1.81273 0)
(-37.8264 -2.56293 0)
(-0.926969 -4.94075 0)
(34.959 -2.02409 0)
(16.9608 1.98736 0)
(-2.93947 3.7558 0)
(-6.66609 3.3654 0)
(-32.5496 -0.0992293 0)
(-32.6858 -4.76664 0)
(0.0375912 13.2218 0)
(-69.561 -4.17353 0)
(-1.04226 -11.8911 0)
(27.9509 -1.3057 0)
(3.48697 3.66396 0)
(3.47475 4.70381 0)
(-10.7406 5.29409 0)
(-22.1965 1.52564 0)
(-33.119 -5.61915 0)
(-2.85622 -10.8865 0)
(34.8823 -6.32036 0)
(28.2119 1.39727 0)
(10.5011 5.43566 0)
(0.577283 6.72619 0)
(-13.2156 5.65469 0)
(-28.408 0.994942 0)
(-23.1573 -6.46783 0)
(15.2795 -8.20144 0)
(29.3605 -0.711324 0)
(10.0548 6.04191 0)
(-3.66408 7.13628 0)
(-11.1199 5.28187 0)
(-37.451 -2.66039 0)
(-21.1618 -11.6908 0)
(30.6755 -8.74439 0)
(34.9072 0.266044 0)
(13.1525 5.28454 0)
(1.77085 7.15786 0)
(-12.4262 6.38051 0)
(-30.7249 1.85135 0)
(-26.2453 -6.4846 0)
(16.3228 -9.62228 0)
(33.5481 -1.2767 0)
(7.15016 6.66727 0)
(-2.65148 7.50717 0)
(-16.0908 4.26203 0)
(-39.7888 -4.79859 0)
(-2.46944 -10.8204 0)
(36.4499 -4.24379 0)
(20.4898 4.48814 0)
(0.174484 7.27259 0)
(-4.16842 6.88085 0)
(-33.29 0.700149 0)
(-33.7687 -10.1579 0)
(10.2778 18.5798 0)
(-58.5345 -4.28486 0)
(-6.46521 -17.4235 0)
(19.5537 -3.31769 0)
(2.70986 4.79607 0)
(4.21357 6.49162 0)
(-2.6039 7.6806 0)
(-11.9083 3.00797 0)
(-23.9266 -7.55186 0)
(-2.7207 -15.6695 0)
(25.72 -8.89097 0)
(17.7439 2.76764 0)
(1.64768 8.18705 0)
(-2.91312 9.36168 0)
(-10.9178 7.73865 0)
(-21.0699 0.975863 0)
(-16.5604 -9.8555 0)
(13.4384 -11.9415 0)
(21.5176 -0.952282 0)
(7.36918 8.26395 0)
(1.04437 9.72986 0)
(-0.326697 8.01269 0)
(-24.4399 -2.59736 0)
(-18.3215 -16.329 0)
(20.9583 -12.8633 0)
(24.4694 0.768916 0)
(3.85855 8.17243 0)
(-2.50077 10.1887 0)
(-10.4103 8.79588 0)
(-23.3315 1.96826 0)
(-17.4697 -10.1478 0)
(15.5528 -13.7259 0)
(23.9604 -1.26392 0)
(2.75818 9.36413 0)
(1.13252 10.3679 0)
(-6.02775 6.58148 0)
(-29.6928 -6.29122 0)
(-2.8204 -15.7638 0)
(27.4897 -6.4103 0)
(14.5016 6.3555 0)
(-0.357039 10.1487 0)
(3.00197 9.95948 0)
(-21.4343 1.6412 0)
(-26.8847 -14.5106 0)
(17.3564 22.3271 0)
(-48.2476 -3.05387 0)
(-11.3715 -21.0269 0)
(11.2386 -5.88878 0)
(0.470415 4.93678 0)
(1.94983 7.52736 0)
(1.36366 9.26142 0)
(-4.39414 4.27025 0)
(-15.62 -8.67055 0)
(-2.55875 -18.8178 0)
(16.9878 -10.5502 0)
(9.49482 4.02342 0)
(-3.97786 10.388 0)
(-3.63153 11.1986 0)
(-8.29055 8.91459 0)
(-14.4336 0.420289 0)
(-10.4706 -12.499 0)
(11.384 -14.4514 0)
(14.6896 -1.26667 0)
(5.36392 9.42346 0)
(3.28757 11.3187 0)
(6.71374 10.032 0)
(-13.2221 -1.90515 0)
(-14.8577 -18.8981 0)
(11.7324 -15.7615 0)
(15.5846 1.15206 0)
(-2.77149 10.4755 0)
(-3.84415 12.3756 0)
(-7.32046 10.203 0)
(-16.4248 1.34942 0)
(-9.5053 -13.1232 0)
(13.9534 -16.216 0)
(15.3852 -1.03179 0)
(-0.672895 10.9505 0)
(3.40846 12.1082 0)
(0.964049 8.30412 0)
(-20.5829 -6.95269 0)
(-2.85972 -18.9763 0)
(19.3171 -8.15842 0)
(9.84387 7.42693 0)
(-1.90407 11.9893 0)
(7.98966 11.9789 0)
(-12.1833 2.4916 0)
(-20.3504 -17.1399 0)
(21.1426 24.6044 0)
(-38.1902 -0.710913 0)
(-14.7403 -22.4643 0)
(3.10171 -8.57525 0)
(-4.11796 4.27736 0)
(-2.58722 7.7829 0)
(1.62575 9.69587 0)
(0.328082 4.90874 0)
(-8.81947 -9.03063 0)
(-2.38674 -20.1721 0)
(9.12919 -11.2876 0)
(3.07133 4.91516 0)
(-6.76186 11.6948 0)
(-2.1187 12.155 0)
(-3.83527 9.30868 0)
(-8.20583 -0.430818 0)
(-5.35474 -14.2193 0)
(8.98329 -15.6345 0)
(8.7092 -1.57652 0)
(2.31985 9.6781 0)
(3.28178 11.9315 0)
(10.2837 11.063 0)
(-4.43473 -0.837145 0)
(-10.8518 -19.2969 0)
(4.08508 -17.2074 0)
(8.06758 1.27998 0)
(-6.95314 11.7926 0)
(-3.00799 13.48 0)
(-2.08593 10.6666 0)
(-9.80442 0.317865 0)
(-3.22692 -15.115 0)
(11.3404 -16.9947 0)
(7.94776 -0.586087 0)
(-4.05449 11.424 0)
(4.24849 12.7122 0)
(5.46374 9.24159 0)
(-12.7869 -6.85854 0)
(-2.47711 -20.3467 0)
(12.0829 -9.35134 0)
(5.2576 7.76542 0)
(-3.62855 12.7803 0)
(10.5226 12.8194 0)
(-5.14289 3.15759 0)
(-14.3991 -18.0486 0)
(21.5174 25.5738 0)
(-28.618 2.36434 0)
(-15.6772 -21.6407 0)
(-4.04143 -10.708 0)
(-9.5701 2.97813 0)
(-6.9951 7.20058 0)
(-0.0184224 8.82595 0)
(2.69184 4.6411 0)
(-3.85722 -8.79692 0)
(-2.24647 -19.749 0)
(2.44921 -11.125 0)
(-1.85368 5.1941 0)
(-7.38753 11.8492 0)
(0.0262556 12.103 0)
(1.44113 8.9804 0)
(-2.71973 -1.20941 0)
(-1.41311 -14.785 0)
(6.21554 -15.4987 0)
(3.70775 -1.65094 0)
(-1.46078 9.18401 0)
(2.12762 11.5414 0)
(10.8829 10.9737 0)
(1.54178 0.275051 0)
(-6.62823 -17.767 0)
(-1.27429 -17.0266 0)
(2.04545 1.04562 0)
(-8.74062 11.8669 0)
(-1.20823 13.2961 0)
(3.43264 10.2625 0)
(-4.03846 -0.683561 0)
(0.984622 -15.7757 0)
(7.90241 -16.1849 0)
(2.07923 0.0426353 0)
(-6.54403 10.8951 0)
(3.79844 12.1892 0)
(7.83523 9.23526 0)
(-6.45037 -6.16737 0)
(-1.6492 -19.8987 0)
(6.01768 -9.7712 0)
(0.63216 7.42084 0)
(-4.45663 12.5404 0)
(10.2889 12.5238 0)
(-0.119679 3.45072 0)
(-9.12721 -17.3421 0)
(20.1216 25.3082 0)
(-18.5708 5.63696 0)
(-13.4641 -18.6744 0)
(-8.73767 -11.6002 0)
(-13.3438 1.20734 0)
(-9.22893 5.69285 0)
(-1.50078 6.86052 0)
(3.47472 3.49735 0)
(-0.675928 -8.18999 0)
(-2.15674 -17.7536 0)
(-2.65442 -10.1448 0)
(-5.40612 4.68495 0)
(-6.87634 10.8335 0)
(1.61491 11.0384 0)
(5.45561 8.05725 0)
(1.48961 -1.72546 0)
(1.27776 -14.059 0)
(3.25578 -14.1475 0)
(-0.104768 -1.47075 0)
(-4.53639 8.13202 0)
(0.773029 10.2764 0)
(9.59984 9.86782 0)
(4.90647 1.08999 0)
(-2.68624 -14.8007 0)
(-4.14168 -15.2991 0)
(-2.26374 0.514637 0)
(-8.79426 10.7269 0)
(0.308392 11.9118 0)
(6.93769 9.15599 0)
(0.324343 -1.40333 0)
(3.17149 -14.9613 0)
(4.08237 -14.0892 0)
(-2.02453 0.624474 0)
(-7.29753 9.59481 0)
(2.79289 10.7093 0)
(8.63984 8.37779 0)
(-1.55325 -5.19063 0)
(-0.557937 -17.8159 0)
(1.42313 -9.25032 0)
(-3.47849 6.50399 0)
(-4.32964 11.358 0)
(8.43573 11.2349 0)
(3.15562 3.2575 0)
(-4.62052 -15.2572 0)
(17.6438 23.5265 0)
(-7.19147 8.46172 0)
(-8.15688 -13.8661 0)
(-9.49118 -10.8888 0)
(-13.2885 -0.702829 0)
(-8.59559 3.43555 0)
(-1.75507 4.31921 0)
(3.38451 1.79643 0)
(1.03178 -7.30855 0)
(-2.08269 -14.6261 0)
(-5.75471 -8.54691 0)
(-7.4534 3.50264 0)
(-6.09477 8.85968 0)
(2.0559 9.12795 0)
(7.05213 6.64829 0)
(4.10535 -1.90209 0)
(2.63805 -12.1434 0)
(0.575998 -11.8109 0)
(-2.69021 -1.20977 0)
(-5.93029 6.6832 0)
(-0.122536 8.41006 0)
(7.63209 8.08012 0)
(6.19659 1.39648 0)
(0.338342 -11.064 0)
(-4.823 -12.3606 0)
(-4.71834 -0.0714353 0)
(-7.84014 8.6953 0)
(0.887805 9.67581 0)
(7.78444 7.49583 0)
(3.16033 -1.75368 0)
(3.70153 -12.8106 0)
(0.732094 -11.1733 0)
(-4.37265 0.866127 0)
(-6.57017 7.77629 0)
(1.97953 8.60356 0)
(8.24572 6.88289 0)
(1.76326 -4.13403 0)
(0.3796 -14.4848 0)
(-1.44721 -7.80492 0)
(-6.06863 5.13563 0)
(-3.64263 9.43799 0)
(6.4055 9.25812 0)
(4.97578 2.61622 0)
(-1.12862 -12.1985 0)
(13.2589 20.0856 0)
(2.65155 10.0823 0)
(-1.48803 -8.03735 0)
(-6.21163 -8.67145 0)
(-9.51852 -2.21381 0)
(-6.07879 1.04017 0)
(-1.11696 1.82129 0)
(2.90032 0.042422 0)
(1.70611 -6.2032 0)
(-1.9063 -11.0057 0)
(-6.65682 -6.62035 0)
(-7.77652 2.03489 0)
(-5.18362 6.3417 0)
(1.64889 6.68435 0)
(6.5838 4.87511 0)
(5.09255 -1.78287 0)
(2.80007 -9.38133 0)
(-1.28244 -8.90632 0)
(-4.14584 -0.968867 0)
(-5.76381 4.97602 0)
(-0.506608 6.23319 0)
(5.58965 6.02294 0)
(5.9267 1.28086 0)
(1.93646 -7.30985 0)
(-4.07609 -8.77485 0)
(-5.39751 -0.429933 0)
(-6.27697 6.22163 0)
(0.824504 7.0446 0)
(6.84516 5.47621 0)
(4.51811 -1.72515 0)
(3.10647 -9.73085 0)
(-1.47057 -8.0108 0)
(-5.15624 0.714548 0)
(-5.17558 5.70634 0)
(1.45736 6.26428 0)
(6.91825 4.98744 0)
(3.41862 -3.0605 0)
(0.801754 -10.5197 0)
(-2.76329 -5.76855 0)
(-6.46925 3.59326 0)
(-2.78007 7.06694 0)
(4.72561 6.93966 0)
(5.46347 1.74917 0)
(0.981958 -8.67104 0)
(7.94409 15.6545 0)
(7.15963 10.0432 0)
(3.72798 -2.69767 0)
(-1.00129 -5.5666 0)
(-4.22167 -2.74935 0)
(-3.06454 -0.713086 0)
(-0.142245 -0.144834 0)
(2.44887 -1.30861 0)
(1.80533 -4.98201 0)
(-1.49966 -7.55619 0)
(-5.73574 -4.7296 0)
(-6.52307 0.688791 0)
(-3.97193 3.76359 0)
(1.06161 4.17953 0)
(5.02576 3.02455 0)
(4.64036 -1.46165 0)
(2.16752 -6.35185 0)
(-2.0155 -5.94606 0)
(-4.36349 -0.779962 0)
(-4.64124 3.21645 0)
(-0.617255 4.1112 0)
(3.65224 4.0014 0)
(4.59983 1.00481 0)
(2.13677 -4.12089 0)
(-2.74262 -5.28792 0)
(-4.61563 -0.481688 0)
(-4.35704 3.81588 0)
(0.643124 4.50179 0)
(5.1043 3.43795 0)
(4.42513 -1.39775 0)
(2.10721 -6.39531 0)
(-2.23369 -5.09753 0)
(-4.6254 0.372256 0)
(-3.65489 3.64042 0)
(1.01056 4.04494 0)
(4.99098 3.07487 0)
(3.53862 -2.05333 0)
(0.735773 -6.66026 0)
(-2.87773 -3.66689 0)
(-5.14796 2.20295 0)
(-1.92194 4.63752 0)
(3.24655 4.60614 0)
(4.68987 1.00856 0)
(1.65165 -5.28165 0)
(4.07652 11.2938 0)
(6.85458 8.65768 0)
(5.85194 0.824284 0)
(3.0043 -2.53578 0)
(0.285563 -2.24255 0)
(-0.180413 -1.52719 0)
(0.980017 -1.38872 0)
(2.23404 -2.07305 0)
(1.68392 -3.79503 0)
(-0.851452 -4.78413 0)
(-3.83947 -3.17586 0)
(-4.42713 -0.285573 0)
(-2.62268 1.59801 0)
(0.597529 2.04925 0)
(3.24621 1.44937 0)
(3.34889 -1.05338 0)
(1.36942 -3.68626 0)
(-1.76419 -3.43541 0)
(-3.46934 -0.620806 0)
(-3.17792 1.70649 0)
(-0.608649 2.36074 0)
(2.01183 2.32123 0)
(2.87958 0.741084 0)
(1.50717 -1.82727 0)
(-1.54701 -2.56349 0)
(-3.0868 -0.342851 0)
(-2.52633 1.91903 0)
(0.495957 2.40922 0)
(3.25257 1.7689 0)
(3.26053 -0.924831 0)
(1.22005 -3.52776 0)
(-1.89286 -2.80782 0)
(-3.29674 0.0532554 0)
(-2.2826 1.90956 0)
(0.578089 2.19816 0)
(3.01291 1.54592 0)
(2.5852 -1.20735 0)
(0.378729 -3.55 0)
(-2.27571 -1.96379 0)
(-3.30191 1.15818 0)
(-1.2251 2.61975 0)
(1.88001 2.62851 0)
(3.14785 0.548049 0)
(1.37801 -2.60227 0)
(2.11474 7.81659 0)
(4.58243 6.66774 0)
(5.18858 2.35252 0)
(4.1298 -0.405216 0)
(2.47585 -1.28057 0)
(1.71982 -1.59462 0)
(1.87322 -1.87675 0)
(2.11255 -2.22929 0)
(1.46838 -2.76211 0)
(-0.177074 -2.89063 0)
(-1.91573 -2.09027 0)
(-2.36354 -0.824585 0)
(-1.4252 0.135524 0)
(0.327118 0.540312 0)
(1.82445 0.368026 0)
(1.99261 -0.69177 0)
(0.782368 -1.79678 0)
(-1.0709 -1.67999 0)
(-2.12276 -0.455951 0)
(-1.86575 0.678909 0)
(-0.506682 1.12415 0)
(0.890884 1.17613 0)
(1.44727 0.54895 0)
(0.800175 -0.473486 0)
(-0.70148 -0.878132 0)
(-1.57801 -0.168748 0)
(-1.18295 0.713415 0)
(0.346518 0.981037 0)
(1.75314 0.684332 0)
(1.85157 -0.492969 0)
(0.598926 -1.57187 0)
(-1.15684 -1.2969 0)
(-1.89227 -0.125921 0)
(-1.24718 0.73047 0)
(0.245369 0.911353 0)
(1.47963 0.575539 0)
(1.35785 -0.594437 0)
(0.0362493 -1.52294 0)
(-1.43757 -0.863958 0)
(-1.79375 0.512148 0)
(-0.723765 1.25741 0)
(0.857561 1.25496 0)
(1.61441 0.32545 0)
(0.797743 -0.910811 0)
(1.15692 5.4681 0)
(2.55708 4.84198 0)
(3.39855 2.56486 0)
(3.26195 0.639887 0)
(2.59219 -0.491395 0)
(2.11538 -1.24784 0)
(1.92389 -1.73138 0)
(1.69585 -1.93554 0)
(1.12916 -1.95329 0)
(0.248715 -1.78849 0)
(-0.584991 -1.4448 0)
(-0.878488 -1.0272 0)
(-0.520299 -0.652011 0)
(0.239362 -0.357355 0)
(0.905564 -0.248302 0)
(1.0056 -0.46218 0)
(0.432806 -0.739659 0)
(-0.453141 -0.675084 0)
(-1.00166 -0.270357 0)
(-0.918158 0.15731 0)
(-0.332753 0.409838 0)
(0.307732 0.527743 0)
(0.603622 0.418215 0)
(0.384152 0.133508 0)
(-0.180458 -0.0827592 0)
(-0.548372 -0.0430568 0)
(-0.387958 0.123744 0)
(0.225354 0.210957 0)
(0.797507 0.141111 0)
(0.832985 -0.203856 0)
(0.247331 -0.530377 0)
(-0.542334 -0.484548 0)
(-0.882603 -0.166657 0)
(-0.598282 0.105424 0)
(0.0428041 0.196168 0)
(0.547496 0.102666 0)
(0.477456 -0.234165 0)
(-0.136432 -0.487147 0)
(-0.755427 -0.276881 0)
(-0.848951 0.193404 0)
(-0.396648 0.492788 0)
(0.268763 0.509122 0)
(0.598304 0.234199 0)
(0.335522 -0.096661 0)
(0.674238 3.92536 0)
(1.49071 3.56814 0)
(2.03676 2.25293 0)
(2.13797 0.975378 0)
(1.90953 -0.0524632 0)
(1.622 -0.83656 0)
(1.37062 -1.32533 0)
(1.07956 -1.47802 0)
(0.717392 -1.39725 0)
(0.331289 -1.2405 0)
(0.00951398 -1.12312 0)
(-0.13639 -1.04882 0)
(-0.0578448 -0.946367 0)
(0.176605 -0.765264 0)
(0.384698 -0.526031 0)
(0.40123 -0.355928 0)
(0.196881 -0.272011 0)
(-0.115016 -0.202715 0)
(-0.341882 -0.110659 0)
(-0.351038 -0.0152225 0)
(-0.154428 0.0958584 0)
(0.0959155 0.224325 0)
(0.239646 0.313238 0)
(0.216542 0.29608 0)
(0.0809502 0.178174 0)
(-0.0268159 0.0313368 0)
(0.00455969 -0.0637822 0)
(0.167658 -0.0778108 0)
(0.323523 -0.0466352 0)
(0.312324 -0.0490605 0)
(0.101217 -0.0933042 0)
(-0.171014 -0.12525 0)
(-0.309028 -0.134773 0)
(-0.237844 -0.125744 0)
(-0.041614 -0.093583 0)
(0.103195 -0.0588091 0)
(0.0611426 -0.0607122 0)
(-0.150106 -0.0706149 0)
(-0.346058 -0.017971 0)
(-0.361962 0.0744666 0)
(-0.205437 0.153825 0)
(0.0123895 0.187158 0)
(0.120726 0.18411 0)
(0.0972082 0.162095 0)
(0.417356 2.83717 0)
(1.01069 2.69427 0)
(1.36059 1.88665 0)
(1.44553 1.01639 0)
(1.34319 0.198979 0)
(1.13043 -0.462631 0)
(0.876761 -0.888033 0)
(0.629888 -1.05558 0)
(0.410916 -1.04486 0)
(0.238414 -0.987259 0)
(0.115454 -0.973067 0)
(0.0406738 -0.993297 0)
(0.0152234 -0.966563 0)
(0.0323054 -0.827481 0)
(0.0556671 -0.585164 0)
(0.0509782 -0.326797 0)
(0.0129609 -0.134697 0)
(-0.0410125 -0.0485731 0)
(-0.0864589 -0.0409527 0)
(-0.0931861 -0.0469414 0)
(-0.0469028 -0.00718418 0)
(0.0302279 0.0948556 0)
(0.103928 0.210238 0)
(0.149122 0.261299 0)
(0.160057 0.200783 0)
(0.149209 0.0634579 0)
(0.141092 -0.0660091 0)
(0.14658 -0.110351 0)
(0.153684 -0.0635613 0)
(0.134303 0.0106322 0)
(0.0735971 0.0404867 0)
(-0.000366301 -6.27839e-05 0)
(-0.0492088 -0.0877302 0)
(-0.0562671 -0.152958 0)
(-0.0391364 -0.149588 0)
(-0.0299234 -0.0809949 0)
(-0.0536499 0.00205318 0)
(-0.107962 0.049117 0)
(-0.147847 0.0505052 0)
(-0.142378 0.041484 0)
(-0.104151 0.0461465 0)
(-0.0526587 0.0778536 0)
(-0.0228685 0.139562 0)
(0.0131775 0.177468 0)
(0.255872 2.02714 0)
(0.698155 2.02471 0)
(0.977443 1.5395 0)
(1.07642 0.962283 0)
(1.03016 0.376122 0)
(0.885514 -0.141615 0)
(0.687209 -0.506686 0)
(0.482639 -0.707365 0)
(0.31117 -0.788677 0)
(0.180863 -0.822507 0)
(0.0808538 -0.857431 0)
(0.000259551 -0.888187 0)
(-0.0685506 -0.867817 0)
(-0.121367 -0.756102 0)
(-0.149109 -0.560857 0)
(-0.150926 -0.339657 0)
(-0.131006 -0.16208 0)
(-0.10195 -0.0689791 0)
(-0.0760132 -0.0517181 0)
(-0.0566297 -0.0589238 0)
(-0.0370742 -0.0371776 0)
(-0.00743806 0.0325912 0)
(0.0364586 0.119364 0)
(0.0885652 0.16773 0)
(0.131151 0.143144 0)
(0.148438 0.0615135 0)
(0.140721 -0.0232733 0)
(0.120416 -0.0586541 0)
(0.100697 -0.0297329 0)
(0.0867356 0.0224154 0)
(0.0758667 0.0472202 0)
(0.0611572 0.018241 0)
(0.0410656 -0.0477209 0)
(0.0185689 -0.103379 0)
(-0.00651938 -0.108082 0)
(-0.0290017 -0.057466 0)
(-0.0442494 0.00915963 0)
(-0.0553608 0.0505913 0)
(-0.0581432 0.0533089 0)
(-0.0528251 0.037389 0)
(-0.0476293 0.0321777 0)
(-0.0417945 0.0579648 0)
(-0.0344942 0.106876 0)
(-0.00223403 0.134244 0)
(0.151894 1.42634 0)
(0.459629 1.4844 0)
(0.681728 1.20657 0)
(0.802681 0.84666 0)
(0.821236 0.45534 0)
(0.755001 0.0877987 0)
(0.635219 -0.211594 0)
(0.491452 -0.419907 0)
(0.349059 -0.553917 0)
(0.22048 -0.641578 0)
(0.105132 -0.70277 0)
(0.00034709 -0.734571 0)
(-0.0922929 -0.719011 0)
(-0.165742 -0.640578 0)
(-0.21018 -0.508034 0)
(-0.220438 -0.355312 0)
(-0.201181 -0.223723 0)
(-0.166143 -0.139424 0)
(-0.130306 -0.100653 0)
(-0.101648 -0.0821607 0)
(-0.0787231 -0.0551592 0)
(-0.0539437 -0.00786944 0)
(-0.0210247 0.0461046 0)
(0.0185169 0.0808967 0)
(0.055417 0.0781497 0)
(0.0778218 0.0443375 0)
(0.0812059 0.00516761 0)
(0.0723565 -0.0125813 0)
(0.062165 -0.000981717 0)
(0.0582648 0.0230714 0)
(0.0600587 0.0336596 0)
(0.060116 0.0164941 0)
(0.0518821 -0.0184756 0)
(0.0343769 -0.0479725 0)
(0.0117664 -0.051171 0)
(-0.00809804 -0.0250432 0)
(-0.0190715 0.0120609 0)
(-0.0216727 0.0378004 0)
(-0.0195675 0.0449654 0)
(-0.0174948 0.0410452 0)
(-0.0188519 0.0424835 0)
(-0.0203436 0.0592495 0)
(-0.0191846 0.0866998 0)
(-0.00179341 0.0950817 0)
(0.0896006 0.987826 0)
(0.293943 1.05662 0)
(0.454178 0.901804 0)
(0.566257 0.689215 0)
(0.619188 0.44497 0)
(0.613415 0.199738 0)
(0.562503 -0.0208706 0)
(0.481379 -0.201247 0)
(0.384195 -0.338958 0)
(0.281135 -0.441225 0)
(0.176835 -0.51242 0)
(0.0755737 -0.550851 0)
(-0.016794 -0.550794 0)
(-0.0926454 -0.509916 0)
(-0.145069 -0.43533 0)
(-0.171429 -0.344945 0)
(-0.174333 -0.259534 0)
(-0.161453 -0.193353 0)
(-0.142452 -0.148192 0)
(-0.123486 -0.115259 0)
(-0.105458 -0.0832048 0)
(-0.085878 -0.0468956 0)
(-0.0625187 -0.0109533 0)
(-0.036527 0.0148022 0)
(-0.0121866 0.0240781 0)
(0.00564897 0.0185767 0)
(0.0149421 0.00829586 0)
(0.0174553 0.00377483 0)
(0.0178438 0.00878728 0)
(0.0204865 0.0178013 0)
(0.0251636 0.0212409 0)
(0.0279771 0.0137986 0)
(0.0253708 -0.000802629 0)
(0.0166627 -0.0127046 0)
(0.00461035 -0.0132143 0)
(-0.00609485 -0.00109647 0)
(-0.0120862 0.0168594 0)
(-0.0133207 0.0317927 0)
(-0.012056 0.0396852 0)
(-0.0109209 0.0432715 0)
(-0.011221 0.048505 0)
(-0.0111868 0.0589718 0)
(-0.0102712 0.0721951 0)
(-0.00104707 0.0713483 0)
(0.0532789 0.670629 0)
(0.185407 0.730002 0)
(0.292684 0.644161 0)
(0.378225 0.5226 0)
(0.433101 0.377392 0)
(0.453597 0.223563 0)
(0.443094 0.0748744 0)
(0.409046 -0.0594211 0)
(0.357331 -0.172383 0)
(0.292624 -0.262969 0)
(0.220573 -0.330203 0)
(0.14623 -0.372338 0)
(0.0749479 -0.387764 0)
(0.012226 -0.377143 0)
(-0.0373832 -0.34524 0)
(-0.0714168 -0.300415 0)
(-0.0906167 -0.252096 0)
(-0.0984772 -0.207619 0)
(-0.0991722 -0.169665 0)
(-0.0959192 -0.136814 0)
(-0.0901336 -0.106228 0)
(-0.0817709 -0.0765936 0)
(-0.0706192 -0.0493907 0)
(-0.0574386 -0.0276739 0)
(-0.044141 -0.0135436 0)
(-0.0328929 -0.00632814 0)
(-0.0248084 -0.00286842 0)
(-0.019429 0.000371602 0)
(-0.0152971 0.00492492 0)
(-0.0112514 0.00960494 0)
(-0.00739314 0.0119548 0)
(-0.00494078 0.0106413 0)
(-0.00517525 0.00710094 0)
(-0.00812252 0.00458077 0)
(-0.0125305 0.00614406 0)
(-0.0165018 0.0122797 0)
(-0.0185656 0.0210446 0)
(-0.0185749 0.0295992 0)
(-0.0172351 0.0363584 0)
(-0.0153963 0.0417824 0)
(-0.0134317 0.0473906 0)
(-0.0107649 0.0540185 0)
(-0.00779046 0.0605654 0)
(-0.00129324 0.0565055 0)
(0.03192 0.442862 0)
(0.115628 0.487793 0)
(0.184696 0.440438 0)
(0.24402 0.372327 0)
(0.287983 0.288902 0)
(0.313639 0.197099 0)
(0.321038 0.103773 0)
(0.311827 0.0148317 0)
(0.288706 -0.06611 0)
(0.255058 -0.134784 0)
(0.214183 -0.189472 0)
(0.169075 -0.228506 0)
(0.12317 -0.251125 0)
(0.0798536 -0.2579 0)
(0.0419021 -0.25105 0)
(0.0110365 -0.23418 0)
(-0.0123108 -0.211402 0)
(-0.0288806 -0.186205 0)
(-0.0400199 -0.160768 0)
(-0.0470222 -0.135945 0)
(-0.0507576 -0.111881 0)
(-0.0516803 -0.0889041 0)
(-0.050137 -0.0677849 0)
(-0.0467039 -0.0495689 0)
(-0.0422601 -0.0349537 0)
(-0.0377351 -0.0238334 0)
(-0.0337327 -0.0153709 0)
(-0.0303665 -0.00853275 0)
(-0.0274477 -0.00270823 0)
(-0.0248154 0.00209955 0)
(-0.0226411 0.00560042 0)
(-0.0212151 0.00774854 0)
(-0.0207398 0.00909793 0)
(-0.0211955 0.0106552 0)
(-0.0220908 0.0132669 0)
(-0.0227502 0.0172745 0)
(-0.0226835 0.022255 0)
(-0.021721 0.0274792 0)
(-0.0199489 0.0324213 0)
(-0.0175345 0.0369972 0)
(-0.014545 0.0413674 0)
(-0.0108874 0.0455372 0)
(-0.00693772 0.0490247 0)
(-0.00161113 0.0443864 0)
(0.0192843 0.280675 0)
(0.0715454 0.311698 0)
(0.115206 0.285998 0)
(0.154496 0.248704 0)
(0.186198 0.202248 0)
(0.208355 0.149781 0)
(0.220473 0.094558 0)
(0.222796 0.0396814 0)
(0.216338 -0.0121333 0)
(0.202242 -0.0587149 0)
(0.182077 -0.0980096 0)
(0.157842 -0.128846 0)
(0.131368 -0.150561 0)
(0.104525 -0.163187 0)
(0.0789365 -0.167484 0)
(0.0557805 -0.164796 0)
(0.0357208 -0.156774 0)
(0.0189496 -0.145034 0)
(0.00536272 -0.130928 0)
(-0.00526215 -0.115452 0)
(-0.0132882 -0.0993687 0)
(-0.0190242 -0.0833429 0)
(-0.0227149 -0.0679849 0)
(-0.0247611 -0.053912 0)
(-0.0255888 -0.0414844 0)
(-0.0256075 -0.0308231 0)
(-0.0251763 -0.0218094 0)
(-0.0245131 -0.0142065 0)
(-0.0237298 -0.0078001 0)
(-0.0229086 -0.00245434 0)
(-0.0221266 0.00191481 0)
(-0.0215227 0.00549579 0)
(-0.021162 0.00853144 0)
(-0.020986 0.0113551 0)
(-0.0208416 0.0142583 0)
(-0.0204912 0.0173892 0)
(-0.0197642 0.0207166 0)
(-0.018564 0.0241022 0)
(-0.0168549 0.0273998 0)
(-0.0146432 0.030511 0)
(-0.0119371 0.0333624 0)
(-0.00879058 0.0358432 0)
(-0.00539209 0.0377325 0)
(-0.0014287 0.0335904 0)
(0.0122257 0.17018 0)
(0.046072 0.189864 0)
(0.0745823 0.176043 0)
(0.10107 0.155875 0)
(0.123719 0.130459 0)
(0.141216 0.101244 0)
(0.153133 0.069789 0)
(0.159326 0.0376778 0)
(0.159935 0.00641176 0)
(0.155502 -0.022711 0)
(0.146843 -0.0483804 0)
(0.134852 -0.069839 0)
(0.120481 -0.0865296 0)
(0.104723 -0.0982398 0)
(0.0885115 -0.105101 0)
(0.0726314 -0.107535 0)
(0.0576702 -0.106159 0)
(0.044019 -0.101684 0)
(0.0319037 -0.0948268 0)
(0.021422 -0.0862541 0)
(0.012593 -0.0765935 0)
(0.00542212 -0.0663579 0)
(-0.00032903 -0.0560534 0)
(-0.00485413 -0.0460849 0)
(-0.00822075 -0.0367601 0)
(-0.0106757 -0.0282643 0)
(-0.0124391 -0.0206764 0)
(-0.0136718 -0.0139986 0)
(-0.0144967 -0.00818975 0)
(-0.0150202 -0.00318542 0)
(-0.0153264 0.00109743 0)
(-0.0154732 0.00474799 0)
(-0.0155095 0.00791059 0)
(-0.0154438 0.010724 0)
(-0.0152359 0.0133097 0)
(-0.014825 0.0157518 0)
(-0.014151 0.0180879 0)
(-0.0131748 0.0203156 0)
(-0.0118742 0.0224079 0)
(-0.0102434 0.0243243 0)
(-0.00828824 0.026013 0)
(-0.00608685 0.0274067 0)
(-0.00371182 0.0284135 0)
(-0.00102899 0.0250461 0)
(0.00854309 0.10087 0)
(0.0326376 0.112627 0)
(0.0529428 0.104902 0)
(0.0722265 0.0935974 0)
(0.0894078 0.0792487 0)
(0.103485 0.0625791 0)
(0.114132 0.0444009 0)
(0.121181 0.0255638 0)
(0.124625 0.00690574 0)
(0.124709 -0.0107943 0)
(0.121701 -0.0269427 0)
(0.115999 -0.0408885 0)
(0.108216 -0.0522433 0)
(0.0989044 -0.060791 0)
(0.0886117 -0.0664879 0)
(0.0778494 -0.0694474 0)
(0.0670583 -0.069908 0)
(0.0565951 -0.0681949 0)
(0.046731 -0.0646821 0)
(0.0376576 -0.0597629 0)
(0.0294943 -0.0538266 0)
(0.0223014 -0.047243 0)
(0.0160771 -0.0403781 0)
(0.0107747 -0.0334703 0)
(0.00633171 -0.0267837 0)
(0.00266058 -0.02049 0)
(-0.000345822 -0.0147001 0)
(-0.00278467 -0.00947454 0)
(-0.00471633 -0.00483332 0)
(-0.00622496 -0.000766126 0)
(-0.00739127 0.00276202 0)
(-0.00826263 0.00580486 0)
(-0.00888794 0.00842798 0)
(-0.00924253 0.0107033 0)
(-0.00934957 0.0126996 0)
(-0.00926184 0.0144735 0)
(-0.00895259 0.0160666 0)
(-0.00840278 0.0175033 0)
(-0.00761008 0.0187925 0)
(-0.00658136 0.019929 0)
(-0.00533109 0.0208962 0)
(-0.00393969 0.0216669 0)
(-0.00243301 0.0222065 0)
(-0.000676915 0.0194661 0)
(0.00654726 0.0571169 0)
(0.025399 0.0635899 0)
(0.0411746 0.0590789 0)
(0.0564223 0.0524724 0)
(0.0704036 0.0440522 0)
(0.0822773 0.0342239 0)
(0.0917989 0.0234545 0)
(0.0988229 0.0122384 0)
(0.103296 0.00107029 0)
(0.105248 -0.00963368 0)
(0.104858 -0.0194587 0)
(0.1024 -0.0280304 0)
(0.0981591 -0.0350894 0)
(0.0924581 -0.0404723 0)
(0.0856509 -0.0441128 0)
(0.0780873 -0.0460369 0)
(0.070093 -0.0463506 0)
(0.0619565 -0.0452214 0)
(0.0539231 -0.0428605 0)
(0.0461905 -0.0395052 0)
(0.0389067 -0.0354031 0)
(0.0321738 -0.0307981 0)
(0.0260564 -0.0259197 0)
(0.0205777 -0.0209704 0)
(0.0157363 -0.016116 0)
(0.0115144 -0.0114981 0)
(0.00787367 -0.00721302 0)
(0.00477358 -0.00332912 0)
(0.00217124 0.0001401 0)
(2.07018e-05 0.00319564 0)
(-0.00173414 0.00583124 0)
(-0.00314162 0.00807397 0)
(-0.00421143 0.00997007 0)
(-0.00497613 0.0115674 0)
(-0.00548351 0.0129145 0)
(-0.00574318 0.0140562 0)
(-0.00575797 0.0150309 0)
(-0.00553784 0.0158682 0)
(-0.00509776 0.0165886 0)
(-0.00445544 0.0172024 0)
(-0.00363406 0.0177111 0)
(-0.00271362 0.0181075 0)
(-0.00171435 0.0183819 0)
(-0.000466571 0.0160611 0)
(0.00509498 0.0275006 0)
(0.0203516 0.0303223 0)
(0.0327987 0.0276924 0)
(0.0450893 0.0238525 0)
(0.0565725 0.0189531 0)
(0.0665099 0.01325 0)
(0.0747096 0.00702691 0)
(0.0810078 0.000570916 0)
(0.0853106 -0.00584132 0)
(0.0877466 -0.0118798 0)
(0.0884097 -0.0173248 0)
(0.0873335 -0.0219977 0)
(0.0847053 -0.0257399 0)
(0.080752 -0.0284493 0)
(0.075721 -0.0300805 0)
(0.0698685 -0.0306441 0)
(0.0634444 -0.0301995 0)
(0.0566821 -0.0288475 0)
(0.0497964 -0.0267226 0)
(0.0429809 -0.0239762 0)
(0.0363896 -0.0207684 0)
(0.0301359 -0.017258 0)
(0.0243048 -0.0135996 0)
(0.018959 -0.00993234 0)
(0.0141244 -0.00637027 0)
(0.00981821 -0.00300742 0)
(0.00606214 8.85735e-05 0)
(0.00285784 0.00287901 0)
(0.000183813 0.00531188 0)
(-0.00205486 0.00737132 0)
(-0.00393397 0.00910161 0)
(-0.00540202 0.010513 0)
(-0.00645615 0.0116452 0)
(-0.00716241 0.0125372 0)
(-0.00754748 0.0132305 0)
(-0.00763046 0.0137643 0)
(-0.00743256 0.0141754 0)
(-0.00697778 0.0144959 0)
(-0.00629134 0.0147513 0)
(-0.00540004 0.0149593 0)
(-0.00433492 0.0151289 0)
(-0.00317425 0.0152619 0)
(-0.00195616 0.0153598 0)
(-0.000536728 0.0134006 0)
(0.00364919 0.00734966 0)
(0.0154301 0.00766465 0)
(0.0244132 0.006177 0)
(0.0335089 0.00408597 0)
(0.0420789 0.00148445 0)
(0.0494883 -0.00148746 0)
(0.0555973 -0.00466175 0)
(0.0603019 -0.0078733 0)
(0.0635305 -0.0109678 0)
(0.0651591 -0.0137445 0)
(0.0651554 -0.0161189 0)
(0.0636718 -0.0179773 0)
(0.0608839 -0.0192445 0)
(0.0569617 -0.0198774 0)
(0.052106 -0.0198617 0)
(0.0465375 -0.0192154 0)
(0.0404638 -0.0179872 0)
(0.0340738 -0.016242 0)
(0.0275627 -0.0140989 0)
(0.02114 -0.0116724 0)
(0.0149598 -0.00902557 0)
(0.00912489 -0.00627028 0)
(0.00372614 -0.00350998 0)
(-0.00116933 -0.000837609 0)
(-0.00551481 0.00166743 0)
(-0.00929245 0.00395271 0)
(-0.012507 0.0059766 0)
(-0.0151757 0.00772077 0)
(-0.0173013 0.00915458 0)
(-0.0188321 0.010274 0)
(-0.0198172 0.011118 0)
(-0.0203271 0.0117183 0)
(-0.0203674 0.0121018 0)
(-0.0199855 0.0123051 0)
(-0.0192151 0.0123682 0)
(-0.0180933 0.0123265 0)
(-0.0166611 0.0122177 0)
(-0.0149528 0.0120742 0)
(-0.0130002 0.0119238 0)
(-0.0108382 0.0117874 0)
(-0.00850621 0.0116799 0)
(-0.00607596 0.0116085 0)
(-0.0036077 0.0115764 0)
(-0.0010477 0.0100967 0)
(0.00196649 -0.00454772 0)
(0.00979868 -0.00562864 0)
(0.0148589 -0.00640407 0)
(0.0202208 -0.00735847 0)
(0.025146 -0.00844303 0)
(0.0290305 -0.00957701 0)
(0.0318089 -0.0106669 0)
(0.0333905 -0.0116234 0)
(0.03371 -0.0123654 0)
(0.0327304 -0.0128885 0)
(0.030482 -0.0131175 0)
(0.0270859 -0.0130077 0)
(0.0226727 -0.0125448 0)
(0.0173726 -0.0117293 0)
(0.0113786 -0.0105834 0)
(0.00493086 -0.00914199 0)
(-0.0017784 -0.007447 0)
(-0.00860676 -0.00556151 0)
(-0.0153725 -0.00356857 0)
(-0.0218388 -0.0014636 0)
(-0.0278571 0.000618588 0)
(-0.0333719 0.00260977 0)
(-0.0382965 0.00445617 0)
(-0.0425406 0.00610846 0)
(-0.0460466 0.00752707 0)
(-0.0487868 0.00868533 0)
(-0.050756 0.00956784 0)
(-0.051964 0.0101669 0)
(-0.0524266 0.0105186 0)
(-0.0521562 0.0106531 0)
(-0.0511868 0.0105664 0)
(-0.0495733 0.0103078 0)
(-0.0473851 0.00990947 0)
(-0.0446903 0.00940855 0)
(-0.0415254 0.00884212 0)
(-0.0379614 0.00825031 0)
(-0.0340855 0.00766345 0)
(-0.0299453 0.00710955 0)
(-0.0255805 0.00661253 0)
(-0.0210377 0.00619342 0)
(-0.0163608 0.00586735 0)
(-0.0115921 0.00563573 0)
(-0.00679641 0.00550442 0)
(-0.00205482 0.00479264 0)
(-5.0894e-05 -0.00907577 0)
(0.00292291 -0.0105625 0)
(0.00296686 -0.0108966 0)
(0.00349964 -0.0110959 0)
(0.00371861 -0.0111562 0)
(0.00304328 -0.0110288 0)
(0.00141431 -0.0106839 0)
(-0.00123354 -0.0101085 0)
(-0.00489866 -0.00930201 0)
(-0.00956117 -0.00828447 0)
(-0.0151532 -0.0070729 0)
(-0.0214965 -0.00568995 0)
(-0.0284307 -0.00416431 0)
(-0.035802 -0.00252779 0)
(-0.0434567 -0.000819363 0)
(-0.0512712 0.000919878 0)
(-0.0590766 0.00264339 0)
(-0.0666888 0.00429232 0)
(-0.0738495 0.00591079 0)
(-0.0804556 0.0074049 0)
(-0.0864675 0.0086862 0)
(-0.0917031 0.00972434 0)
(-0.0960544 0.0104939 0)
(-0.0994522 0.0109788 0)
(-0.10185 0.0111711 0)
(-0.103224 0.0110721 0)
(-0.103565 0.0106935 0)
(-0.102884 0.0100574 0)
(-0.101204 0.00919991 0)
(-0.0985521 0.00816162 0)
(-0.0949528 0.00698279 0)
(-0.0904537 0.0057097 0)
(-0.085181 0.00438976 0)
(-0.0792756 0.00307347 0)
(-0.0728502 0.00180426 0)
(-0.0659775 0.00062344 0)
(-0.0587212 -0.000442416 0)
(-0.0511761 -0.00137332 0)
(-0.0434268 -0.00215705 0)
(-0.0355336 -0.00278725 0)
(-0.0275233 -0.00326467 0)
(-0.0194242 -0.00359849 0)
(-0.0113317 -0.00378851 0)
(-0.00349834 -0.00336936 0)
(-0.00237396 -0.00758034 0)
(-0.00495739 -0.00877665 0)