/*--------------------------------*- C++ -*----------------------------------*\
  =========                 |
  \\      /  F ield         | OpenFOAM: The Open Source CFD Toolbox
   \\    /   O peration     | Website:  https://openfoam.org
    \\  /    A nd           | Version:  7
     \\/     M anipulation  |
\*---------------------------------------------------------------------------*/
FoamFile
{
    version     2.0;
    format      ascii;
    class       surfaceScalarField;
    location    "1.07";
    object      phi;
}
// * * * * * * * * * * * * * * * * * * * * * * * * * * * * * * * * * * * * * //

dimensions      [0 3 -1 0 0 0 0];

internalField   nonuniform List<scalar> 
3784
(
-0.00257788
0.00257788
-0.00279214
0.000214254
-0.00160805
-0.00118408
-0.000684685
-0.000923368
-0.000277895
-0.000406789
0.00031951
-0.000597405
0.00101036
-0.000690852
0.00132054
-0.000310172
0.000944586
0.000375949
-4.31404e-05
0.000987726
-0.00103492
0.00099178
-0.00114218
0.000107262
-6.41083e-05
-0.00107807
0.00131559
-0.0013797
0.00184093
-0.000525336
0.00103309
0.000807836
-0.000415079
0.00144817
-0.00132118
0.000906106
-0.000937812
-0.000383373
0.000434561
-0.00137237
0.00152665
-0.00109209
0.00103264
0.000494006
-0.00050332
0.00153596
-0.00145601
0.000952694
-0.000867274
-0.00058874
0.000624221
-0.0014915
0.00161875
-0.000994534
0.00116164
0.000457109
-0.000308179
0.00146982
-0.00137343
0.00106525
-0.000943426
-0.000430004
0.000467051
-0.00141048
0.00149
-0.00102295
0.00113512
0.000354875
-0.000295998
0.00143112
-0.00144852
0.00115252
-0.00118691
-0.00026161
0.000213683
-0.00140059
0.00149408
-0.00128039
0.0014317
6.23734e-05
7.07455e-05
0.00136096
-0.00125185
0.00132259
-0.00123716
-1.46892e-05
-0.00123716
-0.00353233
0.00611021
-0.0039443
0.000626231
-0.00187915
-0.00324924
-0.000843169
-0.00195935
-0.000493329
-0.000756633
0.000300243
-0.00139098
0.00115475
-0.00154536
0.00142556
-0.000580978
0.00089647
0.000905034
-4.84284e-06
0.00188904
-0.000915236
0.00190217
-0.00139036
0.000582384
-0.000210821
-0.00225761
0.00174703
-0.00333755
0.00199301
-0.000771312
0.000897029
0.00190381
-0.000271947
0.00261715
-0.00147161
0.00210577
-0.00139065
-0.000464334
0.000646063
-0.00340908
0.00178718
-0.00223321
0.000889254
0.00139193
-0.000371442
0.00279666
-0.00153592
0.00211717
-0.00128727
-0.00083739
0.00089929
-0.00367805
0.00191372
-0.00200896
0.000992068
0.00137876
-0.000191165
0.00265306
-0.00142154
0.00229563
-0.0013747
-0.000476852
0.000688322
-0.0034735
0.00183764
-0.00217226
0.000974744
0.00121777
-0.000213904
0.00261977
-0.00141983
0.00235844
-0.00164145
-3.99948e-05
0.000316528
-0.00335856
0.00188691
-0.00285078
0.00128341
0.000665875
0.000108122
0.00253624
-0.00113189
0.0025626
-0.00170271
0.000556133
-0.00293987
-0.00333296
0.00944317
-0.00419621
0.00148948
-0.00236646
-0.00507899
-0.00102451
-0.0033013
-0.000490847
-0.00129029
0.000353359
-0.00223518
0.00130662
-0.00249862
0.00161724
-0.000891602
0.00101725
0.00150503
-3.67838e-05
0.00294308
-0.00113005
0.00299544
-0.00167262
0.00112495
-0.000320766
-0.00360946
0.0019317
-0.00559002
0.00227483
-0.00111444
0.000921266
0.00325737
-0.000624932
0.00416335
-0.00191382
0.00339466
-0.00152419
-0.000853966
0.00089249
-0.00582576
0.00213382
-0.00347453
0.00105987
0.00246588
-0.0005182
0.00437473
-0.00188878
0.00348775
-0.00151862
-0.00120755
0.000995226
-0.00619189
0.00221279
-0.00322653
0.00113633
0.00245523
-0.000405118
0.0041945
-0.00182319
0.0037137
-0.0016359
-0.00066414
0.000773073
-0.00588247
0.0021769
-0.00357609
0.00124171
0.00215296
-0.000286551
0.00414803
-0.00175411
0.003826
-0.00189089
9.67824e-05
0.000398366
-0.00564782
0.00221001
-0.00466242
0.00152069
0.0013552
-1.04588e-05
0.00406739
-0.00153269
0.00408483
-0.00203065
0.0010541
-0.00497052
-0.00268095
0.0121241
-0.00378411
0.00259264
-0.00266759
-0.0061955
-0.00142363
-0.00454526
-0.00061993
-0.00209399
0.000204293
-0.00305941
0.00094827
-0.0032426
0.00112939
-0.00107272
0.000656417
0.001978
-6.79993e-05
0.00366749
-0.000767171
0.00369461
-0.00112221
0.00147998
-0.000199232
-0.00453244
0.00138487
-0.00717412
0.00159468
-0.00132425
0.000538738
0.00431331
-0.000591658
0.00529375
-0.00143322
0.00423622
-0.00101229
-0.00127489
0.00071456
-0.00755261
0.00146406
-0.00422404
0.000671305
0.00325864
-0.00034995
0.00539598
-0.00128957
0.00442737
-0.00105235
-0.00144477
0.00067613
-0.00792038
0.00149614
-0.00404654
0.000693067
0.0032583
-0.000361554
0.00524912
-0.0012994
0.00465154
-0.00114305
-0.000820493
0.000541697
-0.00756721
0.00152308
-0.00455748
0.000861042
0.00281501
-0.000179805
0.00518888
-0.00118983
0.00483603
-0.0012808
0.000187755
0.00031255
-0.00724117
0.00152729
-0.00587716
0.00098315
0.00189934
-8.56562e-05
0.0051362
-0.00109844
0.00509762
-0.00141121
0.00136687
-0.00638173
-0.00197229
0.0140964
-0.0032467
0.00386706
-0.00281041
-0.00663179
-0.0017968
-0.00555888
-0.000826651
-0.00306414
-9.12778e-05
-0.00379478
0.000402408
-0.00373628
0.000487354
-0.00115767
0.00019488
0.00227047
-0.000136926
0.0039993
-0.000421527
0.00397921
-0.000568352
0.00162681
-9.20786e-05
-0.00500872
0.000764817
-0.00803101
0.000842694
-0.00140213
0.000205021
0.00495098
-0.000458918
0.00595769
-0.000832514
0.00460981
-0.000455846
-0.00165156
0.000512374
-0.00852083
0.0007719
-0.00448357
0.000289581
0.00374096
-0.000187179
0.00587275
-0.000641039
0.00488123
-0.000569483
-0.00151633
0.000331577
-0.00882144
0.000754281
-0.00446924
0.000274741
0.00373784
-0.000278556
0.00580242
-0.00069164
0.00506463
-0.000623416
-0.000888716
0.000292028
-0.00848266
0.000845415
-0.00511087
0.000454234
0.00320619
-7.52897e-05
0.0057184
-0.000550997
0.00531173
-0.000634383
0.000271142
0.000218958
-0.00809451
0.000818826
-0.00647703
0.000427056
0.00229111
-0.000114705
0.00567796
-0.000584962
0.00556787
-0.00076779
0.0015497
-0.00714952
-0.00109825
0.0151947
-0.0024648
0.00523361
-0.00269963
-0.00639697
-0.00203386
-0.00622465
-0.00110246
-0.00399553
-0.000538732
-0.00435851
-0.00031222
-0.00396279
-0.000283965
-0.00118592
-0.000319186
0.00230569
-0.000229051
0.00390916
-8.79465e-05
0.00383811
-3.35782e-05
0.00157244
-9.85067e-06
-0.00503245
0.000106866
-0.00814773
6.15145e-05
-0.00135677
-7.36725e-05
0.00508617
-0.00017793
0.00606194
-0.000130547
0.00456243
0.000116966
-0.00189907
0.000297122
-0.00870099
5.91659e-05
-0.00424561
-6.48035e-05
0.00386493
-1.3968e-05
0.00582191
-1.81396e-06
0.00486908
-8.62456e-05
-0.0014319
-1.5802e-05
-0.00889188
-7.63117e-06
-0.00447741
-9.90451e-05
0.00382925
-0.000118366
0.00582174
-6.60309e-05
0.00501229
-0.000106336
-0.000848412
2.8605e-05
-0.0086176
0.000122199
-0.00520446
5.41819e-05
0.0032742
4.30264e-05
0.00572956
6.81654e-05
0.0052866
8.50811e-06
0.000330797
0.000117338
-0.00820334
0.000104377
-0.00646407
-7.33184e-05
0.0024688
-9.40702e-05
0.00569871
-7.22137e-05
0.00554602
-0.000131948
0.00160943
-0.00728147
-3.18207e-05
0.0152265
-0.00128759
0.00648938
-0.00220071
-0.00548385
-0.0020469
-0.00637846
-0.00136885
-0.00467358
-0.00105276
-0.0046746
-0.00107572
-0.00393983
-0.00108183
-0.00117982
-0.000819186
0.00204305
-0.000335555
0.00342553
0.000158686
0.00334387
0.000391448
0.00133968
6.94608e-05
-0.00471046
-0.000498295
-0.00757997
-0.000644544
-0.00121052
-0.000285548
0.00472717
0.00018679
0.00558961
0.000573939
0.00417528
0.000632526
-0.00195766
4.24361e-05
-0.0081109
-0.000566135
-0.00363704
-0.000360781
0.00365957
0.000158406
0.00530272
0.000563919
0.00446356
0.0003553
-0.00122328
-0.000322497
-0.00821409
-0.000667149
-0.00413276
-0.000408111
0.00357022
7.6339e-05
0.00533729
0.000509689
0.00457894
0.000373492
-0.000712215
-0.000217814
-0.00802629
-0.000542168
-0.00488011
-0.000313357
0.00304539
0.000149319
0.00526688
0.000603129
0.00483279
0.000611354
0.000322572
3.41914e-06
-0.00759541
-0.000562099
-0.00589855
-0.000487623
0.00239433
-5.19571e-05
0.00526304
0.000381312
0.00511275
0.000482074
0.00150867
-0.0067994
0.00119842
0.0140281
0.00035046
0.00733734
-0.00122841
-0.00390498
-0.00171286
-0.00589401
-0.00147452
-0.00491192
-0.00149334
-0.00465578
-0.00173433
-0.00369884
-0.0016988
-0.00121535
-0.00116178
0.00150604
-0.000421849
0.0026856
0.000290087
0.00263193
0.000728887
0.000900883
0.000146043
-0.00412761
-0.000979738
-0.00645419
-0.00115857
-0.00103169
-0.000429115
0.00399771
0.000479365
0.00468112
0.00112433
0.00353032
0.000996461
-0.0018298
-0.000228937
-0.0068855
-0.00102978
-0.00283619
-0.000572154
0.00320195
0.00028718
0.00444338
0.000945163
0.00380558
0.000737356
-0.00101547
-0.000552764
-0.00692397
-0.00120877
-0.00347675
-0.000648671
0.00301012
0.000217594
0.00447102
0.00089913
0.00389741
0.000792724
-0.000605808
-0.000412263
-0.0068213
-0.00112108
-0.00417129
-0.000626408
0.00255072
0.000210852
0.00442962
0.000959464
0.00408417
0.00107817
0.000203868
-0.000108744
-0.00640849
-0.00111848
-0.00488881
-0.000811813
0.00208766
-2.28461e-05
0.00447408
0.000738593
0.00435131
0.00098495
0.00126231
-0.00581445
0.00227381
0.0117542
0.00218934
0.00742181
0.000186632
-0.00190227
-0.000955511
-0.00475186
-0.00127041
-0.00459702
-0.00165017
-0.00427602
-0.0020613
-0.00328772
-0.00200897
-0.00126768
-0.00132985
0.00082692
-0.000448762
0.00180451
0.000384376
0.00179879
0.000924298
0.000360963
0.000157794
-0.00336111
-0.00131629
-0.00498011
-0.00149389
-0.000854089
-0.000540382
0.0030442
0.000589995
0.00355075
0.00145091
0.00266941
0.00115739
-0.00153627
-0.000484409
-0.0052437
-0.00133694
-0.00198366
-0.000682662
0.00254766
0.000368356
0.00339237
0.0011912
0.00298273
0.0010006
-0.000824869
-0.000672543
-0.00525082
-0.00153075
-0.00261855
-0.000789328
0.0022687
0.000279
0.0034027
0.00113288
0.00304353
0.00107931
-0.000552247
-0.000512354
-0.00522964
-0.00148889
-0.00319476
-0.000803406
0.00186524
0.000240979
0.00338523
0.00116041
0.00316474
0.00135908
5.19626e-06
-0.000199693
-0.00484972
-0.00149539
-0.00359311
-0.000984864
0.00157713
-9.9096e-07
0.00349021
0.000926719
0.0034236
0.00133627
0.000852767
-0.00447818
0.00275375
0.0090005
0.00359034
0.00658522
0.00173592
-4.78478e-05
0.000151383
-0.00316732
-0.000719596
-0.00372604
-0.00143909
-0.00355652
-0.00197826
-0.00274855
-0.00194966
-0.00129629
-0.00129148
0.000168746
-0.000417932
0.000930957
0.000422656
0.000958198
0.000914319
-0.000130698
7.32945e-05
-0.00252009
-0.00146325
-0.00344357
-0.00163016
-0.000687174
-0.000597178
0.00201122
0.00055963
0.00239394
0.00149088
0.00173816
0.00110477
-0.00115017
-0.00065514
-0.00348379
-0.00141418
-0.00122462
-0.000644351
0.00177784
0.000366367
0.00238165
0.00129399
0.0020551
0.001099
-0.000629876
-0.000661631
-0.00349019
-0.00154901
-0.00173117
-0.000758261
0.00147795
0.000295048
0.00234939
0.00125255
0.00208603
0.00119352
-0.000493218
-0.000504344
-0.00353177
-0.00154055
-0.00215855
-0.000835152
0.00115984
0.000230193
0.00231989
0.00124453
0.0021504
0.00139585
-0.000146117
-0.00024962
-0.00320425
-0.00155989
-0.00228284
-0.00102418
0.00104142
2.93985e-05
0.00243663
0.0010574
0.0023956
0.00145358
0.000456579
-0.0030246
0.00257586
0.00642464
0.00397402
0.00518705
0.00283063
0.00109554
0.00123912
-0.00157581
4.8718e-05
-0.00253564
-0.000901971
-0.00260584
-0.00152576
-0.00212476
-0.00158289
-0.00123916
-0.00108445
-0.000329691
-0.000353462
0.000199973
0.000369413
0.000235318
0.000702308
-0.000463596
-8.27741e-05
-0.00173501
-0.00140611
-0.00212023
-0.00154084
-0.00055244
-0.00059497
0.00106535
0.00041972
0.00137925
0.00123736
0.000920521
0.000838416
-0.000751222
-0.000696816
-0.00194856
-0.00126971
-0.000651722
-0.000558972
0.0010671
0.00032992
0.00149276
0.00118356
0.00120146
0.000977338
-0.000423652
-0.000554231
-0.00195862
-0.00130249
-0.000982918
-0.000644252
0.000819717
0.000282927
0.00142221
0.00117411
0.00119485
0.00107254
-0.000391648
-0.000420708
-0.00203852
-0.00131208
-0.00126717
-0.000748687
0.00059644
0.000196259
0.00137494
0.00112199
0.00122467
0.00116261
-0.000186738
-0.000260516
-0.00178112
-0.00133646
-0.00120689
-0.000902215
0.000607172
5.61001e-05
0.00147832
0.001018
0.0014337
0.00129056
0.000184016
-0.00173404
0.00206753
0.00435712
0.00350652
0.00374807
0.003065
0.00153707
0.0019172
-0.00042802
0.000737249
-0.00135569
-0.000228917
-0.00163967
-0.000861241
-0.00149244
-0.00102445
-0.00107596
-0.000748555
-0.000605588
-0.00023728
-0.000311304
0.00026824
-0.000270202
0.000411109
-0.000606463
-0.000209438
-0.00111446
-0.00114174
-0.00118792
-0.00124771
-0.000446468
-0.000558332
0.000375964
0.000212528
0.000608385
0.0007851
0.000347949
0.000458631
-0.000424754
-0.0006004
-0.000889529
-0.000969005
-0.000283119
-0.000445205
0.000543299
0.000241169
0.000806386
0.000864253
0.000578375
0.000674021
-0.000233421
-0.000394156
-0.000890445
-0.000915028
-0.000462047
-0.000473117
0.000377805
0.000227879
0.000721209
0.000884084
0.000538642
0.000758274
-0.000265838
-0.000300345
-0.000979902
-0.00093208
-0.000635441
-0.000573142
0.0002375
0.000131703
0.000670099
0.000801558
0.000554814
0.000757394
-0.000142575
-0.000231328
-0.000792403
-0.000944938
-0.000493286
-0.000657424
0.000319659
6.06246e-05
0.00076027
0.000788585
0.000705744
0.000923776
4.88258e-05
-0.000810264
0.00130406
0.00305306
0.0024825
0.00256963
0.00262408
0.00139549
0.00194494
0.000251124
0.0010905
-0.000501252
0.000319206
-0.000868387
-0.000213991
-0.000959242
-0.000423138
-0.00086681
-0.000327252
-0.000701475
-6.53991e-05
-0.00057316
0.000193766
-0.000529366
0.000191026
-0.000603718
-0.000220642
-0.000702785
-0.000763539
-0.000645025
-0.00085563
-0.000354377
-0.000469205
-1.04574e-05
1.45629e-05
0.000124618
0.000329702
3.28062e-05
0.000120526
-0.00021558
-0.000437004
-0.000331998
-0.000635799
-8.43217e-05
-0.000325354
0.000232855
0.000123991
0.000357041
0.000478294
0.000224071
0.000337424
-9.2551e-05
-0.000235599
-0.00031742
-0.000536156
-0.000161491
-0.000298703
0.00014035
0.000144353
0.000278154
0.000514821
0.000168174
0.000402706
-0.000153724
-0.000185035
-0.000392162
-0.000556414
-0.000264063
-0.000378386
5.9471e-05
5.49682e-05
0.000236746
0.000430651
0.000179132
0.000362401
-7.43271e-05
-0.000174199
-0.000255805
-0.000548847
-0.000118638
-0.000393661
0.000164475
4.56282e-05
0.00032098
0.000480058
0.000271314
0.000523595
5.28997e-06
-0.000286669
0.000856125
0.00219693
0.00155036
0.0018754
0.00179457
0.00115128
0.00152828
0.00051741
0.00106627
-3.92465e-05
0.00058755
-0.000389665
0.000224446
-0.000596144
4.09723e-05
-0.000683341
2.53472e-05
-0.000685849
9.77275e-05
-0.000645538
0.000156001
-0.000587638
8.08834e-05
-0.0005286
-0.000154645
-0.000467254
-0.000411389
-0.000388281
-0.000483866
-0.000281901
-0.000330635
-0.000163685
-9.75905e-05
-0.000108427
3.24594e-05
-9.72474e-05
-6.0319e-05
-0.000122802
-0.000286938
-0.000105375
-0.000359891
-1.13681e-05
-0.000213746
8.67089e-05
2.25695e-05
0.000120726
0.000177118
6.95236e-05
0.000110701
-2.61324e-05
-0.000134893
-7.18262e-05
-0.000264432
-3.19533e-05
-0.000158861
3.47764e-05
6.21925e-05
5.71005e-05
0.000219795
1.05737e-05
0.000145745
-7.96749e-05
-0.000112487
-0.00013393
-0.000284215
-9.23351e-05
-0.000215657
-9.08693e-06
-8.87597e-06
2.99647e-05
0.000153419
1.68369e-05
0.000105946
-2.68535e-05
-0.00011266
-3.71977e-05
-0.000258466
2.71674e-05
-0.000182693
8.87024e-05
3.01181e-05
0.00010817
0.000225461
7.59681e-05
0.000230388
3.61696e-07
-5.62796e-05
0.000610451
0.00158648
0.00103086
0.00145499
0.00119521
0.000986932
0.00115146
0.000561159
0.000909692
0.000202516
0.000656703
-0.000136674
0.00043664
-0.000376082
0.00028406
-0.000530764
0.000202032
-0.000603822
0.000158237
-0.000601739
0.000112881
-0.000542279
3.58878e-05
-0.00045161
-7.1431e-05
-0.000359936
-0.000170223
-0.000289485
-0.000211112
-0.000241009
-0.000172252
-0.000202546
-0.000112676
-0.000168003
-7.81477e-05
-0.000131776
-0.000110691
-9.02595e-05
-0.00017168
-4.43851e-05
-0.000180861
-2.18826e-06
-0.000118102
2.39486e-05
-2.47465e-05
2.73732e-05
2.88333e-05
1.59472e-05
2.28985e-06
4.10333e-07
-6.66601e-05
-2.87866e-06
-9.93582e-05
7.42684e-07
-6.46384e-05
5.55772e-08
9.52085e-06
-1.70569e-05
5.53226e-05
-3.52243e-05
2.06816e-05
-4.50336e-05
-6.76177e-05
-4.56323e-05
-0.000120237
-3.97167e-05
-9.86506e-05
-3.06721e-05
-3.66657e-05
-3.20172e-05
9.78396e-06
-2.96111e-05
-5.2373e-06
-1.18324e-05
-6.49277e-05
2.24936e-05
-8.85673e-05
5.08064e-05
-5.08011e-05
5.09342e-05
2.44197e-05
3.29494e-05
8.36638e-05
1.67245e-05
7.28011e-05
1.12212e-05
1.65212e-05
0.000478224
0.00110826
0.000828877
0.00110434
0.000976327
0.000839483
0.000978799
0.000558689
0.000893972
0.00028734
0.000720274
3.70208e-05
0.000550431
-0.000206238
0.00039541
-0.000375742
0.00026425
-0.000472661
0.000158526
-0.000496016
7.59148e-05
-0.000459668
1.51616e-05
-0.000390858
-2.69138e-05
-0.000317861
-5.37915e-05
-0.000262603
-6.79579e-05
-0.000226839
-7.05846e-05
-0.000199921
-7.02703e-05
-0.000168318
-7.53784e-05
-0.000126666
-8.3249e-05
-8.23894e-05
-8.83004e-05
-3.93358e-05
-7.57125e-05
-1.47755e-05
-4.7913e-05
-3.84832e-06
-1.93088e-05
-1.22797e-06
-2.91619e-06
-4.44288e-07
-6.55388e-06
4.04433e-06
-1.70038e-05
7.56678e-06
-1.86487e-05
2.3881e-06
-7.41518e-06
-1.11745e-05
3.12787e-06
-2.75974e-05
2.63819e-06
-3.47327e-05
-1.09244e-05
-3.14713e-05
-3.05292e-05
-2.60297e-05
-4.31001e-05
-2.71452e-05
-3.95258e-05
-3.42435e-05
-3.28585e-05
-3.86798e-05
-3.13253e-05
-3.11416e-05
-3.36996e-05
-9.46103e-06
-2.98215e-05
1.86128e-05
-1.37915e-05
3.47774e-05
6.09045e-06
3.10535e-05
2.18333e-05
1.72058e-05
2.53071e-05
1.32523e-05
1.46491e-05
2.18779e-05
3.11676e-05
0.00036652
0.000741746
0.000685682
0.000785177
0.000866658
0.000658506
0.000928858
0.000496492
0.000902159
0.000314041
0.000813035
0.000126143
0.000665181
-5.8383e-05
0.000501412
-0.000211971
0.000342359
-0.000313607
0.000205799
-0.000359459
0.000104452
-0.000358325
4.04765e-05
-0.000326881
8.57224e-06
-0.000285953
-5.9133e-06
-0.000248115
-1.52326e-05
-0.00021752
-2.5916e-05
-0.000189239
-3.71463e-05
-0.000157089
-4.39146e-05
-0.000119897
-4.35352e-05
-8.27698e-05
-3.04743e-05
-5.23977e-05
-1.2568e-05
-3.26784e-05
3.47274e-06
-1.98851e-05
1.51802e-05
-1.29365e-05
2.08027e-05
-6.07027e-06
2.49188e-05
-7.4859e-08
3.03972e-05
2.08694e-06
3.50527e-05
-2.2647e-06
3.57785e-05
-1.18957e-05
2.88535e-05
-2.06709e-05
1.8624e-05
-2.45045e-05
1.1075e-05
-2.39233e-05
7.92059e-06
-2.28747e-05
5.32854e-06
-2.45496e-05
3.19168e-07
-2.9231e-05
-8.19805e-06
-3.01616e-05
-1.64195e-05
-2.29194e-05
-1.78481e-05
-8.03367e-06
-7.74489e-06
8.50721e-06
7.92919e-06
1.9103e-05
1.83603e-05
2.06266e-05
1.68501e-05
1.87151e-05
9.16137e-06
2.09381e-05
1.81501e-06
2.92242e-05
3.29826e-05
0.000258003
0.000483745
0.000513291
0.000529891
0.000698777
0.000473019
0.000806693
0.000388576
0.000840449
0.000280287
0.000810125
0.000156468
0.000718511
3.32324e-05
0.000591024
-8.44841e-05
0.000449222
-0.000171806
0.000315866
-0.000226105
0.000206422
-0.000248882
0.000128181
-0.000248637
7.74048e-05
-0.000235173
4.557e-05
-0.000216281
2.32259e-05
-0.000195178
5.59217e-06
-0.000171605
-6.8372e-06
-0.000144657
-1.11362e-05
-0.000115598
-6.19198e-06
-8.77145e-05
5.65097e-06
-6.42388e-05
1.92233e-05
-4.62473e-05
3.21109e-05
-3.27727e-05
4.22991e-05
-2.31293e-05
4.99361e-05
-1.37113e-05
5.73644e-05
-7.50329e-06
6.44847e-05
-5.03195e-06
6.89115e-05
-6.68975e-06
6.77046e-05
-1.06871e-05
6.11997e-05
-1.41661e-05
5.27327e-05
-1.60384e-05
4.54746e-05
-1.66652e-05
4.02072e-05
-1.76061e-05
3.4295e-05
-1.86348e-05
2.47016e-05
-1.9636e-05
1.27065e-05
-1.81676e-05
2.44408e-06
-1.26584e-05
-1.34327e-06
-4.24452e-06
1.74863e-06
5.41809e-06
7.78372e-06
1.30645e-05
1.04619e-05
1.7947e-05
7.31375e-06
2.18632e-05
1.62457e-06
2.66243e-05
-1.43996e-06
3.22871e-05
3.1544e-05
0.000169737
0.000314007
0.000350562
0.000349066
0.000502409
0.000321173
0.000614569
0.000276417
0.00067959
0.000215267
0.000694261
0.000141797
0.000664153
6.33414e-05
0.000593149
-1.34797e-05
0.000498772
-7.743e-05
0.000397831
-0.000125164
0.000304038
-0.000155088
0.000225048
-0.000169646
0.000162755
-0.00017288
0.000114821
-0.000168348
7.80359e-05
-0.000158393
5.04886e-05
-0.000144055
3.20769e-05
-0.000126244
2.29997e-05
-0.000106522
2.22518e-05
-8.69654e-05
2.73089e-05
-6.9292e-05
3.52525e-05
-5.41907e-05
4.39004e-05
-4.14255e-05
5.14049e-05
-3.06379e-05
5.94833e-05
-2.17903e-05
6.82309e-05
-1.62505e-05
7.50292e-05
-1.18297e-05
7.83232e-05
-9.98256e-06
7.74118e-05
-9.77574e-06
7.32276e-05
-9.98296e-06
6.71787e-05
-9.9892e-06
6.04959e-05
-9.98132e-06
5.29566e-05
-1.00664e-05
4.44378e-05
-1.01166e-05
3.39205e-05
-9.11878e-06
2.28102e-05
-7.05529e-06
1.338e-05
-3.22826e-06
6.77622e-06
2.35819e-06
3.80632e-06
8.39208e-06
2.82306e-06
1.4047e-05
1.61671e-06
1.91474e-05
-4.2939e-07
2.39071e-05
-2.17274e-06
2.83684e-05
-1.99722e-06
3.21123e-05
2.95475e-05
0.000110696
0.000203311
0.000232613
0.000227149
0.000342558
0.000211228
0.000433372
0.000185604
0.000498162
0.000150476
0.000532128
0.000107828
0.000534316
6.11535e-05
0.000502991
1.78453e-05
0.000453348
-2.77885e-05
0.000391428
-6.32456e-05
0.000325976
-8.96359e-05
0.000263412
-0.000107084
0.000207246
-0.000116716
0.000158864
-0.000119965
0.00011845
-0.000117976
8.61101e-05
-0.000111714
6.20808e-05
-0.000102215
4.61745e-05
-9.06163e-05
3.73812e-05
-7.81695e-05
3.40111e-05
-6.59197e-05
3.42843e-05
-5.44682e-05
3.68914e-05
-4.40388e-05
4.09798e-05
-3.47271e-05
4.59432e-05
-2.67523e-05
5.00628e-05
-2.0372e-05
5.37624e-05
-1.55306e-05
5.58612e-05
-1.20796e-05
5.56938e-05
-9.60782e-06
5.34243e-05
-7.71457e-06
4.96065e-05
-6.17188e-06
4.45643e-05
-4.93968e-06
3.8478e-05
-3.9795e-06
3.11366e-05
-2.77487e-06
2.32023e-05
-1.18689e-06
1.49134e-05
1.23591e-06
7.17306e-06
4.51605e-06
1.21165e-06
8.3164e-06
-2.79072e-06
1.2393e-05
-5.191e-06
1.64496e-05
-6.39772e-06
2.03538e-05
-6.49842e-06
2.40064e-05
-5.35244e-06
2.72234e-05
-2.92044e-06
2.96823e-05
2.66275e-05
7.3595e-05
0.000129717
0.000155398
0.000145346
0.000230917
0.00013571
0.000295905
0.000120616
0.000346067
0.000100311
0.000378044
7.58495e-05
0.000390283
4.89143e-05
0.000386284
2.18454e-05
0.000361377
-2.88189e-06
0.000326537
-2.84068e-05
0.000285018
-4.81169e-05
0.000241011
-6.30773e-05
0.000197674
-7.33773e-05
0.000157073
-7.93615e-05
0.000120615
-8.15144e-05
8.9315e-05
-8.04137e-05
6.371e-05
-7.66115e-05
4.3914e-05
-7.08196e-05
2.95282e-05
-6.37814e-05
1.97481e-05
-5.61407e-05
1.35926e-05
-4.83173e-05
1.03126e-05
-4.07611e-05
9.22474e-06
-3.36376e-05
9.61927e-06
-2.71467e-05
1.07022e-05
-2.14568e-05
1.18238e-05
-1.6651e-05
1.24252e-05
-1.26788e-05
1.22096e-05
-9.39294e-06
1.1129e-05
-6.6336e-06
9.24291e-06
-4.2845e-06
6.57886e-06
-2.27843e-06
3.15839e-06
-5.5943e-07
-7.71381e-07
1.15926e-06
-5.29588e-06
3.33656e-06
-9.71118e-06
5.64951e-06
-1.33635e-05
8.17265e-06
-1.59016e-05
1.08555e-05
-1.71338e-05
1.3622e-05
-1.70489e-05
1.63648e-05
-1.56784e-05
1.8986e-05
-1.30572e-05
2.13873e-05
-9.27079e-06
2.34378e-05
-4.54728e-06
2.49592e-05
2.208e-05
4.99259e-05
7.97913e-05
0.000105506
8.97632e-05
0.000157138
8.4077e-05
0.000202332
7.54203e-05
0.000238629
6.40104e-05
0.000264121
5.03536e-05
0.000277824
3.52106e-05
0.000280122
1.95471e-05
0.000272278
4.96148e-06
0.000253835
-9.96572e-06
0.000228797
-2.30807e-05
0.000199516
-3.37967e-05
0.000168191
-4.20512e-05
0.000136664
-4.78337e-05
0.000106403
-5.12526e-05
7.84973e-05
-5.25096e-05
5.37791e-05
-5.18942e-05
3.2702e-05
-4.97423e-05
1.53399e-05
-4.64204e-05
1.49024e-06
-4.22944e-05
-9.07342e-06
-3.77558e-05
-1.68802e-05
-3.2953e-05
-2.23571e-05
-2.81598e-05
-2.59582e-05
-2.3548e-05
-2.81698e-05
-1.92454e-05
-2.94818e-05
-1.53346e-05
-3.03182e-05
-1.18407e-05
-3.09616e-05
-8.753e-06
-3.15673e-05
-6.02723e-06
-3.22355e-05
-3.61253e-06
-3.30353e-05
-1.48136e-06
-3.40238e-05
4.26005e-07
-3.50416e-05
2.18153e-06
-3.58413e-05
4.13854e-06
-3.61691e-05
5.97463e-06
-3.57769e-05
7.78105e-06
-3.45001e-05
9.58147e-06
-3.22317e-05
1.13537e-05
-2.89259e-05
1.30578e-05
-2.45848e-05
1.46449e-05
-1.9255e-05
1.60584e-05
-1.30483e-05
1.72319e-05
-6.17103e-06
1.80822e-05
1.59089e-05
3.21199e-05
4.76709e-05
6.80758e-05
5.38063e-05
0.000101618
5.05372e-05
0.000131396
4.56422e-05
0.000156134
3.927e-05
0.000174796
3.16913e-05
0.000186757
2.32501e-05
0.000191949
1.43565e-05
0.000191419
5.4917e-06
0.000184459
-3.00563e-06
0.00017227
-1.08915e-05
0.000156181
-1.77063e-05
0.000137424
-2.32942e-05
0.000117152
-2.75603e-05
9.63867e-05
-3.04879e-05
7.60057e-05
-3.21285e-05
5.67038e-05
-3.25916e-05
3.89917e-05
-3.20297e-05
2.31929e-05
-3.06232e-05
9.45944e-06
-2.8563e-05
-2.25541e-06
-2.60399e-05
-1.19883e-05
-2.32164e-05
-1.98991e-05
-2.02477e-05
-2.61885e-05
-1.72602e-05
-3.10795e-05
-1.43529e-05
-3.48096e-05
-1.15989e-05
-3.7608e-05
-9.04056e-06
-3.96607e-05
-6.70355e-06
-4.11063e-05
-4.58135e-06
-4.20478e-05
-2.66717e-06
-4.26093e-05
-9.20814e-07
-4.28354e-05
6.48915e-07
-4.26877e-05
2.03558e-06
-4.19047e-05
3.35849e-06
-4.05307e-05
4.60012e-06
-3.85252e-05
5.77486e-06
-3.58339e-05
6.89161e-06
-3.24257e-05
7.94695e-06
-2.8297e-05
8.9292e-06
-2.34725e-05
9.81961e-06
-1.80087e-05
1.0594e-05
-1.20008e-05
1.12236e-05
-5.58922e-06
1.16704e-05
1.03195e-05
2.06984e-05
2.69705e-05
4.41024e-05
3.04006e-05
6.61178e-05
2.85227e-05
8.60111e-05
2.57472e-05
0.000103115
2.21636e-05
0.000116887
1.79184e-05
0.000126951
1.31862e-05
0.000133137
8.16888e-06
0.00013555
3.07752e-06
0.000134403
-1.85984e-06
0.000129912
-6.40053e-06
0.000122643
-1.04379e-05
0.000113175
-1.38275e-05
0.000102103
-1.64887e-05
9.00007e-05
-1.83868e-05
7.7401e-05
-1.95287e-05
6.47681e-05
-1.99578e-05
5.24849e-05
-1.97463e-05
4.08477e-05
-1.89874e-05
3.00691e-05
-1.77857e-05
2.02806e-05
-1.62497e-05
1.1552e-05
-1.44843e-05
3.89223e-06
-1.25866e-05
-2.72871e-06
-1.06402e-05
-8.36631e-06
-8.71412e-06
-1.30928e-05
-6.86862e-06
-1.69882e-05
-5.14397e-06
-2.01464e-05
-3.54795e-06
-2.26332e-05
-2.09516e-06
-2.45296e-05
-7.68548e-07
-2.5886e-05
4.3542e-07
-2.66522e-05
1.41253e-06
-2.69289e-05
2.31191e-06
-2.66929e-05
3.12398e-06
-2.59524e-05
3.85981e-06
-2.47107e-05
4.53228e-06
-2.29692e-05
5.14988e-06
-2.07383e-05
5.7165e-06
-1.80407e-05
6.23155e-06
-1.49122e-05
6.69047e-06
-1.14048e-05
7.08564e-06
-7.58874e-06
7.4064e-06
-3.55411e-06
7.63453e-06
6.76419e-06
1.45649e-05
1.24054e-05
3.11258e-05
1.3841e-05
4.68403e-05
1.28107e-05
6.12511e-05
1.13358e-05
7.39503e-05
9.46436e-06
8.46256e-05
7.24502e-06
9.30369e-05
4.77528e-06
9.90251e-05
2.17922e-06
0.000102565
-4.63026e-07
0.000103716
-3.01071e-06
0.000102671
-5.35536e-06
9.96417e-05
-7.40802e-06
9.49136e-05
-9.09906e-06
8.88057e-05
-1.03807e-05
8.16483e-05
-1.1229e-05
7.37669e-05
-1.16459e-05
6.54656e-05
-1.16543e-05
5.70145e-05
-1.1294e-05
4.86438e-05
-1.06171e-05
4.05428e-05
-9.68506e-06
3.2858e-05
-8.56313e-06
2.56944e-05
-7.31763e-06
1.91194e-05
-6.0104e-06
1.3176e-05
-4.69748e-06
7.87842e-06
-3.41591e-06
3.21688e-06
-2.20457e-06
-8.38729e-07
-1.08745e-06
-4.30357e-06
-8.48271e-08
-7.18844e-06
7.88923e-07
-9.51831e-06
1.56271e-06
-1.12946e-05
2.21212e-06
-1.26337e-05
2.75008e-06
-1.35212e-05
3.19833e-06
-1.39695e-05
3.57254e-06
-1.39974e-05
3.88762e-06
-1.36232e-05
4.15715e-06
-1.28661e-05
4.39162e-06
-1.17498e-05
4.59948e-06
-1.03049e-05
4.7859e-06
-8.5683e-06
4.95295e-06
-6.58435e-06
5.10026e-06
-4.40513e-06
5.22532e-06
-2.09211e-06
5.31935e-06
4.67032e-06
1.03943e-05
2.01105e-06
2.21721e-05
2.06327e-06
3.33848e-05
1.59781e-06
4.37377e-05
9.80152e-07
5.29304e-05
2.71096e-07
6.0851e-05
-6.74584e-07
6.73688e-05
-1.74377e-06
7.21491e-05
-2.60316e-06
7.54362e-05
-3.75111e-06
7.7104e-05
-4.6787e-06
7.72136e-05
-5.46455e-06
7.58825e-05
-6.07634e-06
7.32703e-05
-6.4864e-06
6.95672e-05
-6.67732e-06
6.4976e-05
-6.63741e-06
5.9707e-05
-6.37568e-06
5.39669e-05
-5.91254e-06
4.79467e-05
-5.27306e-06
4.18197e-05
-4.49068e-06
3.57385e-05
-3.60487e-06
2.98395e-05
-2.66367e-06
2.42188e-05
-1.69561e-06
1.89462e-05
-7.37677e-07
1.41131e-05
1.34481e-07
9.69623e-06
1.00075e-06
5.78288e-06
1.71023e-06
2.29927e-06
2.39705e-06
-7.18439e-07
2.93217e-06
-3.29417e-06
3.36441e-06
-5.40851e-06
3.67845e-06
-7.08467e-06
3.88953e-06
-8.35069e-06
4.01595e-06
-9.2232e-06
4.07035e-06
-9.71854e-06
4.06795e-06
-9.85752e-06
4.02668e-06
-9.66434e-06
3.96339e-06
-9.16254e-06
3.88866e-06
-8.37984e-06
3.81535e-06
-7.348e-06
3.75247e-06
-6.10265e-06
3.70573e-06
-4.68186e-06
3.67725e-06
-3.12847e-06
3.66943e-06
-1.48996e-06
3.67825e-06
3.17925e-06
6.83226e-06
-4.82041e-06
1.44875e-05
-5.59181e-06
2.18055e-05
-5.72165e-06
2.85911e-05
-5.80819e-06
3.47267e-05
-5.86379e-06
3.99513e-05
-5.89774e-06
4.41026e-05
-5.89568e-06
4.73256e-05
-5.82678e-06
4.92897e-05
-5.71517e-06
5.01205e-05
-5.50921e-06
4.98609e-05
-5.20434e-06
4.85778e-05
-4.79221e-06
4.63652e-05
-4.27317e-06
4.33464e-05
-3.65836e-06
3.96798e-05
-2.9708e-06
3.5511e-05
-2.20643e-06
3.09761e-05
-1.377e-06
2.62366e-05
-5.33514e-07
2.14381e-05
3.06491e-07
1.66712e-05
1.16039e-06
1.20961e-05
1.91077e-06
7.77616e-06
2.62458e-06
3.75029e-06
3.28785e-06
3.40311e-08
3.8496e-06
-3.26995e-06
4.30445e-06
-6.19811e-06
4.63977e-06
-8.66594e-06
4.86652e-06
-1.07119e-05
4.97893e-06
-1.23138e-05
4.96737e-06
-1.35045e-05
4.87125e-06
-1.43075e-05
4.69485e-06
-1.47399e-05
4.44968e-06
-1.48201e-05
4.15125e-06
-1.45659e-05
3.81435e-06
-1.39964e-05
3.4578e-06
-1.31348e-05
3.10184e-06
-1.20172e-05
2.77038e-06
-1.06741e-05
2.47103e-06
-9.13648e-06
2.21313e-06
-7.43765e-06
2.00487e-06
-5.61247e-06
1.84988e-06
-3.69624e-06
1.75104e-06
-1.72385e-06
1.70398e-06
1.45513e-06
3.56817e-06
-8.38905e-06
7.56923e-06
-9.59325e-06
1.133e-05
-9.48444e-06
1.47276e-05
-9.2075e-06
1.76496e-05
-8.78371e-06
1.99724e-05
-8.21891e-06
2.15991e-05
-7.52241e-06
2.24801e-05
-6.7077e-06
2.25521e-05
-5.78708e-06
2.18205e-05
-4.77794e-06
2.03126e-05
-3.69641e-06
1.81146e-05
-2.59417e-06
1.53046e-05
-1.46357e-06
1.19338e-05
-2.88679e-07
8.20357e-06
7.58093e-07
4.20257e-06
1.79355e-06
-7.67232e-08
2.90156e-06
-4.30073e-06
3.68937e-06
-8.3956e-06
4.39939e-06
-1.23127e-05
5.07532e-06
-1.60267e-05
5.6235e-06
-1.94415e-05
6.03923e-06
-2.24758e-05
6.32175e-06
-2.50905e-05
6.4635e-06
-2.72475e-05
6.46142e-06
-2.89315e-05
6.32513e-06
-3.01293e-05
6.06627e-06
-3.08463e-05
5.69746e-06
-3.11106e-05
5.23316e-06
-3.09328e-05
4.69544e-06
-3.03309e-05
4.09518e-06
-2.93285e-05
3.44901e-06
-2.79679e-05
2.79167e-06
-2.63016e-05
2.14899e-06
-2.43574e-05
1.51448e-06