/*--------------------------------*- C++ -*----------------------------------*\
  =========                 |
  \\      /  F ield         | OpenFOAM: The Open Source CFD Toolbox
   \\    /   O peration     | Website:  https://openfoam.org
    \\  /    A nd           | Version:  7
     \\/     M anipulation  |
\*---------------------------------------------------------------------------*/
FoamFile
{
    version     2.0;
    format      ascii;
    class       volScalarField;
    location    "0.8";
    object      p;
}
// * * * * * * * * * * * * * * * * * * * * * * * * * * * * * * * * * * * * * //

dimensions      [0 2 -2 0 0 0 0];

internalField   nonuniform List<scalar> 
900
(
1.90282e-08
-0.000143567
-0.000190976
-0.000143229
8.23425e-06
0.000262992
0.000615122
0.00105838
0.00158608
0.00219139
0.00286638
0.00360209
0.00438892
0.00521632
0.00607285
0.00694633
0.00782395
0.00869238
0.00953787
0.0103466
0.0111051
0.0117995
0.0124169
0.0129454
0.0133732
0.0136898
0.0138857
0.0139597
0.0139216
0.0137724
0.000142403
-2.73882e-06
-2.70835e-05
3.75661e-05
0.000193081
0.000442803
0.000784615
0.00121399
0.0017255
0.00231273
0.00296817
0.00368309
0.00444816
0.00525311
0.00608669
0.00693696
0.0077914
0.0086369
0.00945993
0.010247
0.0109848
0.01166
0.0122599
0.0127732
0.0131895
0.0135
0.0136996
0.0137908
0.0137766
0.0136259
0.000191425
1.73027e-05
-9.11223e-06
5.77985e-05
0.000213687
0.000462061
0.00080127
0.00122727
0.00173493
0.00231821
0.00296974
0.00368088
0.00444248
0.00524435
0.00607528
0.00692339
0.00777613
0.00862043
0.00944268
0.0102293
0.010967
0.0116423
0.0122425
0.0127562
0.0131732
0.0134849
0.0136865
0.0137806
0.0137638
0.0135821
0.000146425
-5.55266e-05
-8.90918e-05
-2.36132e-05
0.000132379
0.000381807
0.000722751
0.00115121
0.00166214
0.00224966
0.00290649
0.00362402
0.00439315
0.00520369
0.00604437
0.00690321
0.00776756
0.00862414
0.0094591
0.0102586
0.0110091
0.0116965
0.012308
0.0128317
0.013257
0.0135751
0.0137803
0.0138746
0.0138504
0.013639
-5.47374e-06
-0.000227616
-0.000267563
-0.000203534
-4.62075e-05
0.000206968
0.000553778
0.000990134
0.00151093
0.00211037
0.00278116
0.00351461
0.0043016
0.00513185
0.00599394
0.00687565
0.0077641
0.00864564
0.00950601
0.0103309
0.0111061
0.0118171
0.0124501
0.0129928
0.0134338
0.0137635
0.0139755
0.0140712
0.0140411
0.0138077
-0.000269737
-0.000508403
-0.000553848
-0.000490322
-0.000329665
-6.94683e-05
0.000287811
0.000737935
0.00127568
0.0018952
0.00258912
0.00334863
0.00416446
0.00502613
0.00592199
0.00683948
0.00776531
0.00868535
0.00958472
0.0104484
0.0112614
0.0120082
0.012674
0.0132455
0.0137103
0.0140577
0.0142806
0.0143798
0.0143451
0.014093
-0.000648685
-0.000903624
-0.00095406
-0.000889738
-0.000723378
-0.000452574
-7.99811e-05
0.000389983
0.000951936
0.00159989
0.00232635
0.00312229
0.00397821
0.00488336
0.00582574
0.00679237
0.00776944
0.00874214
0.00969481
0.0106115
0.0114762
0.0122719
0.0129828
0.013594
0.0140916
0.0144637
0.0147021
0.0148076
0.0147691
0.0144975
-0.00114615
-0.00141915
-0.00147444
-0.00140796
-0.00123336
-0.000948192
-0.000555279
-5.92477e-05
0.000534311
0.00121923
0.00198781
0.00283077
0.00373828
0.00469928
0.00570134
0.00673096
0.00777369
0.00881394
0.00983508
0.01082
0.0117513
0.0126105
0.0133799
0.0140428
0.0145835
0.0149883
0.0152478
0.0153625
0.0153207
0.0150266
-0.00176836
-0.00206247
-0.00212287
-0.00205292
-0.00186749
-0.00156404
-0.00114562
-0.000617102
1.56799e-05
0.000746309
0.00156685
0.0024677
0.00343867
0.0044683
0.00554368
0.00665075
0.00777436
0.00889797
0.0100039
0.0110736
0.012088
0.0130267
0.0138697
0.0145981
0.0151937
0.0156406
0.0159275
0.0160547
0.0160099
0.0156888
-0.00252387
-0.00284302
-0.00290905
-0.0028344
-0.00263547
-0.00230969
-0.00186037
-0.00129268
-0.000612781
0.000172603
0.00105526
0.00202523
0.00307191
0.00418342
0.00534635
0.00654603
0.00776658
0.00899044
0.0101987
0.0113713
0.0124871
0.0135233
0.0144574
0.0152673
0.0159316
0.0164315
0.0167535
0.0168973
0.0168494
0.0164957
-0.00342352
-0.00377239
-0.00384481
-0.00376425
-0.00354903
-0.00319664
-0.00271074
-0.00209689
-0.00136165
-0.000512104
0.000443197
0.0014939
0.00262898
0.00383612
0.00510142
0.00640959
0.00774408
0.00908624
0.0104159
0.0117113
0.012949
0.0141033
0.0151485
0.0160587
0.0168083
0.0173747
0.0177409
0.017906
0.0178551
0.0174619
-0.0044806
-0.00486463
-0.00494442
-0.00485669
-0.00462219
-0.0042386
-0.00371006
-0.00304264
-0.00224339
-0.00131984
-0.000280935
0.000862559
0.00209916
0.00341615
0.0047992
0.0062324
0.0076988
0.00917854
0.0106502
0.0120903
0.0134729
0.014769
0.0159488
0.0169818
0.0178369
0.018486
0.0189081
0.0191005
0.0190466
0.0186054
-0.00571104
-0.00613665
-0.00622495
-0.00612863
-0.00587156
-0.00545172
-0.00487395
-0.00414499
-0.0032725
-0.00226458
-0.0011306
0.000118193
0.00146988
0.00291139
0.00442801
0.00600316
0.00762051
0.00925831
0.0108943
0.0125033
0.0140565
0.0155215
0.0168638
0.0180466
0.0190319
0.0197846
0.0202771
0.0205045
0.0204477
0.0199481
-0.00713386
-0.00760868
-0.00770682
-0.00760023
-0.00731674
-0.00685494
-0.00622062
-0.00542139
-0.00446569
-0.00336232
-0.00212122
-0.000754115
0.000726634
0.00230768
0.00397434
0.00571069
0.00749675
0.00931374
0.0111378
0.012942
0.0146949
0.0163602
0.0178977
0.0192633
0.02041
0.0212926
0.0218748
0.0221473
0.0220879
0.021516
-0.00877166
-0.00930501
-0.00941444
-0.00929541
-0.00898085
-0.00847038
-0.00777113
-0.00689183
-0.00584195
-0.0046312
-0.0032702
-0.00177123
-0.000147105
0.00158864
0.00342129
0.00533481
0.00731092
0.00932945
0.0113666
0.0133944
0.0153792
0.0172806
0.0190524
0.0206413
0.0219888
0.0230358
0.0237334
0.024065
0.0240035
0.0233409
-0.0106515
-0.011255
-0.0113773
-0.0112428
-0.0108912
-0.0103239
-0.00954981
-0.00857917
-0.00742277
-0.0060915
-0.00459686
-0.00295183
-0.00116964
0.00073607
0.00275089
0.00485938
0.00704433
0.0092862
0.0115618
0.013843
0.0160948
0.0182731
0.0203254
0.0221875
0.0237861
0.0250436
0.0258918
0.0263025
0.0262399
0.0254609
-0.0128061
-0.0134946
-0.0136311
-0.0134767
-0.0130803
-0.0124458
-0.0115847
-0.0105093
-0.00923213
-0.00776555
-0.00612227
-0.00431613
-0.00236085
-0.000270033
0.0019425
0.00426243
0.00667415
0.00916
0.0116987
0.0142635
0.0168193
0.0193199
0.0217066
0.0239033
0.0258182
0.0273483
0.028397
0.0289161
0.0288553
0.0279226
-0.0152758
-0.0160687
-0.0162202
-0.016039
-0.0155867
-0.0148714
-0.013908
-0.0127115
-0.0112965
-0.00967755
-0.00786887
-0.00588543
-0.0037416
-0.00145089
0.000973767
0.00351973
0.00617386
0.00892177
0.0117458
0.0146227
0.0175198
0.0203912
0.0231739
0.02578
0.0280954
0.0299833
0.0313051
0.0319784
0.0319258
0.0307827
-0.0181112
-0.0190344
-0.0192003
-0.0189812
-0.0184572
-0.0176425
-0.0165568
-0.0152184
-0.0136448
-0.0118532
-0.00985979
-0.00768125
-0.00533278
-0.00282785
-0.000178274
0.00260556
0.00551402
0.00853741
0.0116639
0.0148765
0.018149
0.02144
0.0246863
0.0277905
0.0306149
0.0329785
0.0346816
0.0355836
0.035555
0.0341124
-0.0213785
-0.0224669
-0.0226429
-0.0223677
-0.0217485
-0.0208086
-0.0195738
-0.0180666
-0.0163082
-0.0143189
-0.0121179
-0.00972411
-0.00715388
-0.00442083
-0.00153555
0.00149432
0.00466357
0.00796876
0.0114062
0.014969
0.018642
0.0223956
0.0261736
0.0298767
0.0333464
0.036349
0.0385981
0.039856
0.0398906
0.0380065
-0.0251674
-0.0264679
-0.026642
-0.0262798
-0.0255298
-0.0244282
-0.0230079
-0.0212965
-0.0193193
-0.0171009
-0.0146645
-0.0120317
-0.00922085
-0.00624598
-0.00311649
0.000162994
0.00359244
0.00717587
0.01092
0.0148318
0.0189135
0.0231558
0.027523
0.0319289
0.0362071
0.0400711
0.0431201
0.0449592
0.0451543
0.0426098
-0.0296071
-0.0311809
-0.0313239
-0.0308222
-0.029887
-0.0285713
-0.0269155
-0.0249521
-0.0227114
-0.0202236
-0.0175167
-0.0146163
-0.0115432
-0.00831239
-0.00493238
-0.00140479
0.00227579
0.00612141
0.0101508
0.0143875
0.0188572
0.0235816
0.028563
0.0337554
0.0390168
0.0440313
0.04827
0.0510992
0.0516917
0.0481922
-0.0348989
-0.0368147
-0.0368608
-0.0361291
-0.0349255
-0.0333208
-0.0313602
-0.02908
-0.0265165
-0.0237064
-0.0206842
-0.0174804
-0.0141194
-0.0106173
-0.00698201
-0.00321269
0.00070099
0.00477885
0.00905135
0.013559
0.0183541
0.0234985
0.0290523
0.0350479
0.0414295
0.0479283
0.0539353
0.0584995
0.0600435
0.0553504
-0.0413848
-0.0436835
-0.0434886
-0.0423714
-0.0407726
-0.0387719
-0.03641
-0.0337245
-0.030758
-0.0275559
-0.0241607
-0.0206089
-0.0169285
-0.0131371
-0.00924223
-0.00524115
-0.00111964
0.00314902
0.00760173
0.0122933
0.0173
0.0227244
0.0286967
0.0353669
0.0428571
0.0511139
0.0596606
0.0672615
0.0710103
0.0654849
-0.0497017
-0.0522674
-0.0515204
-0.0497545
-0.0475698
-0.0450198
-0.0421205
-0.0389067
-0.0354287
-0.0317429
-0.0279011
-0.0239462
-0.0199089
-0.0158075
-0.0116483
-0.00742664
-0.00312567
0.00128448
0.00584509
0.0106094
0.0156704
0.0211555
0.027253
0.034241
0.0425038
0.0524683
0.0643072
0.076945
0.0855672
0.081639
-0.0611456
-0.0632931
-0.0613163
-0.0584611
-0.0554024
-0.0520779
-0.0484462
-0.0445346
-0.0404035
-0.0361221
-0.0317506
-0.0273351
-0.0229057
-0.0184774
-0.0140528
-0.00962379
-0.00517255
-0.000669189
0.0039342
0.00866466
0.013621
0.018926
0.0247827
0.0315501
0.039872
0.050883
0.0662131
0.0862365
0.10456
0.108899
-0.0787341
-0.0778109
-0.0730797
-0.0683825
-0.0639981
-0.0595631
-0.0549362
-0.050129
-0.0452068
-0.0402417
-0.0352921
-0.0303965
-0.0255755
-0.0208342
-0.0161666
-0.0115584
-0.00698916
-0.00243318
0.00213942
0.00679773
0.0115686
0.0165595
0.0219506
0.0281209
0.0359071
0.0471724
0.0655821
0.0950016
0.129298
0.153999
-0.109895
-0.0965595
-0.0863313
-0.0784461
-0.072
-0.0660494
-0.0602218
-0.0544506
-0.0487573
-0.0431807
-0.0377502
-0.0324798
-0.0273693
-0.0224079
-0.0175776
-0.0128564
-0.00821908
-0.00363869
0.00091567
0.00548229
0.0101144
0.0149042
0.0200437
0.0259985
0.0338796
0.0462759
0.0683502
0.109562
0.16499
0.233941
-0.165129
-0.114026
-0.0976189
-0.0845194
-0.0753603
-0.0681223
-0.0616121
-0.0554317
-0.0494828
-0.0437471
-0.0382194
-0.0328916
-0.0277499
-0.0227756
-0.0179465
-0.0132385
-0.00862615
-0.00408185
0.000426335
0.00493857
0.00952634
0.014353
0.0197109
0.0263513
0.0359744
0.0524893
0.0833374
0.142153
0.232033
0.397527
-0.336098
-0.123849
-0.0802497
-0.0670185
-0.0601405
-0.0557122
-0.0520511
-0.0482631
-0.0441302
-0.0397284
-0.0351777
-0.0305696
-0.0259642
-0.0213969
-0.0168841
-0.0124288
-0.00802385
-0.00365404
0.000706355
0.00509873
0.0096062
0.0144015
0.0199397
0.0272243
0.0384807
0.0590995
0.0995966
0.185693
0.343576
0.68364
)
;

boundaryField
{
    movingWall
    {
        type            zeroGradient;
    }
    fixedWalls
    {
        type            zeroGradient;
    }
    frontAndBack
    {
        type            empty;
    }
}


// ************************************************************************* //
