/*--------------------------------*- C++ -*----------------------------------*\
  =========                 |
  \\      /  F ield         | OpenFOAM: The Open Source CFD Toolbox
   \\    /   O peration     | Website:  https://openfoam.org
    \\  /    A nd           | Version:  7
     \\/     M anipulation  |
\*---------------------------------------------------------------------------*/
FoamFile
{
    version     2.0;
    format      ascii;
    class       volScalarField;
    location    "1.04";
    object      p;
}
// * * * * * * * * * * * * * * * * * * * * * * * * * * * * * * * * * * * * * //

dimensions      [0 2 -2 0 0 0 0];

internalField   nonuniform List<scalar> 
1936
(
-3.58982e-05
-3327.49
-6410.2
-5920.53
-5305.88
-4986.1
-4604.1
-4340.37
-4144.01
-4211.37
-4646.24
-5692.54
-6826.94
-6186.84
-4154.53
-3203.06
-3242.76
-4409.73
-6870.32
-6974.74
-4515.82
-3136.02
-3016.12
-3474.99
-5377.53
-7194.81
-5944.5
-3551.84
-2905.36
-3226.23
-5179.93
-7248.19
-5962.41
-3686.88
-3066.08
-3197.48
-5089.82
-7349.81
-6114.62
-3738.14
-3066.78
-3071.52
-4308.68
-6869.71
-95.338
-3291.05
-6350.74
-5900.66
-5299.72
-4984.61
-4610.09
-4352.41
-4165.44
-4232.87
-4655.27
-5678.14
-6782.64
-6143.8
-4162.49
-3261.5
-3296.16
-4396.38
-6798.45
-6917.49
-4506.55
-3176.19
-3075.68
-3510.6
-5367.94
-7139.64
-5896.02
-3574.06
-2975.62
-3265.79
-5147.58
-7187.27
-5936.99
-3715.01
-3129.29
-3235.74
-5048.83
-7273.58
-6072.1
-3748.28
-3120.06
-3127.77
-4312.82
-6822.16
-398.649
-3190.87
-6131.47
-5851.93
-5292.03
-4978.6
-4627.53
-4382.99
-4218.38
-4288.14
-4690.04
-5648.73
-6645.2
-6016.3
-4201.15
-3408.34
-3431.41
-4385.24
-6584.82
-6741
-4513.14
-3286.21
-3215.72
-3626.49
-5356.05
-6958.44
-5762.07
-3652.02
-3144.37
-3380.23
-5077.01
-6987.62
-5869.47
-3815.74
-3278.35
-3344.67
-4957.52
-7032.68
-5959.78
-3805.57
-3244.54
-3273.06
-4352.64
-6670.85
-819.426
-3094.99
-5805.64
-5754.69
-5276.89
-4972.46
-4653.38
-4428.91
-4294.19
-4367.7
-4741.16
-5598.5
-6431.88
-5832.33
-4264.72
-3609.59
-3622.57
-4393.24
-6280.78
-6472.05
-4534.91
-3454.46
-3409.55
-3788.12
-5322.58
-6674.73
-5575.93
-3774.76
-3374.14
-3550.72
-4990.26
-6682.27
-5754.47
-3956.32
-3480.92
-3513.79
-4854.11
-6677.05
-5791.69
-3904.96
-3423.89
-3473.06
-4409.1
-6432.55
-1298.23
-3041.64
-5427.86
-5606.59
-5243.92
-4964.11
-4684.18
-4486.4
-4382.45
-4458.17
-4795.72
-5527.48
-6173.12
-5623.62
-4341.29
-3829.14
-3835.51
-4421.21
-5943.84
-6155.05
-4568.01
-3657.31
-3627.36
-3963.87
-5264.57
-6334.77
-5372.83
-3920.17
-3621.8
-3747.56
-4905.14
-6325.13
-5605.46
-4106.54
-3700.03
-3714.42
-4762.76
-6271.66
-5594.01
-4031.23
-3631.91
-3690.25
-4465.48
-6145.94
-1795.89
-3053.12
-5047.12
-5411.4
-5184.21
-4948.71
-4715.65
-4550.65
-4475.18
-4549.31
-4842.93
-5435.83
-5895.58
-5415.46
-4423.41
-4042.42
-4045.22
-4466.46
-5619.05
-5826.26
-4606.87
-3872.34
-3848.48
-4134.33
-5181.24
-5977.18
-5178.91
-4072
-3859.97
-3947.77
-4832.55
-5959.49
-5433.88
-4248.5
-3912.97
-3920.82
-4697.2
-5869.06
-5386.31
-4168.58
-3847.18
-3900.9
-4514.86
-5841.7
-2282.8
-3134.96
-4707.17
-5183.93
-5093.74
-4921.21
-4742.41
-4615.04
-4564.4
-4631.63
-4876.25
-5326.62
-5623.38
-5226.99
-4505.26
-4234.93
-4234.32
-4522.54
-5336.65
-5516.39
-4642.93
-4079.97
-4057.7
-4286.23
-5079.47
-5634.59
-5013.35
-4216.76
-4072.9
-4133.6
-4778.81
-5617.39
-5254.12
-4371.12
-4106.74
-4113.61
-4660.24
-5506.17
-5185.6
-4301.34
-4051.68
-4092.16
-4556.83
-5544.77
-2735.42
-3278.44
-4440.81
-4948.66
-4976.85
-4878.52
-4758.66
-4671.81
-4642.08
-4699.4
-4890.69
-5206.74
-5376.64
-5071.59
-4581.06
-4397.93
-4393.09
-4580.95
-5111.49
-5247.46
-4670.04
-4263.91
-4242.88
-4414.14
-4970.66
-5331.99
-4885.49
-4345.81
-4252.64
-4294.7
-4743.4
-5320.35
-5081.66
-4470.43
-4273.48
-4280.35
-4646.1
-5205.68
-5006.85
-4415.6
-4231.43
-4257.63
-4592.15
-5276.14
-3134.67
-3464.03
-4265.76
-4734.01
-4845.67
-4820.32
-4760.03
-4713.62
-4701.82
-4747.87
-4885.22
-5086.25
-5168.8
-4954.5
-4646.51
-4526.41
-4517.25
-4633.76
-4946.26
-5032.72
-4684.88
-4414.81
-4396.25
-4514.32
-4869.57
-5085.52
-4794.58
-4454.87
-4396.27
-4426.48
-4720.33
-5080.93
-4932.24
-4545.62
-4408.56
-4414.32
-4645.03
-4977.59
-4861.92
-4504.71
-4377.86
-4394.18
-4619.4
-5051.04
-3467.88
-3665.3
-4181.82
-4564.75
-4717.32
-4751.76
-4745.13
-4735.77
-4739.62
-4774.84
-4863.05
-4975.79
-5006.51
-4872.78
-4695.52
-4619.82
-4608.33
-4673.63
-4834.46
-4877.85
-4689.77
-4528.49
-4513.32
-4586.05
-4787.65
-4902.69
-4734.47
-4540.38
-4504.25
-4527.75
-4703.35
-4902.88
-4816.99
-4596.98
-4510.97
-4514.92
-4647.58
-4820.39
-4757.56
-4566.49
-4488.97
-4499.5
-4636.46
-4878.86
-3732.08
-3856.21
-4170.99
-4454.26
-4609.38
-4682.13
-4717.22
-4737.75
-4754.84
-4781.21
-4830.26
-4883.58
-4889.59
-4817.25
-4725.47
-4680.26
-4668.82
-4698.08
-4765.53
-4779.53
-4689.87
-4605.82
-4593.46
-4631.88
-4729.92
-4781.51
-4697.78
-4600.32
-4579.96
-4597.72
-4689.64
-4783.46
-4738.65
-4628.5
-4581.08
-4583.62
-4649.78
-4724.59
-4692.99
-4605.01
-4565.45
-4572.32
-4644.4
-4761.32
-3934.14
-4018.46
-4205.37
-4399.5
-4533.96
-4622.34
-4682.48
-4723.64
-4750.21
-4770.74
-4793.52
-4813.08
-4811.06
-4778.62
-4737.53
-4712.82
-4702.73
-4709.35
-4727.58
-4726.35
-4688.86
-4651.13
-4641.86
-4657.09
-4694.97
-4712.33
-4677.71
-4636.89
-4627.59
-4638.97
-4678.74
-4713.35
-4692.55
-4645.32
-4623.23
-4624.76
-4651.23
-4675.27
-4660.42
-4626.97
-4611.76
-4615.81
-4646.42
-4691.83
-4084.32
-4146.46
-4259.91
-4385.41
-4492.82
-4579.77
-4648.7
-4699.2
-4730.9
-4748.06
-4757.85
-4762.84
-4760.92
-4750.44
-4736.18
-4724.7
-4716.36
-4711.65
-4709.1
-4702.44
-4687.92
-4672.97
-4666.44
-4668.45
-4677.31
-4679.95
-4668.56
-4655.76
-4653.17
-4658.52
-4670.88
-4678.65
-4669.62
-4652.96
-4644.94
-4645.8
-4652.55
-4655.62
-4648.72
-4639.17
-4635.88
-4637.5
-4646.03
-4657.84
-4199.47
-4242.45
-4313.95
-4396.69
-4478.65
-4554.55
-4620.28
-4670.72
-4703.14
-4719.66
-4726.17
-4728.33
-4729.3
-4729.3
-4727.52
-4723.49
-4717.11
-4709.01
-4700.66
-4693.25
-4686.58
-4680.69
-4675.8
-4672.24
-4670.37
-4668.51
-4665.66
-4663.69
-4663.95
-4665.12
-4666.06
-4664.73
-4660.58
-4656.11
-4654.48
-4654.57
-4654.09
-4651.21
-4647.56
-4645.91
-4646.41
-4646.21
-4645.67
-4645.47
-4290.43
-4317.26
-4362.77
-4418.65
-4480
-4541.63
-4597.79
-4642.84
-4673.57
-4690.94
-4699.33
-4703.91
-4708.21
-4712.72
-4715.79
-4715.68
-4711.41
-4704.04
-4695.99
-4689.5
-4685.07
-4681.52
-4677.45
-4672.71
-4668.42
-4665.84
-4665.32
-4666.08
-4666.72
-4665.97
-4663.6
-4660.55
-4658.24
-4657.59
-4657.91
-4657.74
-4655.67
-4652.4
-4649.98
-4649.75
-4650.28
-4649.14
-4646.27
-4643.62
-4363.52
-4378.87
-4407.18
-4444.78
-4488.99
-4536.15
-4580.87
-4618.59
-4646.56
-4665
-4676.62
-4684.76
-4691.85
-4698.29
-4702.95
-4704.46
-4702.33
-4697.49
-4691.78
-4686.79
-4683.07
-4679.81
-4676.22
-4672.16
-4668.51
-4666.32
-4665.89
-4666.31
-4666.35
-4665.03
-4662.58
-4660.12
-4658.77
-4658.64
-4658.96
-4658.51
-4656.8
-4654.41
-4652.61
-4651.93
-4651.51
-4650.02
-4647.56
-4645.43
-4421.72
-4430.28
-4447.48
-4472.06
-4502.5
-4536.22
-4570.03
-4600.17
-4624.65
-4643.19
-4657
-4667.78
-4676.78
-4684.24
-4689.62
-4692.28
-4692.14
-4689.89
-4686.61
-4683.28
-4680.25
-4677.38
-4674.38
-4671.32
-4668.7
-4666.98
-4666.21
-4665.87
-4665.27
-4664.02
-4662.32
-4660.73
-4659.76
-4659.42
-4659.26
-4658.67
-4657.46
-4655.87
-4654.4
-4653.3
-4652.27
-4650.87
-4649.24
-4648.04
-4467.35
-4472.31
-4482.79
-4498.5
-4518.69
-4541.82
-4565.86
-4588.84
-4609.14
-4626.24
-4640.38
-4652.15
-4662.01
-4670.03
-4676.01
-4679.75
-4681.36
-4681.28
-4680.12
-4678.43
-4676.49
-4674.41
-4672.25
-4670.14
-4668.34
-4666.99
-4666.06
-4665.32
-4664.48
-4663.44
-4662.28
-4661.24
-4660.46
-4659.93
-4659.43
-4658.75
-4657.82
-4656.67
-4655.48
-4654.35
-4653.24
-4652.1
-4651.08
-4650.41
-4502.76
-4505.83
-4512.4
-4522.42
-4535.55
-4550.97
-4567.6
-4584.33
-4600.18
-4614.61
-4627.43
-4638.66
-4648.33
-4656.38
-4662.73
-4667.32
-4670.3
-4671.9
-4672.46
-4672.3
-4671.64
-4670.66
-4669.49
-4668.28
-4667.16
-4666.21
-4665.4
-4664.64
-4663.87
-4663.04
-4662.22
-4661.46
-4660.81
-4660.2
-4659.6
-4658.91
-4658.12
-4657.23
-4656.29
-4655.34
-4654.42
-4653.59
-4652.92
-4652.52
-4530.06
-4532.07
-4536.31
-4542.79
-4551.34
-4561.54
-4572.86
-4584.69
-4596.53
-4607.9
-4618.54
-4628.27
-4636.96
-4644.49
-4650.77
-4655.8
-4659.61
-4662.37
-4664.21
-4665.33
-4665.89
-4666.02
-4665.86
-4665.51
-4665.08
-4664.62
-4664.14
-4663.64
-4663.1
-4662.53
-4661.96
-4661.4
-4660.86
-4660.32
-4659.76
-4659.15
-4658.5
-4657.81
-4657.09
-4656.39
-4655.72
-4655.14
-4654.71
-4654.45
-4550.86
-4552.22
-4555.03
-4559.31
-4564.96
-4571.78
-4579.48
-4587.77
-4596.34
-4604.93
-4613.27
-4621.19
-4628.52
-4635.15
-4640.98
-4645.98
-4650.14
-4653.52
-4656.19
-4658.23
-4659.74
-4660.82
-4661.54
-4661.99
-4662.24
-4662.34
-4662.32
-4662.2
-4662.01
-4661.75
-4661.44
-4661.1
-4660.73
-4660.33
-4659.9
-4659.44
-4658.96
-4658.46
-4657.96
-4657.48
-4657.04
-4656.66
-4656.38
-4656.22
-4566.35
-4567.29
-4569.21
-4572.11
-4575.94
-4580.6
-4585.92
-4591.77
-4597.96
-4604.32
-4610.69
-4616.92
-4622.9
-4628.51
-4633.67
-4638.33
-4642.46
-4646.06
-4649.14
-4651.73
-4653.89
-4655.65
-4657.06
-4658.18
-4659.03
-4659.68
-4660.15
-4660.46
-4660.64
-4660.72
-4660.71
-4660.62
-4660.48
-4660.28
-4660.04
-4659.76
-4659.46
-4659.15
-4658.84
-4658.54
-4658.27
-4658.05
-4657.88
-4657.79
-4576.63
-4577.32
-4578.7
-4580.8
-4583.58
-4586.96
-4590.87
-4595.21
-4599.87
-4604.75
-4609.76
-4614.77
-4619.7
-4624.47
-4629
-4633.24
-4637.16
-4640.73
-4643.93
-4646.78
-4649.28
-4651.44
-4653.29
-4654.86
-4656.17
-4657.25
-4658.12
-4658.8
-4659.33
-4659.72
-4659.98
-4660.15
-4660.22
-4660.23
-4660.17
-4660.07
-4659.94
-4659.78
-4659.62
-4659.45
-4659.3
-4659.17
-4659.08
-4659.03
-4582.47
-4583.02
-4584.12
-4585.79
-4588.01
-4590.72
-4593.88
-4597.4
-4601.23
-4605.29
-4609.5
-4613.78
-4618.07
-4622.29
-4626.39
-4630.33
-4634.05
-4637.53
-4640.74
-4643.68
-4646.33
-4648.7
-4650.8
-4652.63
-4654.22
-4655.57
-4656.71
-4657.65
-4658.42
-4659.03
-4659.5
-4659.85
-4660.1
-4660.25
-4660.34
-4660.36
-4660.34
-4660.29
-4660.22
-4660.14
-4660.06
-4659.99
-4659.94
-4659.91
-4585.48
-4585.96
-4586.92
-4588.37
-4590.3
-4592.67
-4595.44
-4598.54
-4601.94
-4605.56
-4609.34
-4613.24
-4617.17
-4621.1
-4624.95
-4628.7
-4632.3
-4635.72
-4638.92
-4641.9
-4644.63
-4647.12
-4649.35
-4651.34
-4653.09
-4654.61
-4655.92
-4657.02
-4657.94
-4658.7
-4659.3
-4659.77
-4660.12
-4660.38
-4660.55
-4660.65
-4660.7
-4660.72
-4660.7
-4660.67
-4660.63
-4660.59
-4660.55
-4660.54
-4586.88
-4587.33
-4588.2
-4589.54
-4591.33
-4593.53
-4596.1
-4598.99
-4602.17
-4605.57
-4609.15
-4612.84
-4616.6
-4620.37
-4624.11
-4627.77
-4631.32
-4634.71
-4637.92
-4640.93
-4643.72
-4646.27
-4648.6
-4650.68
-4652.54
-4654.16
-4655.57
-4656.78
-4657.79
-4658.63
-4659.31
-4659.85
-4660.27
-4660.58
-4660.81
-4660.96
-4661.05
-4661.09
-4661.1
-4661.09
-4661.07
-4661.05
-4661.03
-4661.01
-4587.35
-4587.77
-4588.61
-4589.9
-4591.62
-4593.74
-4596.22
-4599.02
-4602.1
-4605.4
-4608.89
-4612.5
-4616.19
-4619.91
-4623.6
-4627.24
-4630.78
-4634.17
-4637.41
-4640.45
-4643.29
-4645.9
-4648.29
-4650.44
-4652.36
-4654.05
-4655.52
-4656.79
-4657.86
-4658.75
-4659.47
-4660.05
-4660.5
-4660.84
-4661.08
-4661.25
-4661.36
-4661.41
-4661.44
-4661.43
-4661.42
-4661.4
-4661.38
-4661.37
-4587.3
-4587.71
-4588.54
-4589.81
-4591.51
-4593.61
-4596.06
-4598.83
-4601.88
-4605.17
-4608.63
-4612.23
-4615.91
-4619.62
-4623.33
-4626.98
-4630.53
-4633.95
-4637.22
-4640.3
-4643.17
-4645.83
-4648.25
-4650.45
-4652.41
-4654.13
-4655.64
-4656.93
-4658.03
-4658.94
-4659.68
-4660.27
-4660.73
-4661.07
-4661.32
-4661.49
-4661.59
-4661.65
-4661.67
-4661.66
-4661.65
-4661.62
-4661.6
-4661.59
-4587.06
-4587.47
-4588.29
-4589.57
-4591.27
-4593.37
-4595.83
-4598.61
-4601.67
-4604.97
-4608.45
-4612.07
-4615.78
-4619.52
-4623.25
-4626.92
-4630.51
-4633.96
-4637.25
-4640.36
-4643.26
-4645.94
-4648.39
-4650.6
-4652.57
-4654.31
-4655.82
-4657.12
-4658.21
-4659.12
-4659.85
-4660.43
-4660.88
-4661.21
-4661.44
-4661.6
-4661.69
-4661.73
-4661.74
-4661.73
-4661.7
-4661.68
-4661.65
-4661.64
-4586.81
-4587.22
-4588.05
-4589.33
-4591.05
-4593.17
-4595.65
-4598.47
-4601.56
-4604.9
-4608.42
-4612.07
-4615.81
-4619.58
-4623.35
-4627.05
-4630.66
-4634.14
-4637.45
-4640.58
-4643.49
-4646.17
-4648.62
-4650.83
-4652.79
-4654.52
-4656.01
-4657.28
-4658.35
-4659.23
-4659.93
-4660.48
-4660.9
-4661.2
-4661.4
-4661.53
-4661.6
-4661.62
-4661.62
-4661.59
-4661.56
-4661.52
-4661.49
-4661.48
-4586.67
-4587.09
-4587.91
-4589.21
-4590.95
-4593.1
-4595.62
-4598.48
-4601.61
-4604.98
-4608.54
-4612.23
-4616.01
-4619.81
-4623.6
-4627.33
-4630.96
-4634.45
-4637.77
-4640.89
-4643.8
-4646.47
-4648.9
-4651.08
-4653.02
-4654.71
-4656.16
-4657.39
-4658.41
-4659.24
-4659.89
-4660.39
-4660.75
-4661.01
-4661.17
-4661.26
-4661.29
-4661.29
-4661.26
-4661.22
-4661.17
-4661.13
-4661.1
-4661.08
-4586.72
-4587.13
-4587.96
-4589.28
-4591.05
-4593.23
-4595.79
-4598.67
-4601.84
-4605.24
-4608.83
-4612.55
-4616.34
-4620.17
-4623.98
-4627.72
-4631.35
-4634.84
-4638.15
-4641.27
-4644.16
-4646.8
-4649.2
-4651.35
-4653.24
-4654.88
-4656.28
-4657.45
-4658.4
-4659.16
-4659.75
-4660.18
-4660.47
-4660.66
-4660.76
-4660.79
-4660.77
-4660.73
-4660.66
-4660.6
-4660.54
-4660.5
-4660.46
-4660.44
-4587
-4587.41
-4588.25
-4589.58
-4591.37
-4593.57
-4596.14
-4599.04
-4602.22
-4605.64
-4609.24
-4612.96
-4616.77
-4620.6
-4624.42
-4628.16
-4631.79
-4635.27
-4638.57
-4641.67
-4644.53
-4647.15
-4649.51
-4651.61
-4653.45
-4655.03
-4656.36
-4657.47
-4658.35
-4659.03
-4659.53
-4659.88
-4660.09
-4660.19
-4660.21
-4660.16
-4660.07
-4659.96
-4659.85
-4659.74
-4659.67
-4659.61
-4659.57
-4659.56
-4587.56
-4587.97
-4588.81
-4590.13
-4591.92
-4594.11
-4596.67
-4599.55
-4602.72
-4606.12
-4609.71
-4613.43
-4617.24
-4621.07
-4624.88
-4628.61
-4632.24
-4635.71
-4638.99
-4642.07
-4644.9
-4647.49
-4649.81
-4651.86
-4653.65
-4655.17
-4656.44
-4657.47
-4658.27
-4658.87
-4659.29
-4659.54
-4659.66
-4659.66
-4659.57
-4659.43
-4659.24
-4659.03
-4658.84
-4658.67
-4658.54
-4658.46
-4658.43
-4658.43
-4588.44
-4588.84
-4589.65
-4590.93
-4592.66
-4594.8
-4597.3
-4600.14
-4603.26
-4606.63
-4610.2
-4613.91
-4617.7
-4621.52
-4625.32
-4629.05
-4632.66
-4636.12
-4639.39
-4642.44
-4645.25
-4647.81
-4650.09
-4652.1
-4653.84
-4655.3
-4656.51
-4657.47
-4658.2
-4658.72
-4659.04
-4659.21
-4659.22
-4659.12
-4658.92
-4658.66
-4658.35
-4658.02
-4657.7
-4657.42
-4657.2
-4657.04
-4657
-4657.02
-4589.7
-4590.04
-4590.79
-4591.93
-4593.55
-4595.57
-4597.98
-4600.74
-4603.8
-4607.13
-4610.66
-4614.35
-4618.12
-4621.93
-4625.72
-4629.44
-4633.05
-4636.5
-4639.75
-4642.79
-4645.58
-4648.1
-4650.35
-4652.32
-4654.02
-4655.43
-4656.58
-4657.48
-4658.14
-4658.58
-4658.83
-4658.9
-4658.82
-4658.62
-4658.3
-4657.91
-4657.46
-4656.99
-4656.51
-4656.05
-4655.68
-4655.37
-4655.27
-4655.26
-4591.46
-4591.6
-4592.18
-4593.07
-4594.5
-4596.36
-4598.65
-4601.31
-4604.3
-4607.57
-4611.06
-4614.72
-4618.48
-4622.29
-4626.07
-4629.78
-4633.38
-4636.83
-4640.07
-4643.09
-4645.86
-4648.37
-4650.59
-4652.53
-4654.18
-4655.56
-4656.66
-4657.5
-4658.1
-4658.48
-4658.65
-4658.65
-4658.48
-4658.18
-4657.75
-4657.24
-4656.65
-4656.01
-4655.35
-4654.67
-4654.07
-4653.48
-4653.24
-4653.05
-4593.86
-4593.47
-4593.76
-4594.25
-4595.44
-4597.1
-4599.24
-4601.8
-4604.71
-4607.93
-4611.39
-4615.03
-4618.78
-4622.57
-4626.35
-4630.07
-4633.66
-4637.1
-4640.34
-4643.35
-4646.11
-4648.6
-4650.8
-4652.71
-4654.34
-4655.67
-4656.74
-4657.54
-4658.09
-4658.41
-4658.52
-4658.45
-4658.2
-4657.82
-4657.3
-4656.67
-4655.95
-4655.14
-4654.29
-4653.36
-4652.47
-4651.46
-4650.95
-4650.26
-4597.02
-4595.56
-4595.4
-4595.37
-4596.28
-4597.73
-4599.74
-4602.19
-4605.04
-4608.21
-4611.64
-4615.27
-4619.01
-4622.8
-4626.57
-4630.29
-4633.88
-4637.32
-4640.56
-4643.56
-4646.31
-4648.79
-4650.98
-4652.87
-4654.47
-4655.78
-4656.81
-4657.58
-4658.09
-4658.37
-4658.43
-4658.3
-4658
-4657.54
-4656.94
-4656.21
-4655.38
-4654.43
-4653.39
-4652.21
-4651
-4649.45
-4648.52
-4646.76
-4601.04
-4597.69
-4596.94
-4596.33
-4596.96
-4598.22
-4600.11
-4602.48
-4605.27
-4608.41
-4611.82
-4615.43
-4619.17
-4622.96
-4626.74
-4630.45
-4634.05
-4637.49
-4640.72
-4643.73
-4646.47
-4648.94
-4651.11
-4652.99
-4654.58
-4655.87
-4656.88
-4657.62
-4658.1
-4658.34
-4658.37
-4658.2
-4657.85
-4657.34
-4656.68
-4655.88
-4654.95
-4653.88
-4652.69
-4651.27
-4649.76
-4647.61
-4646.13
-4642.45
-4605.84
-4599.64
-4598.23
-4597.07
-4597.46
-4598.57
-4600.36
-4602.67
-4605.42
-4608.54
-4611.94
-4615.54
-4619.27
-4623.06
-4626.84
-4630.56
-4634.16
-4637.6
-4640.84
-4643.84
-4646.58
-4649.04
-4651.21
-4653.09
-4654.66
-4655.94
-4656.93
-4657.65
-4658.11
-4658.34
-4658.34
-4658.14
-4657.76
-4657.21
-4656.51
-4655.65
-4654.66
-4653.51
-4652.19
-4650.6
-4648.83
-4646.12
-4644
-4637.44
-4611.07
-4601.2
-4599.14
-4597.55
-4597.78
-4598.78
-4600.51
-4602.78
-4605.51
-4608.61
-4612
-4615.6
-4619.33
-4623.13
-4626.91
-4630.63
-4634.23
-4637.67
-4640.91
-4643.91
-4646.65
-4649.11
-4651.28
-4653.14
-4654.71
-4655.98
-4656.96
-4657.67
-4658.12
-4658.33
-4658.32
-4658.11
-4657.71
-4657.14
-4656.41
-4655.52
-4654.49
-4653.28
-4651.89
-4650.18
-4648.23
-4645.09
-4642.33
-4632.07
-4616
-4602.18
-4599.63
-4597.81
-4597.94
-4598.88
-4600.58
-4602.84
-4605.55
-4608.64
-4612.03
-4615.63
-4619.36
-4623.15
-4626.94
-4630.66
-4634.26
-4637.7
-4640.94
-4643.94
-4646.68
-4649.14
-4651.3
-4653.17
-4654.73
-4656
-4656.98
-4657.68
-4658.13
-4658.33
-4658.32
-4658.09
-4657.68
-4657.1
-4656.36
-4655.46
-4654.41
-4653.17
-4651.75
-4649.97
-4647.93
-4644.55
-4641.3
-4627.06
-4619.95
-4602.61
-4599.8
-4597.89
-4597.99
-4598.91
-4600.61
-4602.85
-4605.57
-4608.66
-4612.04
-4615.64
-4619.37
-4623.16
-4626.95
-4630.67
-4634.27
-4637.71
-4640.95
-4643.95
-4646.69
-4649.15
-4651.31
-4653.18
-4654.74
-4656
-4656.98
-4657.69
-4658.13
-4658.33
-4658.31
-4658.09
-4657.68
-4657.09
-4656.35
-4655.44
-4654.38
-4653.14
-4651.7
-4649.91
-4647.83
-4644.36
-4640.86
-4623.09
)
;

boundaryField
{
    movingWall
    {
        type            zeroGradient;
    }
    fixedWalls
    {
        type            zeroGradient;
    }
    frontAndBack
    {
        type            empty;
    }
    defaultFaces
    {
        type            empty;
    }
}


// ************************************************************************* //
