/*--------------------------------*- C++ -*----------------------------------*\
  =========                 |
  \\      /  F ield         | OpenFOAM: The Open Source CFD Toolbox
   \\    /   O peration     | Website:  https://openfoam.org
    \\  /    A nd           | Version:  7
     \\/     M anipulation  |
\*---------------------------------------------------------------------------*/
FoamFile
{
    version     2.0;
    format      ascii;
    class       volScalarField;
    location    "2.9";
    object      p;
}
// * * * * * * * * * * * * * * * * * * * * * * * * * * * * * * * * * * * * * //

dimensions      [0 2 -2 0 0 0 0];

internalField   nonuniform List<scalar> 
900
(
-3.70861e-10
-0.000116232
-0.000233408
-0.000320355
-0.000351049
-0.000313671
-0.00020572
-2.88468e-05
0.000213869
0.000518988
0.000882931
0.00130176
0.00177079
0.00228418
0.00283458
0.0034128
0.0040077
0.00460612
0.00519302
0.00575185
0.00626512
0.00671528
0.00708588
0.00736309
0.00753759
0.00760697
0.00757887
0.00747531
0.00733512
0.00720413
0.000114936
-2.60019e-06
-8.38398e-05
-0.000132781
-0.000136188
-8.40338e-05
2.72794e-05
0.000198266
0.00042801
0.000714717
0.00105587
0.00144816
0.00188729
0.00236768
0.00288225
0.00342216
0.00397677
0.00453371
0.00507893
0.00559721
0.0060728
0.00649027
0.00683579
0.00709851
0.00727216
0.00735668
0.0073601
0.00730132
0.00720468
0.00707391
0.000235426
7.57933e-05
-7.45918e-06
-4.82595e-05
-4.3948e-05
1.27515e-05
0.000124376
0.000291442
0.000513636
0.000789908
0.00111844
0.00149654
0.00192039
0.00238485
0.0028832
0.00340695
0.00394589
0.00448781
0.00501899
0.0055245
0.00598888
0.00639709
0.00673572
0.00699444
0.00716746
0.00725468
0.00726331
0.00721002
0.0071085
0.00693291
0.000327819
0.000119215
2.23007e-05
-2.11046e-05
-1.66226e-05
4.02114e-05
0.000150308
0.000313566
0.000529795
0.000798432
0.00111828
0.00148726
0.00190219
0.00235845
0.00284979
0.00336811
0.00390336
0.00444344
0.00497453
0.00548139
0.0059481
0.00635905
0.00670023
0.00696076
0.00713427
0.00721993
0.00722394
0.00716167
0.00704037
0.00681251
0.000361506
0.000108782
-3.98511e-06
-5.4117e-05
-5.31666e-05
1.21696e-06
0.000108485
0.000267881
0.000479238
0.000742394
0.00105674
0.00142088
0.00183229
0.00228697
0.00277919
0.00330121
0.00384309
0.00439264
0.00493557
0.00545587
0.00593651
0.00636056
0.0067126
0.00698044
0.00715659
0.00723935
0.00723436
0.00715699
0.00701177
0.00673618
0.000317917
2.73667e-05
-0.000101371
-0.000160267
-0.000164996
-0.000114644
-1.08856e-05
0.000145003
0.000352895
0.000613028
0.0009254
0.00128932
0.00170301
0.00216316
0.00266461
0.00319998
0.00375941
0.00433042
0.0048979
0.00544457
0.00595166
0.00640011
0.00677228
0.00705391
0.00723595
0.00731579
0.00729913
0.00720281
0.00703142
0.00671281
0.000186835
-0.000136407
-0.000280496
-0.000348928
-0.000360318
-0.0003147
-0.000214565
-6.15397e-05
0.000144377
0.000403875
0.000717621
0.00108572
0.00150723
0.00197965
0.00249849
0.00305678
0.00364476
0.00424948
0.00485477
0.00544158
0.00598868
0.00647407
0.00687692
0.00718007
0.00737235
0.00745023
0.00742012
0.00730169
0.00710174
0.00674188
-3.80315e-05
-0.000391041
-0.000549935
-0.000628097
-0.00064648
-0.000605776
-0.000509083
-0.000358231
-0.000152991
0.000107876
0.000425811
0.000801848
0.00123603
0.00172686
0.00227068
0.00286111
0.00348853
0.00413954
0.00479668
0.00543864
0.00604104
0.00657789
0.00702404
0.0073583
0.00756659
0.00764425
0.00759902
0.00745478
0.00722239
0.00681878
-0.000361663
-0.000743871
-0.000917572
-0.00100564
-0.00103118
-0.000995454
-0.00090206
-0.000752953
-0.000547584
-0.000284054
3.9994e-05
0.000426702
0.00087734
0.00139164
0.00196711
0.00259823
0.00327574
0.00398598
0.00471004
0.00542402
0.00609952
0.00670541
0.00721068
0.00758855
0.00782071
0.00790086
0.0078385
0.00766327
0.00739193
0.00693718
-0.000789146
-0.001202
-0.00139118
-0.00148957
-0.00152261
-0.00149211
-0.00140222
-0.00125502
-0.00104956
-0.000783177
-0.000452431
-5.38465e-05
0.000415362
0.000956543
0.00156878
0.0022479
0.00298543
0.00376789
0.00457501
0.00538003
0.00614979
0.00684654
0.00743146
0.00786986
0.00813718
0.00822417
0.00814224
0.00792865
0.00760829
0.00708934
-0.00132645
-0.00177297
-0.00197894
-0.00208846
-0.00212963
-0.00210502
-0.00201947
-0.0018752
-0.00167088
-0.00140297
-0.00106679
-0.000657255
-0.000169722
0.000399244
0.00105091
0.00178311
0.00258884
0.00345586
0.00436274
0.00528
0.0061691
0.00698413
0.00767586
0.00819843
0.00851767
0.00861899
0.00851517
0.00825314
0.00786896
0.00726534
-0.00198081
-0.00246534
-0.00268997
-0.00281177
-0.00286209
-0.00284455
-0.0027649
-0.0026257
-0.00242523
-0.00215903
-0.00182102
-0.00140428
-0.000901897
-0.000307804
0.000382182
0.00116883
0.00204752
0.0030093
0.00403192
0.00508405
0.00612166
0.00708918
0.0079239
0.00856425
0.00896121
0.00909034
0.00896386
0.0086404
0.00817124
0.00745168
-0.00276101
-0.00328901
-0.00353462
-0.00367015
-0.00373096
-0.00372215
-0.00365077
-0.00351994
-0.0033277
-0.00306868
-0.0027353
-0.0023186
-0.00180905
-0.00119738
-0.000475658
0.000361268
0.00131371
0.0023737
0.00352432
0.00473317
0.00595144
0.00711311
0.00813873
0.00894506
0.00946023
0.00964193
0.0094969
0.00909678
0.00851303
0.00762982
-0.00367746
-0.00425562
-0.00452493
-0.00467574
-0.00474846
-0.00475032
-0.00469021
-0.00457217
-0.00439424
-0.00415025
-0.00383116
-0.00342592
-0.00292214
-0.00230689
-0.00156768
-0.000693734
0.000321659
0.001476
0.00275909
0.00414118
0.00557176
0.00697548
0.00825384
0.00929489
0.00999232
0.0102721
0.0101247
0.00963329
0.0088948
0.00777532
-0.00474256
-0.00537903
-0.00567497
-0.00584241
-0.00592818
-0.0059425
-0.00589687
-0.00579683
-0.00564074
-0.00542195
-0.00513018
-0.00475241
-0.00427347
-0.00367657
-0.00294408
-0.00205856
-0.00100526
0.000223193
0.0016271
0.0031849
0.0048508
0.00654524
0.00815167
0.00952312
0.0105033
0.0109637
0.0108569
0.0102682
0.0093236
0.0078587
-0.00597106
-0.00667601
-0.00700156
-0.0071862
-0.00728511
-0.00731278
-0.00728438
-0.00720764
-0.00708182
-0.00690024
-0.00665185
-0.00632219
-0.00589373
-0.00534623
-0.00465697
-0.00380141
-0.00275497
-0.00149662
-1.26938e-05
0.00169463
0.00359451
0.00561513
0.00763078
0.00945844
0.0108745
0.0116611
0.0116917
0.0110278
0.00981953
0.00784949
-0.00738102
-0.00816743
-0.00852519
-0.00872589
-0.00883588
-0.00887569
-0.00886558
-0.00881645
-0.00872915
-0.00859758
-0.00841073
-0.00815356
-0.00780735
-0.00734956
-0.00675365
-0.00598886
-0.00502037
-0.00381128
-0.00233026
-0.000549056
0.00153306
0.00387432
0.00636348
0.00879493
0.010866
0.0122232
0.0125891
0.0119415
0.0104244
0.00772496
-0.00899525
-0.00988013
-0.0102715
-0.0104839
-0.0105989
-0.0106457
-0.0106516
-0.0106317
-0.0105893
-0.0105196
-0.0104126
-0.010254
-0.0100259
-0.00970553
-0.00926534
-0.00867128
-0.00788147
-0.00684532
-0.00550507
-0.0037996
-0.00167277
0.000898429
0.00386263
0.00703359
0.0100411
0.0123478
0.0134164
0.0130204
0.0112111
0.00748731
-0.010844
-0.01185
-0.0122739
-0.0124876
-0.0125947
-0.0126368
-0.0126505
-0.0126565
-0.012661
-0.0126614
-0.0126496
-0.0126141
-0.0125395
-0.0124068
-0.0121917
-0.0118624
-0.0113765
-0.0106762
-0.00968262
-0.00829116
-0.00637515
-0.00380152
-0.000491603
0.003472
0.00771258
0.0114898
0.0138713
0.0142185
0.0122947
0.00719996
-0.0129697
-0.0141273
-0.0145766
-0.0147708
-0.0148458
-0.0148611
-0.0148654
-0.0148859
-0.014932
-0.0150036
-0.0150955
-0.0152
-0.0153076
-0.0154068
-0.0154823
-0.0155127
-0.0154653
-0.0152869
-0.0148896
-0.0141283
-0.012791
-0.0106105
-0.00727895
-0.00264951
0.00302702
0.00886747
0.0134369
0.0153977
0.0138526
0.00707109
-0.0154351
-0.0167849
-0.0172406
-0.017376
-0.0173763
-0.0173268
-0.0172912
-0.0173031
-0.0173747
-0.0175075
-0.0176994
-0.0179477
-0.0182509
-0.0186085
-0.0190207
-0.0194854
-0.0199913
-0.0205057
-0.0209505
-0.0211559
-0.0207998
-0.0195253
-0.0166747
-0.0117408
-0.00465918
0.00372965
0.0115155
0.0163785
0.0161811
0.0076322
-0.0183396
-0.0199321
-0.0203504
-0.0203552
-0.0202094
-0.0200338
-0.019909
-0.0198737
-0.01994
-0.0201092
-0.0203811
-0.0207579
-0.0212466
-0.0218608
-0.0226202
-0.0235486
-0.0246669
-0.0259761
-0.027425
-0.0288547
-0.0299151
-0.0299123
-0.0280509
-0.0233211
-0.0151402
-0.00402448
0.00789016
0.0172041
0.0198388
0.0100569
-0.021851
-0.0237381
-0.0240234
-0.0237688
-0.0233594
-0.0229631
-0.0226755
-0.0225347
-0.0225477
-0.0227117
-0.0230253
-0.0234938
-0.024132
-0.0249672
-0.0260393
-0.0274003
-0.0291058
-0.0311955
-0.0336511
-0.0363249
-0.038823
-0.0403398
-0.039769
-0.0356529
-0.0267979
-0.0131327
0.00342376
0.0186491
0.0259526
0.0165971
-0.0262746
-0.0284692
-0.0284184
-0.0276756
-0.0268154
-0.0260576
-0.0255026
-0.025176
-0.0250704
-0.0251722
-0.0254743
-0.0259814
-0.0267131
-0.0277069
-0.0290198
-0.0307267
-0.0329117
-0.035644
-0.0389278
-0.0426169
-0.0462833
-0.0490482
-0.0495613
-0.0460137
-0.0366457
-0.0206866
0.000596797
0.022802
0.036736
0.030971
-0.0322049
-0.0345456
-0.0337316
-0.0321037
-0.0305029
-0.029184
-0.0282223
-0.0276088
-0.0273068
-0.0272825
-0.0275162
-0.0280067
-0.0287733
-0.0298582
-0.0313274
-0.033268
-0.0357767
-0.0389304
-0.042727
-0.0469919
-0.0512523
-0.0546043
-0.0553999
-0.051704
-0.0413181
-0.0228619
0.00325118
0.0332916
0.0559975
0.0583484
-0.0408872
-0.0426137
-0.040141
-0.0369684
-0.0342026
-0.032056
-0.030518
-0.0295072
-0.0289358
-0.0287345
-0.0288622
-0.0293043
-0.0300726
-0.031206
-0.0327699
-0.0348485
-0.0375301
-0.0408714
-0.0448331
-0.0491787
-0.0533376
-0.0562659
-0.0562404
-0.0511106
-0.0384707
-0.0164706
0.0153033
0.0545518
0.0888187
0.104751
-0.0552984
-0.0536491
-0.0476614
-0.0419083
-0.0373995
-0.0341081
-0.0318241
-0.0303371
-0.0294734
-0.0291012
-0.0291455
-0.0295671
-0.0303622
-0.0315581
-0.0332076
-0.0353777
-0.0381271
-0.0414642
-0.0452778
-0.0492329
-0.0526381
-0.0543133
-0.0523269
-0.0443756
-0.0278095
-0.000355679
0.0389753
0.0897099
0.139421
0.177852
-0.0830697
-0.0686515
-0.0560578
-0.0461906
-0.0392004
-0.0344804
-0.0313847
-0.029474
-0.0284208
-0.0280043
-0.0280898
-0.0286047
-0.0295234
-0.0308564
-0.0326376
-0.0349068
-0.03768
-0.0409
-0.0443606
-0.047602
-0.0497892
-0.0495732
-0.0449862
-0.0333085
-0.0115274
0.0233249
0.0732306
0.138982
0.210165
0.292739
-0.135423
-0.0837997
-0.0629375
-0.0472579
-0.0372917
-0.0313604
-0.0279242
-0.0260557
-0.025216
-0.0250864
-0.0254815
-0.0263025
-0.0275098
-0.0291028
-0.0311016
-0.0335224
-0.0363438
-0.0394534
-0.04257
-0.0451319
-0.0461647
-0.044162
-0.0371692
-0.0221756
0.00442704
0.046914
0.109449
0.19729
0.306431
0.477334
-0.307459
-0.093189
-0.0451566
-0.0282071
-0.0197315
-0.0160987
-0.0152146
-0.0156137
-0.0166019
-0.0179161
-0.0194574
-0.0211948
-0.0231375
-0.0253193
-0.0277803
-0.0305443
-0.0335852
-0.0367767
-0.0398223
-0.0421635
-0.0428802
-0.0405584
-0.0329688
-0.0171476
0.0105814
0.0557898
0.126165
0.239915
0.415838
0.760592
)
;

boundaryField
{
    movingWall
    {
        type            zeroGradient;
    }
    fixedWalls
    {
        type            zeroGradient;
    }
    frontAndBack
    {
        type            empty;
    }
}


// ************************************************************************* //
