/*--------------------------------*- C++ -*----------------------------------*\
  =========                 |
  \\      /  F ield         | OpenFOAM: The Open Source CFD Toolbox
   \\    /   O peration     | Website:  https://openfoam.org
    \\  /    A nd           | Version:  7
     \\/     M anipulation  |
\*---------------------------------------------------------------------------*/
FoamFile
{
    version     2.0;
    format      ascii;
    class       volScalarField;
    location    "5.9";
    object      p;
}
// * * * * * * * * * * * * * * * * * * * * * * * * * * * * * * * * * * * * * //

dimensions      [0 2 -2 0 0 0 0];

internalField   nonuniform List<scalar> 
900
(
7.86865e-09
-0.000128299
-0.000274274
-0.000394955
-0.000460436
-0.000454752
-0.000372271
-0.000212355
2.37335e-05
0.000334124
0.000716572
0.00116805
0.00168393
0.00225708
0.00287691
0.00352869
0.00419333
0.00484741
0.00546449
0.00601694
0.0064785
0.00682747
0.00704991
0.00714238
0.00711365
0.00698541
0.00679157
0.00657286
0.0063892
0.00629302
0.00012645
-3.95181e-06
-0.000105165
-0.000176959
-0.000202714
-0.000170035
-7.36688e-05
8.81958e-05
0.000315795
0.00060841
0.000964463
0.00138122
0.00185424
0.00237669
0.00293862
0.0035265
0.00412358
0.00470915
0.00526046
0.00575406
0.0061681
0.00648504
0.00669427
0.00679433
0.00679407
0.00671247
0.00657736
0.00642267
0.00628553
0.00619648
0.000277792
9.33832e-05
-1.01816e-05
-7.00214e-05
-8.24844e-05
-3.9216e-05
6.27816e-05
0.000224431
0.000446011
0.00072726
0.00106721
0.00146381
0.00191335
0.00240978
0.00294404
0.00350355
0.0040731
0.00463243
0.00515993
0.00563302
0.00603052
0.00633534
0.00653725
0.00663497
0.00663718
0.00656197
0.00643507
0.00628773
0.00614788
0.00601823
0.00040636
0.000157212
3.59381e-05
-2.58358e-05
-3.53701e-05
1.15388e-05
0.000115049
0.000274567
0.000489977
0.000761308
0.00108829
0.00146982
0.00190326
0.00238373
0.0029033
0.00345043
0.00401011
0.00456278
0.00508644
0.00555767
0.00595404
0.00625707
0.00645528
0.0065466
0.00653947
0.006452
0.00630999
0.00614472
0.00597894
0.00579599
0.000473416
0.000160849
1.77647e-05
-5.18366e-05
-6.40172e-05
-1.80146e-05
8.36966e-05
0.000239044
0.000447509
0.000709454
0.00102543
0.00139548
0.0018183
0.0022904
0.00280515
0.00335203
0.00391609
0.00447789
0.00501412
0.00549926
0.00590814
0.00621932
0.00641867
0.00650247
0.0064788
0.00636667
0.00619381
0.00599434
0.00579053
0.00555372
0.000449646
7.86801e-05
-8.73869e-05
-0.000168212
-0.000186942
-0.000145526
-4.86288e-05
0.000100474
0.000301034
0.000553882
0.000860558
0.00122245
0.00163984
0.00211086
0.00263036
0.00318894
0.00377179
0.00435897
0.00492513
0.00544151
0.00587867
0.00621046
0.00641851
0.00649624
0.00645105
0.00630365
0.00608566
0.00583709
0.00558406
0.00529074
0.000313887
-0.000109443
-0.000298029
-0.000391768
-0.000419625
-0.000385678
-0.000296324
-0.000155702
3.54496e-05
0.000278632
0.000576561
0.000932202
0.00134769
0.00182309
0.00235511
0.00293566
0.0035504
0.00417872
0.00479274
0.00535942
0.00584349
0.00621206
0.00644034
0.00651714
0.00644833
0.00625678
0.00598001
0.00566707
0.00535195
0.00499505
4.96908e-05
-0.000420418
-0.000630417
-0.000737877
-0.000776741
-0.00075282
-0.000673863
-0.000544568
-0.000365431
-0.00013409
0.000153547
0.000502262
0.000916358
0.0013983
0.00194717
0.00255684
0.00321397
0.00389787
0.00457796
0.00521629
0.00577012
0.00619738
0.00646387
0.0065509
0.00646089
0.00621869
0.0058694
0.00547472
0.00508043
0.00464402
-0.000356647
-0.000868928
-0.00109932
-0.00122118
-0.00127293
-0.00126188
-0.00119689
-0.00108301
-0.000920344
-0.000705547
-0.000433007
-9.59098e-05
0.000312572
0.000797862
0.00136226
0.00200264
0.00270771
0.00345848
0.00422215
0.00495584
0.00560807
0.00612465
0.00645772
0.00657642
0.00647585
0.00618102
0.00574583
0.00524878
0.00475174
0.0042075
-0.000916969
-0.00146778
-0.00171794
-0.00185523
-0.00192223
-0.00192771
-0.00188155
-0.00178911
-0.0016501
-0.0014602
-0.00121228
-0.00089738
-0.000505865
-2.87304e-05
0.000540615
0.00120358
0.00195276
0.00277477
0.00363565
0.00448925
0.00527497
0.0059235
0.00636766
0.00655687
0.00647157
0.00613209
0.00560073
0.00497759
0.00434609
0.00365007
-0.0016416
-0.00222809
-0.00249791
-0.0026522
-0.00273762
-0.00276448
-0.00274378
-0.00268135
-0.00257672
-0.00242485
-0.00221734
-0.00194328
-0.00159012
-0.00114482
-0.000595335
6.6678e-05
0.000841719
0.00172348
0.00268432
0.0036782
0.00463726
0.005475
0.00609786
0.00642432
0.00640717
0.00605143
0.00542356
0.00465007
0.00384364
0.00293294
-0.00253931
-0.00315928
-0.00344916
-0.00362266
-0.00373052
-0.0037849
-0.00379826
-0.00377727
-0.00372183
-0.00362678
-0.00348315
-0.00327869
-0.0029984
-0.00262512
-0.00214044
-0.00152598
-0.000766999
0.000134951
0.00117604
0.00231632
0.00348674
0.00458474
0.00548357
0.00605534
0.00620403
0.00589858
0.00519737
0.00425586
0.00322656
0.00201598
-0.00361715
-0.004269
-0.00457975
-0.00477512
-0.00491012
-0.0049992
-0.00505689
-0.00509149
-0.00510409
-0.00509056
-0.00504258
-0.00494797
-0.00479058
-0.00454999
-0.00420113
-0.0037144
-0.00305839
-0.00220948
-0.00114477
0.000116825
0.00152018
0.00295497
0.00425807
0.00523742
0.00571705
0.00559343
0.00488923
0.00378346
0.00248112
0.000860279
-0.00488011
-0.00556304
-0.00589575
-0.00611569
-0.00628251
-0.00641372
-0.00652683
-0.00663285
-0.00673541
-0.00683303
-0.00692006
-0.00698672
-0.00701823
-0.00699309
-0.00688086
-0.00663971
-0.00621532
-0.00554535
-0.00457975
-0.00327821
-0.00166126
0.000171648
0.00202743
0.00363505
0.0046994
0.00498774
0.00443388
0.00321599
0.00160062
-0.000567528
-0.00633098
-0.00704537
-0.00740112
-0.00764763
-0.00784984
-0.00802938
-0.00820804
-0.00840099
-0.0086162
-0.00885696
-0.00912307
-0.00941048
-0.00970965
-0.0100021
-0.0102551
-0.0104158
-0.0104047
-0.0101161
-0.00943231
-0.00824732
-0.00650688
-0.0042641
-0.00171835
0.000779167
0.00277616
0.00383543
0.00371262
0.00252486
0.000590435
-0.00228677
-0.00797038
-0.00871865
-0.00909809
-0.00937129
-0.00960953
-0.00984007
-0.0100907
-0.0103825
-0.01073
-0.0111437
-0.0116321
-0.0122011
-0.0128513
-0.0135728
-0.0143362
-0.0150805
-0.0157009
-0.0160407
-0.0158981
-0.0150757
-0.0133983
-0.0108252
-0.00751723
-0.00387971
-0.000539887
0.00178213
0.00253666
0.0016646
-0.000521844
-0.00428617
-0.00979747
-0.0105852
-0.010988
-0.0112843
-0.0115538
-0.0118313
-0.0121528
-0.0125475
-0.0130385
-0.0136463
-0.0143914
-0.0152936
-0.0163695
-0.0176238
-0.0190369
-0.0205457
-0.0220227
-0.0232597
-0.0239668
-0.0237996
-0.0224632
-0.0197589
-0.0157431
-0.0108137
-0.00574518
-0.00158879
0.000657972
0.0005773
-0.00166723
-0.00649327
-0.0118115
-0.0126495
-0.013073
-0.0133828
-0.0136696
-0.0139792
-0.0143585
-0.014847
-0.0154783
-0.0162852
-0.0173027
-0.0185685
-0.0201189
-0.0219794
-0.024146
-0.02656
-0.0290764
-0.0314381
-0.0332625
-0.0340617
-0.0333978
-0.0308651
-0.026352
-0.0201615
-0.0131295
-0.00661277
-0.00215935
-0.000776252
-0.0027016
-0.00872336
-0.0140147
-0.0149213
-0.0153593
-0.0156627
-0.0159395
-0.0162507
-0.0166575
-0.0172121
-0.0179603
-0.0189482
-0.0202268
-0.0218532
-0.0238862
-0.0263743
-0.0293334
-0.0327135
-0.0363583
-0.0399687
-0.0430843
-0.0450983
-0.0453821
-0.0433521
-0.0386765
-0.0314715
-0.0225009
-0.0133062
-0.00598385
-0.00233293
-0.0033502
-0.0106014
-0.0164181
-0.0174226
-0.0178613
-0.0181229
-0.0183428
-0.0186037
-0.0189859
-0.0195564
-0.0203736
-0.0214969
-0.022993
-0.0249378
-0.0274116
-0.0304854
-0.0341944
-0.0384983
-0.0432338
-0.0480693
-0.0524866
-0.0557997
-0.0571707
-0.0558954
-0.0514114
-0.0435873
-0.0329787
-0.0211148
-0.0104922
-0.00378137
-0.00312474
-0.0114508
-0.0190507
-0.020197
-0.0206089
-0.0207687
-0.020857
-0.0209889
-0.0212688
-0.0217801
-0.0225933
-0.0237795
-0.0254187
-0.0276025
-0.0304289
-0.0339868
-0.0383257
-0.0434124
-0.0490771
-0.0549647
-0.0605103
-0.0649565
-0.067397
-0.066954
-0.0628901
-0.0548249
-0.0430217
-0.0287926
-0.0147656
-0.00437308
-0.00121013
-0.0101486
-0.0219774
-0.0233259
-0.0236566
-0.0236152
-0.0234593
-0.0233506
-0.0234232
-0.0237769
-0.0244921
-0.0256479
-0.0273337
-0.0296516
-0.0327115
-0.0366125
-0.0414107
-0.0470727
-0.0534205
-0.0600802
-0.0664555
-0.0717433
-0.0749943
-0.0752204
-0.0715574
-0.0634144
-0.0507564
-0.0345446
-0.0172465
-0.00277727
0.00367071
-0.00495904
-0.0253347
-0.0269546
-0.0270958
-0.0266906
-0.0261259
-0.0256274
-0.0253619
-0.0254423
-0.0259533
-0.0269768
-0.0286055
-0.0309465
-0.0341136
-0.0382073
-0.0432811
-0.0492926
-0.05605
-0.0631619
-0.0700106
-0.0757612
-0.0794272
-0.0799528
-0.0763874
-0.0679871
-0.0544646
-0.0364086
-0.0159279
0.0029227
0.0133984
0.00662944
-0.0294054
-0.0313345
-0.0310688
-0.0300348
-0.0288274
-0.0277498
-0.0269957
-0.0266804
-0.026883
-0.0276797
-0.0291598
-0.0314277
-0.0345934
-0.0387504
-0.0439403
-0.0501038
-0.057028
-0.0642959
-0.0712624
-0.0770654
-0.0806829
-0.0810232
-0.0770304
-0.0678503
-0.0529799
-0.0327063
-0.00872345
0.0150948
0.0305958
0.0280272
-0.0347821
-0.0368895
-0.0357781
-0.0336884
-0.0315156
-0.0296313
-0.0282294
-0.0274048
-0.0272142
-0.0277162
-0.0289868
-0.0311198
-0.0342137
-0.0383467
-0.0435376
-0.0497021
-0.0565971
-0.0637753
-0.0705605
-0.0760548
-0.0791869
-0.0787924
-0.0737084
-0.0629376
-0.0458286
-0.0223987
0.00605643
0.0363156
0.0586588
0.0634746
-0.0427531
-0.044311
-0.0414591
-0.0376455
-0.0340804
-0.0311311
-0.0289303
-0.0275117
-0.0268835
-0.0270689
-0.0281187
-0.0301061
-0.0331084
-0.0371785
-0.0423064
-0.048373
-0.0550982
-0.0619979
-0.068357
-0.0732299
-0.0754775
-0.0738247
-0.0669644
-0.0537089
-0.0331862
-0.00520919
0.0292524
0.0686387
0.101112
0.11776
-0.0564261
-0.0547156
-0.0482866
-0.0417389
-0.0362393
-0.0319527
-0.0288363
-0.0268002
-0.0257623
-0.0256851
-0.0265758
-0.028473
-0.0314221
-0.0354431
-0.0404895
-0.0464017
-0.0528584
-0.0593338
-0.0650696
-0.0690685
-0.0701181
-0.0667926
-0.0576018
-0.0410893
-0.0160448
0.0181682
0.0612179
0.111933
0.159595
0.197761
-0.0836935
-0.0693879
-0.0562912
-0.0455234
-0.0373984
-0.0315448
-0.0275063
-0.0249581
-0.0236646
-0.0234888
-0.0243726
-0.0263074
-0.0292994
-0.0333312
-0.038318
-0.0440606
-0.0501984
-0.0561656
-0.0611598
-0.0641308
-0.0638142
-0.0586522
-0.046963
-0.0269017
0.0032651
0.0450233
0.0990636
0.165547
0.234782
0.31724
-0.136038
-0.0847569
-0.0632106
-0.0465849
-0.0353866
-0.0282242
-0.0237612
-0.02119
-0.0200586
-0.0201243
-0.0212691
-0.0234449
-0.0266278
-0.0307739
-0.0357727
-0.0414012
-0.0472777
-0.05282
-0.0572088
-0.0593547
-0.0578828
-0.0513186
-0.0377891
-0.0150382
0.0193508
0.0683438
0.134977
0.224153
0.332352
0.502223
-0.308548
-0.0944362
-0.0458759
-0.0278857
-0.0181077
-0.0131706
-0.0111746
-0.0107808
-0.0113844
-0.0127965
-0.0149805
-0.017949
-0.021721
-0.0262843
-0.0315535
-0.0373279
-0.0432488
-0.0487618
-0.0530881
-0.0552094
-0.0538608
-0.0473855
-0.0338338
-0.0110295
0.0238518
0.0752714
0.149855
0.265153
0.440532
0.784448
)
;

boundaryField
{
    movingWall
    {
        type            zeroGradient;
    }
    fixedWalls
    {
        type            zeroGradient;
    }
    frontAndBack
    {
        type            empty;
    }
}


// ************************************************************************* //
