/*--------------------------------*- C++ -*----------------------------------*\
  =========                 |
  \\      /  F ield         | OpenFOAM: The Open Source CFD Toolbox
   \\    /   O peration     | Website:  https://openfoam.org
    \\  /    A nd           | Version:  7
     \\/     M anipulation  |
\*---------------------------------------------------------------------------*/
FoamFile
{
    version     2.0;
    format      ascii;
    class       surfaceScalarField;
    location    "5.5";
    object      phi;
}
// * * * * * * * * * * * * * * * * * * * * * * * * * * * * * * * * * * * * * //

dimensions      [0 3 -1 0 0 0 0];

internalField   nonuniform List<scalar> 
1740
(
3.91169e-07
-3.912e-07
-6.44187e-07
1.03536e-06
-3.17939e-06
2.5352e-06
-6.87206e-06
3.69267e-06
-1.13337e-05
4.46168e-06
-1.62323e-05
4.89859e-06
-2.13139e-05
5.08152e-06
-2.63899e-05
5.076e-06
-3.13148e-05
4.92494e-06
-3.59647e-05
4.64995e-06
-4.0221e-05
4.25623e-06
-4.39592e-05
3.7382e-06
-4.70447e-05
3.08548e-06
-4.93335e-05
2.2888e-06
-5.06793e-05
1.34587e-06
-5.09461e-05
2.66761e-07
-5.00236e-05
-9.22481e-07
-4.78494e-05
-2.17422e-06
-4.44287e-05
-3.42067e-06
-3.98527e-05
-4.57606e-06
-3.43096e-05
-5.54306e-06
-2.80863e-05
-6.22328e-06
-2.15562e-05
-6.53006e-06
-1.51546e-05
-6.40164e-06
-9.34231e-06
-5.81229e-06
-4.56235e-06
-4.77997e-06
-1.1853e-06
-3.37705e-06
5.72972e-07
-1.75827e-06
7.73939e-07
-2.00966e-07
7.7394e-07
-1.03486e-06
6.43658e-07
-5.20062e-06
5.20112e-06
-1.24083e-05
9.74288e-06
-2.20362e-05
1.33206e-05
-3.33707e-05
1.57962e-05
-4.57409e-05
1.72688e-05
-5.85745e-05
1.79151e-05
-7.14014e-05
1.79029e-05
-8.38301e-05
1.73537e-05
-9.55166e-05
1.63364e-05
-0.000106136
1.48758e-05
-0.000115364
1.29661e-05
-0.000122867
1.0588e-05
-0.000128305
7.72705e-06
-0.000131351
4.39155e-06
-0.000131713
6.28989e-07
-0.000129174
-3.46123e-06
-0.00012363
-7.71853e-06
-0.000115134
-1.19167e-05
-0.00010393
-1.57796e-05
-9.04747e-05
-1.89984e-05
-7.54327e-05
-2.12652e-05
-5.96505e-05
-2.23123e-05
-4.40973e-05
-2.19548e-05
-2.97824e-05
-2.01272e-05
-1.76499e-05
-1.69125e-05
-8.4559e-06
-1.2571e-05
-2.63183e-06
-7.58233e-06
-1.27784e-07
-2.70501e-06
6.46155e-07
-2.66623e-06
3.30989e-06
-1.01713e-05
1.27062e-05
-2.17755e-05
2.1347e-05
-3.65825e-05
2.81276e-05
-5.36467e-05
3.28604e-05
-7.20838e-05
3.57059e-05
-9.11183e-05
3.69497e-05
-0.000110088
3.68726e-05
-0.000128422
3.56873e-05
-0.000145607
3.35221e-05
-0.000161161
3.04295e-05
-0.000174604
2.64096e-05
-0.000185457
2.14401e-05
-0.000193239
1.55094e-05
-0.000197497
8.65014e-06
-0.000197844
9.75397e-07
-0.000193984
-7.32135e-06
-0.000185799
-1.59029e-05
-0.000173385
-2.43314e-05
-0.000157096
-3.20679e-05
-0.000137579
-3.85154e-05
-0.000115764
-4.30807e-05
-9.28247e-05
-4.52517e-05
-7.01002e-05
-4.46793e-05
-4.89755e-05
-4.12518e-05
-3.07366e-05
-3.51515e-05
-1.64095e-05
-2.68981e-05
-6.60099e-06
-1.73908e-05
-1.34196e-06
-7.96404e-06
-6.9581e-07
-4.13222e-06
7.4421e-06
-1.47354e-05
2.33094e-05
-3.03895e-05
3.70011e-05
-4.98142e-05
4.75523e-05
-7.1832e-05
5.48782e-05
-9.53904e-05
5.92642e-05
-0.000119573
6.1132e-05
-0.000143588
6.08878e-05
-0.000166743
5.88422e-05
-0.000188407
5.51866e-05
-0.000207982
5.00046e-05
-0.000224877
4.33039e-05
-0.000238498
3.50609e-05
-0.000248259
2.52706e-05
-0.000253606
1.39976e-05
-0.000254061
1.4297e-06
-0.000249266
-1.21157e-05
-0.000239068
-2.61009e-05
-0.00022357
-3.98293e-05
-0.000203194
-5.24441e-05
-0.000178715
-6.29948e-05
-0.00015126
-7.05349e-05
-0.000122267
-7.42447e-05
-9.33807e-05
-7.3566e-05
-6.63082e-05
-6.83243e-05
-4.26401e-05
-5.88196e-05
-2.36591e-05
-4.58791e-05
-1.01727e-05
-3.08772e-05
-2.39832e-06
-1.57385e-05
-3.09413e-06
-5.37403e-06
1.28161e-05
-1.87371e-05
3.66725e-05
-3.80333e-05
5.62973e-05
-6.15829e-05
7.11019e-05
-8.79657e-05
8.1261e-05
-0.000115975
8.72737e-05
-0.000144586
8.97431e-05
-0.00017292
8.9222e-05
-0.000200206
8.61276e-05
-0.000225736
8.07172e-05
-0.000248835
7.31035e-05
-0.00026883
6.32982e-05
-0.00028504
5.12709e-05
-0.000296786
3.7017e-05
-0.000303416
2.0628e-05
-0.000304352
2.36515e-06
-0.000299146
-1.73215e-05
-0.000287566
-3.76808e-05
-0.000269672
-5.77231e-05
-0.000245893
-7.62232e-05
-0.000217079
-9.18087e-05
-0.000184517
-0.000103097
-0.000149886
-0.000108876
-0.000115144
-0.000108308
-8.23526e-05
-0.000101116
-5.34522e-05
-8.772e-05
-3.00322e-05
-6.92991e-05
-1.31411e-05
-4.77683e-05
-3.18648e-06
-2.56931e-05
-6.28062e-06
-6.41583e-06
1.9232e-05
-2.21982e-05
5.24549e-05
-4.47402e-05
7.88393e-05
-7.1985e-05
9.83467e-05
-0.000102274
0.00011155
-0.000134256
0.000119256
-0.000166818
0.000122305
-0.000199023
0.000121427
-0.000230055
0.000117159
-0.000259165
0.000109827
-0.000285631
9.95695e-05
-0.000308723
8.63909e-05
-0.000327692
7.02395e-05
-0.000341768
5.10929e-05
-0.000350189
2.90492e-05
-0.000352248
4.42359e-06
-0.000347356
-2.2213e-05
-0.000335139
-4.98983e-05
-0.000315535
-7.73267e-05
-0.000288903
-0.000102855
-0.000256106
-0.000124606
-0.000218553
-0.00014065
-0.000178173
-0.000149256
-0.000137294
-0.000149187
-9.84267e-05
-0.000139983
-6.39775e-05
-0.000122169
-3.5947e-05
-9.73296e-05
-1.56834e-05
-6.8032e-05
-3.75624e-06
-3.76203e-05
-1.00369e-05
-7.3029e-06
2.65349e-05
-2.52101e-05
7.0362e-05
-5.06514e-05
0.000104281
-8.12318e-05
0.000128927
-0.000115072
0.00014539
-0.000150689
0.000154873
-0.0001869
0.000158516
-0.000222734
0.000157261
-0.00025736
0.000151785
-0.000290018
0.000142485
-0.000319968
0.00012952
-0.000346449
0.000112872
-0.000368652
9.24427e-05
-0.000385719
6.81595e-05
-0.000396758
4.0088e-05
-0.000400889
8.55536e-06
-0.00039732
-2.57821e-05
-0.00038544
-6.17783e-05
-0.000364963
-9.78038e-05
-0.000336067
-0.000131751
-0.000299535
-0.000161139
-0.000256847
-0.000183338
-0.000210195
-0.000195908
-0.000162361
-0.000197021
-0.000116457
-0.000185887
-7.5543e-05
-0.000163083
-4.2204e-05
-0.000130669
-1.8192e-05
-9.2044e-05
-4.22955e-06
-5.15827e-05
-1.42664e-05
-8.07754e-06
3.46124e-05
-2.78761e-05
9.01606e-05
-5.59352e-05
0.00013234
-8.95637e-05
0.000162556
-0.000126686
0.000182512
-0.000165706
0.000193894
-0.000205391
0.000198201
-0.000244761
0.00019663
-0.000282996
0.00019002
-0.00031936
0.000178849
-0.000353125
0.000163285
-0.000383523
0.00014327
-0.000409705
0.000118624
-0.000430722
8.91773e-05
-0.000445536
5.49017e-05
-0.000453048
1.60672e-05
-0.000452179
-2.66509e-05
-0.000441969
-7.19882e-05
-0.000421766
-0.000118007
-0.000391413
-0.000162103
-0.000351472
-0.00020108
-0.0003034
-0.00023141
-0.000249638
-0.00024967
-0.000193518
-0.00025314
-0.000138956
-0.000240449
-8.9938e-05
-0.000212102
-4.99054e-05
-0.000170701
-2.12042e-05
-0.000120745
-4.76071e-06
-6.80262e-05
-1.90271e-05
-8.77207e-06
4.33845e-05
-3.02859e-05
0.000111674
-6.07447e-05
0.000162799
-9.71993e-05
0.00019901
-0.000137403
0.000222716
-0.000179669
0.00023616
-0.000222735
0.000241267
-0.00026564
0.000239535
-0.000307609
0.00023199
-0.000347962
0.000219202
-0.000386021
0.000201344
-0.000421045
0.000178294
-0.00045217
0.00014975
-0.000478372
0.000115379
-0.000498449
7.49787e-05
-0.000511039
2.86572e-05
-0.000514697
-2.29934e-05
-0.00050797
-7.87155e-05
-0.000489661
-0.000136315
-0.000459074
-0.000192691
-0.000416332
-0.000243822
-0.000362704
-0.000285037
-0.00030081
-0.000311565
-0.000234606
-0.000319344
-0.000169052
-0.000306003
-0.000109433
-0.00027172
-6.04585e-05
-0.000219676
-2.53963e-05
-0.000155807
-5.53329e-06
-8.78892e-05
-2.45604e-05
-9.40898e-06
5.27935e-05
-3.25076e-05
0.000134773
-6.52011e-05
0.000195492
-0.000104311
0.00023812
-0.000147442
0.000265847
-0.000192837
0.000281555
-0.000239231
0.000287661
-0.00028571
0.000286013
-0.000331581
0.000277861
-0.000376259
0.00026388
-0.000419164
0.000244249
-0.000459627
0.000218756
-0.00049681
0.000186933
-0.000529642
0.000148211
-0.000556761
0.000102099
-0.000576508
4.84041e-05
-0.000587
-1.25021e-05
-0.000586126
-7.9589e-05
-0.000571947
-0.000150494
-0.000542951
-0.000221688
-0.000498534
-0.000288238
-0.000439504
-0.000344068
-0.000368484
-0.000382584
-0.000290064
-0.000397765
-0.00021049
-0.000385577
-0.000136816
-0.000345394
-7.56132e-05
-0.000280879
-3.16077e-05
-0.000199813
-6.76991e-06
-0.000112727
-3.13303e-05
-1.00028e-05
6.27963e-05
-3.45892e-05
0.000159359
-6.93906e-05
0.000230293
-0.000111017
0.000279746
-0.000156941
0.000311771
-0.000205355
0.00032997
-0.000255016
0.000337322
-0.000305086
0.000336084
-0.000354996
0.00032777
-0.000404304
0.000313188
-0.00045258
0.000292525
-0.000499288
0.000265465
-0.000543677
0.000231322
-0.000584674
0.000189208
-0.000620792
0.000138217
-0.000650059
7.76712e-05
-0.000670083
7.52176e-06
-0.00067798
-7.16923e-05
-0.000670831
-0.000157643
-0.000646004
-0.000246515
-0.000601796
-0.000332446
-0.000538162
-0.000407702
-0.00045741
-0.000463336
-0.000364618
-0.000490557
-0.000267485
-0.00048271
-0.000175362
-0.000437516
-9.74845e-05
-0.000358757
-4.08664e-05
-0.000256431
-8.74275e-06
-0.000144851
-4.00731e-05
-1.05628e-05
7.33591e-05
-3.65636e-05
0.00018536
-7.33707e-05
0.0002671
-0.000117388
0.000323763
-0.000165965
0.000360348
-0.000217258
0.000381262
-0.000270064
0.000390128
-0.000323657
0.000389678
-0.000377629
0.000381741
-0.000431733
0.000367292
-0.00048575
0.000346543
-0.000539348
0.000319063
-0.000591936
0.00028391
-0.000642513
0.000239785
-0.000689525
0.000185228
-0.000730733
0.00011888
-0.000763096
3.9885e-05
-0.000783054
-5.17344e-05
-0.000786392
-0.000154306
-0.000769085
-0.000263822
-0.000727923
-0.000373607
-0.000661515
-0.000474109
-0.000571338
-0.000553514
-0.000462571
-0.000599323
-0.000344309
-0.000600973
-0.000228663
-0.000553162
-0.00012852
-0.0004589
-5.44005e-05
-0.000330551
-1.17814e-05
-0.00018747
-5.18545e-05
-1.1096e-05
8.44552e-05
-3.84569e-05
0.000212721
-7.71841e-05
0.000305828
-0.000123466
0.000370046
-0.000174525
0.000411407
-0.000228486
0.000435222
-0.000284205
0.000445847
-0.000341095
0.000446567
-0.000398941
0.000439588
-0.000457744
0.000426095
-0.000517555
0.000406354
-0.000578315
0.000379823
-0.000639676
0.000345271
-0.000700802
0.00030091
-0.000760149
0.000244575
-0.000815269
0.000173999
-0.00086263
8.7246e-05
-0.000897789
-1.65745e-05
-0.000915253
-0.000136843
-0.000909398
-0.000269677
-0.000875137
-0.000407868
-0.000809185
-0.000540061
-0.000711484
-0.000651215
-0.000586584
-0.000724223
-0.00044449
-0.000743066
-0.000300232
-0.000697421
-0.00017138
-0.000587752
-7.36297e-05
-0.000428301
-1.62805e-05
-0.000244819
-6.8135e-05
-1.16122e-05
9.60673e-05
-4.03022e-05
0.000241411
-8.08805e-05
0.000346406
-0.000129291
0.000418457
-0.000182611
0.000464726
-0.000238928
0.000491539
-0.000297167
0.000504086
-0.000356892
0.000506293
-0.000418117
0.000500812
-0.000481119
0.000489097
-0.000546269
0.000471504
-0.000613843
0.000447397
-0.000683811
0.000415239
-0.000755589
0.000372689
-0.00082776
0.000316746
-0.000897788
0.000244027
-0.000961796
0.000151254
-0.00101445
3.60753e-05
-0.00104927
-0.000102015
-0.00105891
-0.000260039
-0.00103623
-0.000430547
-0.000975588
-0.000600705
-0.000874561
-0.000752242
-0.000735949
-0.000862836
-0.000569553
-0.000909462
-0.000392799
-0.000874175
-0.00022868
-0.00075187
-0.000100132
-0.00055685
-2.27108e-05
-0.00032224
-9.08458e-05
-1.21297e-05
0.000108197
-4.21575e-05
0.000271439
-8.45469e-05
0.000388795
-0.000134943
0.000468853
-0.00019024
0.000520023
-0.000248472
0.000549772
-0.00030863
0.000564244
-0.000370436
0.000568098
-0.000434135
0.000564511
-0.0005003
0.000555262
-0.00056964
0.000540844
-0.000642798
0.000520555
-0.000720112
0.000492553
-0.000801327
0.000453905
-0.000885266
0.000400685
-0.000969478
0.000328238
-0.00104994
0.000231715
-0.00112086
0.000106993
-0.00117488
-4.79944e-05
-0.00120335
-0.000231566
-0.0011972
-0.000436697
-0.00114819
-0.000649718
-0.00105076
-0.000849668
-0.00090455
-0.00100905
-0.000717288
-0.00109672
-0.000507193
-0.00108427
-0.00030252
-0.000956542
-0.000135554
-0.000723816
-3.16348e-05
-0.000426159
-0.000122481
-1.26842e-05
0.000120881
-4.4129e-05
0.000302884
-8.83467e-05
0.000433013
-0.000140593
0.000521099
-0.00019752
0.000576951
-0.000257084
0.000609336
-0.000318321
0.000625481
-0.000381102
0.000630879
-0.000445893
0.000629303
-0.000513544
0.000622913
-0.000585083
0.000612383
-0.000661507
0.000596979
-0.00074353
0.000574575
-0.000831271
0.000541646
-0.0009239
0.000493315
-0.00101925
0.00042359
-0.00111348
0.000325943
-0.00120084
0.000194355
-0.00127361
2.47794e-05
-0.00132255
-0.00018263
-0.00133717
-0.000422075
-0.00130686
-0.000680036
-0.00122246
-0.000934063
-0.00107903
-0.00115248
-0.000879774
-0.00129598
-0.00064076
-0.00132328
-0.000393655
-0.00120365
-0.00018141
-0.000936061
-4.37145e-05
-0.000563854
-0.000166195
-1.33399e-05
0.000134221
-4.64031e-05
0.000335947
-9.25696e-05
0.000479179
-0.000146566
0.000575095
-0.000204727
0.000635112
-0.000264886
0.000669494
-0.000326108
0.000686703
-0.000388389
0.000693161
-0.000452381
0.000693295
-0.000519158
0.00068969
-0.000590008
0.000683233
-0.000666219
0.00067319
-0.000748834
0.00065719
-0.000838353
0.000631165
-0.000934379
0.00058934
-0.00103525
0.000524456
-0.00113768
0.000428375
-0.00123654
0.000293213
-0.00132468
0.000112921
-0.00139289
-0.000114415
-0.00143057
-0.000384395
-0.00142537
-0.000685233
-0.00136472
-0.000994713
-0.00123814
-0.00127906
-0.00104179
-0.00149233
-0.000785527
-0.00157955
-0.000500237
-0.00148894
-0.000238661
-0.00119764
-5.96923e-05
-0.000742823
-0.000225887
-1.42057e-05
0.000148427
-4.92884e-05
0.000371029
-9.76936e-05
0.000527585
-0.000153417
0.000630818
-0.000212376
0.000694071
-0.000272248
0.000729366
-0.00033211
0.000746564
-0.000392056
0.000753107
-0.000452876
0.000754115
-0.000515791
0.000752605
-0.000582251
0.000749693
-0.000653734
0.000744673
-0.000731528
0.000734984
-0.000816472
0.000716109
-0.00090866
0.000681529
-0.00100713
0.000622926
-0.00110956
0.000530808
-0.00121205
0.000395698
-0.00130894
0.000209812
-0.00139193
-3.1421e-05
-0.00145187
-0.000324459
-0.00147576
-0.000661344
-0.00144862
-0.00102185
-0.00135452
-0.00137316
-0.00118084
-0.00166601
-0.000926866
-0.00183352
-0.000616327
-0.00179948
-0.000307032
-0.00150693
-8.03281e-05
-0.000969527
-0.000306215
-1.54612e-05
0.000163888
-5.32755e-05
0.000408844
-0.000104464
0.000578773
-0.000162008
0.000688363
-0.000221305
0.000753368
-0.000279861
0.000787922
-0.000336775
0.000803478
-0.000392232
0.000808564
-0.000447111
0.000808994
-0.000502702
0.000808197
-0.000560507
0.000807498
-0.000622073
0.000806239
-0.000688827
0.000801738
-0.00076189
0.000789172
-0.000841878
0.000761516
-0.00092868
0.000709728
-0.00102126
0.000623387
-0.00111744
0.000491874
-0.00121363
0.000306006
-0.00130451
5.94615e-05
-0.0013819
-0.000247073
-0.00143479
-0.000608454
-0.00144737
-0.00100927
-0.00139959
-0.00142094
-0.00126993
-0.00179567
-0.00104392
-0.00205953
-0.000730734
-0.00211267
-0.000384103
-0.00185356
-0.000106296
-0.00124733
-0.000412511
-1.74002e-05
0.000181288
-5.91269e-05
0.000450571
-0.000113996
0.000633642
-0.000173596
0.000747963
-0.00023272
0.000812492
-0.000288754
0.000843957
-0.000340887
0.000855611
-0.000389429
0.000857106
-0.000435332
0.000854897
-0.000479894
0.000852758
-0.000524577
0.000852181
-0.000570897
0.000852558
-0.000620329
0.00085117
-0.000674228
0.000843071
-0.000733734
0.000821022
-0.000799688
0.000775682
-0.000872519
0.000696218
-0.000952088
0.000571443
-0.00103739
0.000391307
-0.00112632
0.000148397
-0.00121345
-0.000159949
-0.00129067
-0.000531234
-0.00134361
-0.000956328
-0.00135063
-0.00141392
-0.0012833
-0.001863
-0.00111274
-0.00223009
-0.000827368
-0.00239804
-0.000464517
-0.00221641
-0.000138062
-0.00157379
-0.000550574
-2.05116e-05
0.0002018
-6.80207e-05
0.00049808
-0.000127908
0.000693529
-0.000189902
0.000809957
-0.000248194
0.000870783
-0.00030022
0.000895983
-0.000345428
0.00090082
-0.000384364
0.000896041
-0.000418094
0.000888627
-0.000447911
0.000882575
-0.000475197
0.000879468
-0.00050138
0.000878741
-0.000527937
0.000877727
-0.000556421
0.000871554
-0.000588496
0.000853097
-0.000625969
0.000813155
-0.000670769
0.000741018
-0.000724838
0.000625512
-0.000789843
0.000456313
-0.000866709
0.000225263
-0.000953918
-7.27402e-05
-0.00104682
-0.00043833
-0.00113453
-0.000868619
-0.00119705
-0.0013514
-0.0012029
-0.00185715
-0.0011114
-0.00232159
-0.00088754
-0.0026219
-0.00053974
-0.00256421
-0.00017572
-0.00193781
-0.000726293
-2.56375e-05
0.000227437
-8.17854e-05
0.000554227
-0.000148495
0.000760239
-0.000213142
0.000874604
-0.000269522
0.000927163
-0.000315506
0.000941967
-0.000351133
0.000936447
-0.000377393
0.000922301
-0.00039559
0.000906823
-0.000407066
0.000894052
-0.000413145
0.000885546
-0.000415173
0.000880769
-0.000414623
0.000877177
-0.000413233
0.000870165
-0.000413159
0.000853023
-0.000417106
0.000817103
-0.000428366
0.000752278
-0.000450753
0.000647899
-0.000488305
0.000493864
-0.00054469
0.000281648
-0.0006222
4.76946e-06
-0.000719884
-0.000340645
-0.000831746
-0.000756758
-0.000942442
-0.0012407
-0.00102242
-0.00177717
-0.00102484
-0.00231918
-0.000893378
-0.00275336
-0.000598643
-0.00285895
-0.000218667
-0.00231779
-0.00094496
-3.42865e-05
0.000261724
-0.000103281
0.000623222
-0.0001789
0.000835858
-0.000245867
0.000941572
-0.00029823
0.000979526
-0.000335025
0.000978762
-0.000357418
0.00095884
-0.000367189
0.000932072
-0.000366081
0.000905716
-0.000355618
0.000883589
-0.000337146
0.000867074
-0.000311982
0.000855605
-0.000281618
0.000846813
-0.000247957
0.000836504
-0.000213539
0.000818604
-0.000181848
0.000785412
-0.000157229
0.000727659
-0.000144975
0.000635645
-0.000150944
0.000499833
-0.000181006
0.00031171
-0.000240384
6.41475e-05
-0.000331873
-0.000249155
-0.0004547
-0.000633931
-0.000600326
-0.00109508
-0.000745889
-0.00163161
-0.00084606
-0.002219
-0.000830158
-0.00276926
-0.000628316
-0.00306079
-0.000264859
-0.00268124
-0.00120982
-4.9247e-05
0.000310971
-0.000136944
0.000710919
-0.000223082
0.000921996
-0.000290221
0.00100871
-0.000334156
0.00102346
-0.000356335
0.00100094
-0.000359848
0.000962353
-0.00034774
0.000919964
-0.00032248
0.000880455
-0.000285952
0.000847061
-0.000239644
0.000820767
-0.000184915
0.000800876
-0.000123271
0.000785169
-5.67315e-05
0.000769964
1.18816e-05
0.000749991
7.88675e-05
0.000718426
0.000139056
0.000667471
0.000186244
0.000588457
0.000213317
0.00047276
0.000212751
0.000312276
0.000177269
9.96291e-05
0.000100809
-0.000172695
-2.02763e-05
-0.000512845
-0.000184829
-0.000930526
-0.000380939
-0.00143549
-0.000572579
-0.00202736
-0.000685549
-0.00265629
-0.000613825
-0.00313251
-0.000309236
-0.00298583
-0.00151906
-7.57201e-05
0.000386691
-0.000189288
0.000824486
-0.00028476
0.00101747
-0.000345281
0.00106923
-0.00037142
0.0010496
-0.00036899
0.000998512
-0.000344092
0.000937455
-0.00030161
0.000877482
-0.000245056
0.000823901
-0.000176854
0.000778859
-9.87078e-05
0.00074262
-1.20222e-05
0.00071419
8.17083e-05
0.000691439
0.000180598
0.000671074
0.000281922
0.000648667
0.000381749
0.000618599
0.000474924
0.000574296
0.000554885
0.000508496
0.000613923
0.000413722
0.000643568
0.00028263
0.000635065
0.000108133
0.000579846
-0.000117476
0.000470215
-0.000403214
0.00030029
-0.000760601
7.0942e-05
-0.00120615
-0.000198637
-0.00175778
-0.000444951
-0.00240998
-0.00053577
-0.0030417
-0.000341171
-0.00318043
-0.00186023
-0.000123191
0.000509882
-0.000267996
0.000969291
-0.000362201
0.00111167
-0.00039822
0.00110525
-0.000386911
0.00103829
-0.000341258
0.000952859
-0.000271618
0.000867815
-0.000185205
0.000791069
-8.66896e-05
0.000725386
2.10231e-05
0.000671147
0.000136104
0.000627539
0.000257324
0.00059297
0.000383519
0.000565244
0.000513143
0.00054145
0.000643895
0.000517916
0.000772341
0.000490153
0.000893686
0.00045295
0.00100166
0.000400525
0.00108858
0.0003268
0.00114559
0.000225622
0.00116286
9.08629e-05
0.00112995
-8.45698e-05
0.001036
-0.000309261
0.000869411
-0.000594014
0.000620107
-0.000956842
0.000289829
-0.00142751
-7.91322e-05
-0.00204102
-0.00036484
-0.00275599
-0.000345645
-0.00319963
-0.00220587
-0.000207825
0.000717707
-0.000372325
0.00113379
-0.000426997
0.00116635
-0.000395742
0.001074
-0.000308305
0.000950853
-0.000187649
0.000832204
-4.86024e-05
0.000728768
9.99348e-05
0.000642531
0.000252994
0.000572327
0.000408048
0.000516093
0.000563971
0.000471615
0.000720292
0.00043665
0.000876679
0.000408857
0.00103246
0.000385665
0.00118624
0.000364142
0.00133548
0.000340913
0.00147627
0.000312155
0.00160314
0.000273656
0.00170899
0.000220952
0.00178512
0.000149497
0.00182099
5.49878e-05
0.00180502
-6.85987e-05
0.00172381
-0.000228049
0.00156162
-0.000431827
0.00130051
-0.000695734
0.000924111
-0.00105111
0.000439091
-0.001556
-4.86277e-05
-0.00226827
-0.000282224
-0.00296603
-0.0024881
-0.000341681
0.00105939
-0.00043199
0.0012241
-0.000342756
0.00107711
-0.000159183
0.000890424
6.36121e-05
0.000728057
0.000297347
0.000598469
0.000527958
0.000498157
0.000749367
0.000421122
0.000959696
0.000361998
0.00115917
0.000316622
0.00134895
0.000281829
0.0015305
0.0002551
0.00170509
0.000234272
0.00187344
0.000217314
0.00203541
0.000202167
0.00218969
0.000186635
0.00233351
0.00016834
0.00246243
0.000144733
0.00257028
0.000113103
0.00264916
7.06186e-05
0.00268875
1.53934e-05
0.00267732
-5.71692e-05
0.00259953
-0.000150253
0.00243751
-0.000269812
0.00216847
-0.000426692
0.00176372
-0.000646355
0.00119416
-0.000986442
0.000505892
-0.00158
-2.99914e-05
-0.00243015
-0.00251809
-0.000301555
0.00136094
-4.74386e-05
0.000969983
0.000382983
0.000646689
0.000804248
0.000469159
0.00118557
0.000346736
0.00152292
0.000261117
0.00181897
0.000202105
0.00207903
0.000161059
0.0023091
0.000131929
0.0025148
0.000110928
0.00270098
9.56423e-05
0.00287168
8.44043e-05
0.00302999
7.59602e-05
0.00317803
6.92746e-05
0.00331679
6.34057e-05
0.003446
5.74278e-05
0.00356395
5.03959e-05
0.00366733
4.13469e-05
0.00375108
2.93497e-05
0.00380808
1.36272e-05
0.00383078
-7.31013e-06
0.00380845
-3.48416e-05
0.00372632
-6.81223e-05
0.00356775
-0.000111242
0.00330896
-0.000167899
0.00291418
-0.00025158
0.00232532
-0.000397578
0.00148825
-0.000742933
0.000505399
-0.00144729
-0.00201269
0.00136094
0.00233093
0.00297762
0.00344678
0.00379351
0.00405463
0.00425673
0.00441779
0.00454972
0.00466065
0.00475629
0.0048407
0.00491666
0.00498593
0.00504934
0.00510676
0.00515716
0.00519851
0.00522786
0.00524148
0.00523417
0.00519933
0.00513121
0.00501997
0.00485207
0.00460049
0.00420291
0.00345998
0.00201269
)
;

boundaryField
{
    movingWall
    {
        type            calculated;
        value           uniform 0;
    }
    fixedWalls
    {
        type            calculated;
        value           uniform 0;
    }
    frontAndBack
    {
        type            empty;
        value           nonuniform 0();
    }
}


// ************************************************************************* //
