/*--------------------------------*- C++ -*----------------------------------*\
  =========                 |
  \\      /  F ield         | OpenFOAM: The Open Source CFD Toolbox
   \\    /   O peration     | Website:  https://openfoam.org
    \\  /    A nd           | Version:  7
     \\/     M anipulation  |
\*---------------------------------------------------------------------------*/
FoamFile
{
    version     2.0;
    format      ascii;
    class       volVectorField;
    location    "5.5";
    object      U;
}
// * * * * * * * * * * * * * * * * * * * * * * * * * * * * * * * * * * * * * //

dimensions      [0 1 -1 0 0 0 0];

internalField   nonuniform List<vector> 
900
(
(6.80308e-05 -6.71722e-05 0)
(4.25793e-05 8.41605e-06 0)
(-0.000270407 9.86977e-05 0)
(-0.000803997 0.00016526 0)
(-0.00149547 0.000206392 0)
(-0.00228563 0.000227712 0)
(-0.00312544 0.000235579 0)
(-0.00397833 0.000234732 0)
(-0.00481706 0.00022792 0)
(-0.00561974 0.000216298 0)
(-0.00636661 0.000199913 0)
(-0.00703764 0.000178124 0)
(-0.00761133 0.00014998 0)
(-0.0080643 0.000114565 0)
(-0.00837205 7.13355e-05 0)
(-0.00851056 2.04375e-05 0)
(-0.00845867 -3.708e-05 0)
(-0.00820132 -9.89773e-05 0)
(-0.0077331 -0.000161734 0)
(-0.00706158 -0.000220721 0)
(-0.00620987 -0.000270545 0)
(-0.00521775 -0.000305636 0)
(-0.0041409 -0.000320985 0)
(-0.0030477 -0.00031287 0)
(-0.00201406 -0.000279408 0)
(-0.00111667 -0.000220859 0)
(-0.000424244 -0.000140328 0)
(1.03209e-05 -4.63342e-05 0)
(0.000164552 4.42322e-05 0)
(8.56927e-05 8.50512e-05 0)
(-6.4299e-06 -4.43998e-05 0)
(-0.000376268 0.000373316 0)
(-0.00135713 0.000815001 0)
(-0.00279045 0.00116084 0)
(-0.00456381 0.00139528 0)
(-0.00656357 0.00153153 0)
(-0.00868467 0.00159027 0)
(-0.0108403 0.00158983 0)
(-0.0129596 0.00154274 0)
(-0.0149825 0.00145562 0)
(-0.0168543 0.00133037 0)
(-0.0185212 0.00116573 0)
(-0.0199286 0.000959046 0)
(-0.02102 0.000708018 0)
(-0.0217389 0.00041248 0)
(-0.0220327 7.59575e-05 0)
(-0.0218574 -0.000293217 0)
(-0.0211846 -0.000680104 0)
(-0.0200087 -0.00106395 0)
(-0.0183534 -0.00141873 0)
(-0.0162768 -0.00171505 0)
(-0.0138727 -0.00192337 0)
(-0.0112689 -0.00201779 0)
(-0.00861905 -0.00198006 0)
(-0.00609164 -0.00180298 0)
(-0.00385375 -0.00149301 0)
(-0.00205213 -0.00107337 0)
(-0.000789821 -0.000590624 0)
(-0.000101701 -0.000124081 0)
(4.9702e-05 0.000162691 0)
(-0.000102972 0.000272948 0)
(-0.000859423 0.00136433 0)
(-0.00250715 0.00241548 0)
(-0.00475404 0.00324791 0)
(-0.00744624 0.0038289 0)
(-0.0104382 0.00417782 0)
(-0.0135904 0.00433209 0)
(-0.0167826 0.00432841 0)
(-0.0199132 0.00419413 0)
(-0.0228932 0.0039453 0)
(-0.0256409 0.00358811 0)
(-0.0280766 0.00312193 0)
(-0.0301205 0.00254314 0)
(-0.0316919 0.0018493 0)
(-0.0327122 0.00104335 0)
(-0.0331094 0.00013734 0)
(-0.0328246 -0.000844372 0)
(-0.0318214 -0.00186286 0)
(-0.0300957 -0.00286504 0)
(-0.0276839 -0.00378567 0)
(-0.0246688 -0.00455228 0)
(-0.0211826 -0.00509279 0)
(-0.017403 -0.00534481 0)
(-0.013543 -0.00526558 0)
(-0.0098348 -0.00484075 0)
(-0.00650717 -0.00409136 0)
(-0.00375952 -0.00308003 0)
(-0.00172851 -0.00191893 0)
(-0.000469423 -0.000781804 0)
(-1.73742e-05 3.97504e-05 0)
(-0.00018579 0.000848392 0)
(-0.00129934 0.00288866 0)
(-0.00356988 0.00471065 0)
(-0.00655494 0.00613285 0)
(-0.010053 0.00712605 0)
(-0.0138913 0.00772388 0)
(-0.0179052 0.00798361 0)
(-0.0219523 0.00796165 0)
(-0.0259103 0.00770129 0)
(-0.0296703 0.00722901 0)
(-0.0331312 0.00655612 0)
(-0.0361943 0.00568332 0)
(-0.038761 0.00460685 0)
(-0.0407325 0.00332533 0)
(-0.0420123 0.00184674 0)
(-0.0425124 0.000194882 0)
(-0.0421609 -0.00158512 0)
(-0.0409124 -0.00342434 0)
(-0.0387604 -0.00522911 0)
(-0.0357469 -0.00688518 0)
(-0.0319708 -0.00826623 0)
(-0.0275915 -0.00924687 0)
(-0.0228256 -0.00971892 0)
(-0.0179344 -0.00960895 0)
(-0.0132036 -0.0088941 0)
(-0.00891598 -0.00761414 0)
(-0.00531863 -0.00587971 0)
(-0.00258249 -0.00387829 0)
(-0.00079322 -0.00188069 0)
(-7.08038e-05 -0.000280078 0)
(-0.00025186 0.00164747 0)
(-0.00167772 0.00489847 0)
(-0.00450918 0.00763861 0)
(-0.0081575 0.00973179 0)
(-0.012371 0.0111794 0)
(-0.0169494 0.0120429 0)
(-0.0217077 0.0124055 0)
(-0.0264874 0.012346 0)
(-0.0311529 0.0119246 0)
(-0.0355826 0.0111784 0)
(-0.0396627 0.0101241 0)
(-0.0432813 0.00876334 0)
(-0.0463259 0.0070922 0)
(-0.0486825 0.00511029 0)
(-0.0502387 0.00283103 0)
(-0.0508897 0.000291058 0)
(-0.0505473 -0.00244189 0)
(-0.0491518 -0.00526447 0)
(-0.0466857 -0.00803643 0)
(-0.0431872 -0.0105863 0)
(-0.0387615 -0.0127235 0)
(-0.0335872 -0.0142578 0)
(-0.0279144 -0.015024 0)
(-0.0220515 -0.0149093 0)
(-0.0163414 -0.0138783 0)
(-0.0111275 -0.0119912 0)
(-0.00671302 -0.00941317 0)
(-0.00331203 -0.00641508 0)
(-0.00104474 -0.00336729 0)
(-0.000102621 -0.000752702 0)
(-0.000304334 0.00263578 0)
(-0.00199904 0.00733936 0)
(-0.00532781 0.0111398 0)
(-0.00956974 0.0139803 0)
(-0.0144242 0.0159181 0)
(-0.019664 0.0170582 0)
(-0.0250859 0.0175185 0)
(-0.0305197 0.0174043 0)
(-0.0358219 0.0167946 0)
(-0.040864 0.0157377 0)
(-0.0455251 0.0142549 0)
(-0.0496851 0.012348 0)
(-0.0532211 0.0100109 0)
(-0.0560057 0.00724249 0)
(-0.0579101 0.00405954 0)
(-0.0588093 0.00051004 0)
(-0.0585924 -0.00331602 0)
(-0.0571753 -0.00727931 0)
(-0.0545175 -0.0111884 0)
(-0.0506401 -0.0148064 0)
(-0.0456421 -0.017866 0)
(-0.0397125 -0.0200967 0)
(-0.0331322 -0.0212593 0)
(-0.026262 -0.0211868 0)
(-0.0195152 -0.0198221 0)
(-0.0133143 -0.017245 0)
(-0.00803855 -0.013683 0)
(-0.00396062 -0.00950397 0)
(-0.00123866 -0.00519233 0)
(-0.000115596 -0.00133481 0)
(-0.000347254 0.00378356 0)
(-0.00227475 0.010157 0)
(-0.00604438 0.015151 0)
(-0.0108197 0.0188123 0)
(-0.0162551 0.0212751 0)
(-0.0220979 0.0227033 0)
(-0.0281291 0.0232595 0)
(-0.0341706 0.0230813 0)
(-0.0400753 0.0222691 0)
(-0.0457131 0.020883 0)
(-0.0509613 0.0189478 0)
(-0.0556959 0.0164633 0)
(-0.0597868 0.0134183 0)
(-0.0630946 0.00980642 0)
(-0.0654723 0.00564311 0)
(-0.0667701 0.000982817 0)
(-0.0668451 -0.00406604 0)
(-0.0655756 -0.00932996 0)
(-0.0628815 -0.0145638 0)
(-0.0587481 -0.0194567 0)
(-0.0532508 -0.0236501 0)
(-0.0465757 -0.0267709 0)
(-0.0390305 -0.0284808 0)
(-0.0310366 -0.0285338 0)
(-0.0230977 -0.0268331 0)
(-0.0157458 -0.0234735 0)
(-0.00946827 -0.0187553 0)
(-0.00462179 -0.013167 0)
(-0.0014112 -0.00733851 0)
(-0.000116535 -0.00199897 0)
(-0.000383821 0.0050686 0)
(-0.0025165 0.0133069 0)
(-0.00668116 0.0196192 0)
(-0.0119409 0.0241733 0)
(-0.0179101 0.0271981 0)
(-0.0243134 0.0289311 0)
(-0.030919 0.0295896 0)
(-0.0375446 0.0293502 0)
(-0.044044 0.0283381 0)
(-0.0502908 0.026626 0)
(-0.0561656 0.0242414 0)
(-0.0615455 0.0211789 0)
(-0.0662968 0.0174169 0)
(-0.0702702 0.0129375 0)
(-0.0732991 0.00774643 0)
(-0.0752033 0.00189575 0)
(-0.0757978 -0.00449629 0)
(-0.0749071 -0.0112285 0)
(-0.0723894 -0.0180027 0)
(-0.0681692 -0.024427 0)
(-0.0622721 -0.0300332 0)
(-0.0548604 -0.0343174 0)
(-0.0462584 -0.0368038 0)
(-0.036954 -0.0371279 0)
(-0.0275673 -0.035122 0)
(-0.018781 -0.0308828 0)
(-0.0112398 -0.0247958 0)
(-0.00542529 -0.0175067 0)
(-0.00161019 -0.00984351 0)
(-0.000112804 -0.00274042 0)
(-0.00041615 0.00647512 0)
(-0.00273367 0.0167553 0)
(-0.00725812 0.024503 0)
(-0.0129642 0.0300212 0)
(-0.019431 0.0336488 0)
(-0.0263642 0.0357103 0)
(-0.0335223 0.0364882 0)
(-0.040723 0.0362053 0)
(-0.0478261 0.0350157 0)
(-0.0547143 0.0330064 0)
(-0.0612776 0.030206 0)
(-0.0674005 0.0266002 0)
(-0.0729511 0.0221513 0)
(-0.0777733 0.0168198 0)
(-0.0816813 0.0105905 0)
(-0.08446 0.00349853 0)
(-0.0858723 -0.00434257 0)
(-0.0856701 -0.012717 0)
(-0.083623 -0.0212801 0)
(-0.0795616 -0.029555 0)
(-0.0734251 -0.0369452 0)
(-0.0653185 -0.0427782 0)
(-0.0555605 -0.0463883 0)
(-0.0447045 -0.0472315 0)
(-0.0335129 -0.0450158 0)
(-0.0228733 -0.0398113 0)
(-0.0136571 -0.0320993 0)
(-0.00653644 -0.0227336 0)
(-0.00189405 -0.0128179 0)
(-0.000112096 -0.00358255 0)
(-0.000445516 0.00799192 0)
(-0.00293302 0.0204772 0)
(-0.00779089 0.0297712 0)
(-0.0139141 0.0363241 0)
(-0.0208506 0.0405988 0)
(-0.0282901 0.0430195 0)
(-0.0359855 0.043945 0)
(-0.0437587 0.0436521 0)
(-0.0514811 0.042329 0)
(-0.0590509 0.0400787 0)
(-0.0663749 0.0369306 0)
(-0.0733527 0.0328577 0)
(-0.0798618 0.027798 0)
(-0.0857454 0.0216798 0)
(-0.0908017 0.0144501 0)
(-0.0947791 0.00610725 0)
(-0.0973793 -0.00326251 0)
(-0.0982627 -0.0134489 0)
(-0.0970798 -0.0240787 0)
(-0.0935269 -0.0345932 0)
(-0.0874087 -0.0442496 0)
(-0.078723 -0.0521642 0)
(-0.0677431 -0.0574107 0)
(-0.0550708 -0.0591778 0)
(-0.0416301 -0.0569624 0)
(-0.0285747 -0.0507511 0)
(-0.0170978 -0.0411199 0)
(-0.00816166 -0.0291946 0)
(-0.00233447 -0.0164641 0)
(-0.000123135 -0.00458233 0)
(-0.000472618 0.00961082 0)
(-0.00311914 0.0244539 0)
(-0.00829067 0.0354 0)
(-0.0148081 0.0430569 0)
(-0.0221909 0.048025 0)
(-0.0301154 0.0508413 0)
(-0.0383326 0.0519524 0)
(-0.0466733 0.0516979 0)
(-0.055026 0.0503062 0)
(-0.063312 0.0478999 0)
(-0.0714637 0.0445093 0)
(-0.079405 0.040091 0)
(-0.087033 0.034551 0)
(-0.0942 0.0277716 0)
(-0.100696 0.0196421 0)
(-0.106233 0.0100973 0)
(-0.110447 -0.000836108 0)
(-0.112891 -0.0129809 0)
(-0.113068 -0.0259706 0)
(-0.110494 -0.0391781 0)
(-0.104781 -0.0517041 0)
(-0.0957541 -0.0624082 0)
(-0.0835784 -0.070019 0)
(-0.0688603 -0.0733378 0)
(-0.0526832 -0.0715181 0)
(-0.036524 -0.0643578 0)
(-0.0220151 -0.0524973 0)
(-0.010554 -0.0374031 0)
(-0.00301956 -0.0210983 0)
(-0.000156371 -0.00583765 0)
(-0.000497794 0.0113255 0)
(-0.00329502 0.0286717 0)
(-0.00876513 0.0413707 0)
(-0.0156576 0.0501984 0)
(-0.0234641 0.0559056 0)
(-0.0318495 0.0591563 0)
(-0.0405656 0.0604971 0)
(-0.0494563 0.0603409 0)
(-0.0584337 0.0589641 0)
(-0.0674494 0.0565136 0)
(-0.0764705 0.0530221 0)
(-0.0854568 0.0484277 0)
(-0.0943374 0.0425968 0)
(-0.102986 0.0353509 0)
(-0.111196 0.0264991 0)
(-0.118653 0.0158805 0)
(-0.124919 0.00342188 0)
(-0.129439 -0.0107862 0)
(-0.131547 -0.0264198 0)
(-0.130533 -0.0428153 0)
(-0.125758 -0.0589225 0)
(-0.116798 -0.0733072 0)
(-0.103623 -0.0842615 0)
(-0.0867614 -0.0900511 0)
(-0.0674113 -0.0892983 0)
(-0.0474006 -0.0814345 0)
(-0.0289256 -0.0670703 0)
(-0.0140146 -0.0480675 0)
(-0.00405636 -0.0271748 0)
(-0.00022454 -0.00749639 0)
(-0.000521252 0.013131 0)
(-0.00346311 0.03312 0)
(-0.00922042 0.047668 0)
(-0.0164704 0.0577281 0)
(-0.0246758 0.0642157 0)
(-0.0334898 0.0679366 0)
(-0.0426671 0.0695517 0)
(-0.0520683 0.0695593 0)
(-0.061634 0.0682928 0)
(-0.0713533 0.0659305 0)
(-0.0812374 0.0625109 0)
(-0.0912927 0.057953 0)
(-0.101493 0.052077 0)
(-0.111748 0.0446296 0)
(-0.12187 0.035315 0)
(-0.13153 0.0238405 0)
(-0.140235 0.00998299 0)
(-0.147316 -0.00631644 0)
(-0.151927 -0.0248217 0)
(-0.153114 -0.0448922 0)
(-0.149941 -0.0653528 0)
(-0.141661 -0.0844592 0)
(-0.127941 -0.0999877 0)
(-0.109108 -0.109508 0)
(-0.0863575 -0.11087 0)
(-0.0618278 -0.102862 0)
(-0.0383726 -0.0858581 0)
(-0.0188884 -0.0621071 0)
(-0.00557311 -0.0353095 0)
(-0.000343491 -0.00976678 0)
(-0.000543354 0.0150234 0)
(-0.00362665 0.0377913 0)
(-0.00966412 0.0542788 0)
(-0.0172555 0.0656244 0)
(-0.0258303 0.0729231 0)
(-0.0350284 0.07714 0)
(-0.0446074 0.0790661 0)
(-0.054447 0.0792986 0)
(-0.0645199 0.0782394 0)
(-0.0748582 0.0761063 0)
(-0.0855235 0.0729495 0)
(-0.0965779 0.0686703 0)
(-0.108052 0.0630387 0)
(-0.119905 0.0557137 0)
(-0.131983 0.0462704 0)
(-0.143967 0.0342465 0)
(-0.155328 0.0192186 0)
(-0.165295 0.000921254 0)
(-0.172869 -0.0205818 0)
(-0.176866 -0.0447323 0)
(-0.176033 -0.0702858 0)
(-0.169248 -0.0952114 0)
(-0.155771 -0.11673 0)
(-0.135561 -0.131579 0)
(-0.109611 -0.136567 0)
(-0.080207 -0.12945 0)
(-0.0508534 -0.109984 0)
(-0.0255491 -0.0806432 0)
(-0.00772216 -0.0462992 0)
(-0.000533947 -0.0129295 0)
(-0.00056499 0.017001 0)
(-0.00379156 0.042683 0)
(-0.0101093 0.0611934 0)
(-0.0180285 0.0738636 0)
(-0.0269383 0.0819862 0)
(-0.0364605 0.0867047 0)
(-0.0463543 0.0889588 0)
(-0.0565187 0.0894599 0)
(-0.06696 0.0886907 0)
(-0.0777547 0.0869182 0)
(-0.0890178 0.0842115 0)
(-0.100871 0.0804578 0)
(-0.113409 0.0753757 0)
(-0.12665 0.0685271 0)
(-0.140491 0.0593385 0)
(-0.154643 0.0471459 0)
(-0.168575 0.0312806 0)
(-0.181468 0.0112113 0)
(-0.192211 -0.0132517 0)
(-0.19944 -0.0417037 0)
(-0.201635 -0.0729154 0)
(-0.197296 -0.104647 0)
(-0.185201 -0.133602 0)
(-0.16476 -0.155622 0)
(-0.13648 -0.166233 0)
(-0.10247 -0.161691 0)
(-0.0666886 -0.140509 0)
(-0.0343654 -0.104943 0)
(-0.0106828 -0.0611306 0)
(-0.000824858 -0.017352 0)
(-0.000588091 0.0190663 0)
(-0.00396891 0.047801 0)
(-0.0105796 0.0684086 0)
(-0.0188199 0.0824219 0)
(-0.0280261 0.0913523 0)
(-0.0377956 0.0965458 0)
(-0.0478858 0.099111 0)
(-0.0582134 0.09989 0)
(-0.0688162 0.0994587 0)
(-0.0798129 0.0981436 0)
(-0.0913686 0.0960401 0)
(-0.103662 0.0930271 0)
(-0.116849 0.0887728 0)
(-0.131013 0.0827385 0)
(-0.146113 0.0741908 0)
(-0.161914 0.0622431 0)
(-0.177926 0.0459502 0)
(-0.193351 0.0244718 0)
(-0.207052 -0.00268754 0)
(-0.217589 -0.0353708 0)
(-0.223284 -0.0724582 0)
(-0.222332 -0.111645 0)
(-0.213017 -0.149258 0)
(-0.194057 -0.180313 0)
(-0.165153 -0.198934 0)
(-0.127759 -0.199407 0)
(-0.0858113 -0.178149 0)
(-0.0456265 -0.136283 0)
(-0.0146596 -0.0809652 0)
(-0.00125852 -0.0235057 0)
(-0.000616366 0.0212296 0)
(-0.00417833 0.0531665 0)
(-0.0111167 0.0759339 0)
(-0.0196842 0.0912783 0)
(-0.0291474 0.100959 0)
(-0.0390708 0.106553 0)
(-0.0492058 0.109362 0)
(-0.0594836 0.110374 0)
(-0.069969 0.110271 0)
(-0.0808154 0.109447 0)
(-0.0922287 0.10803 0)
(-0.104434 0.105896 0)
(-0.117638 0.102669 0)
(-0.131985 0.0977127 0)
(-0.147501 0.0901343 0)
(-0.16403 0.0788241 0)
(-0.181173 0.0625543 0)
(-0.198229 0.0401622 0)
(-0.214164 0.0108179 0)
(-0.227591 -0.0256383 0)
(-0.236843 -0.0683131 0)
(-0.239981 -0.115027 0)
(-0.234876 -0.161976 0)
(-0.21951 -0.203607 0)
(-0.192506 -0.232738 0)
(-0.154111 -0.241371 0)
(-0.107478 -0.222855 0)
(-0.0594025 -0.17569 0)
(-0.0198679 -0.107077 0)
(-0.00189744 -0.0319828 0)
(-0.000656434 0.0235152 0)
(-0.00445278 0.0588267 0)
(-0.0117886 0.0838008 0)
(-0.0207117 0.100421 0)
(-0.0303959 0.110737 0)
(-0.0403644 0.116593 0)
(-0.0503595 0.119509 0)
(-0.0603238 0.120637 0)
(-0.0703435 0.120772 0)
(-0.0805963 0.12038 0)
(-0.0913138 0.119627 0)
(-0.10275 0.118393 0)
(-0.115146 0.116262 0)
(-0.128695 0.112513 0)
(-0.143491 0.106113 0)
(-0.159475 0.0957508 0)
(-0.176385 0.079943 0)
(-0.193707 0.0572306 0)
(-0.210628 0.0264627 0)
(-0.225977 -0.0128646 0)
(-0.238303 -0.060255 0)
(-0.245747 -0.113799 0)
(-0.245971 -0.169914 0)
(-0.236327 -0.222909 0)
(-0.214256 -0.264692 0)
(-0.178327 -0.285013 0)
(-0.129978 -0.273328 0)
(-0.0753342 -0.223528 0)
(-0.0264984 -0.140708 0)
(-0.0028336 -0.0435068 0)
(-0.000719792 0.0259703 0)
(-0.00484571 0.0648699 0)
(-0.0127024 0.0920756 0)
(-0.022042 0.109855 0)
(-0.0319185 0.12061 0)
(-0.0418078 0.126505 0)
(-0.0514449 0.129306 0)
(-0.0607853 0.130343 0)
(-0.0699318 0.130528 0)
(-0.0790758 0.130398 0)
(-0.0884581 0.130158 0)
(-0.0983413 0.129693 0)
(-0.108983 0.128562 0)
(-0.120607 0.125977 0)
(-0.133373 0.120797 0)
(-0.147334 0.111558 0)
(-0.162401 0.0965803 0)
(-0.178307 0.0741687 0)
(-0.194571 0.0429009 0)
(-0.210441 0.00194089 0)
(-0.224808 -0.0486644 0)
(-0.236099 -0.107489 0)
(-0.242104 -0.171529 0)
(-0.239817 -0.235521 0)
(-0.225638 -0.291147 0)
(-0.196249 -0.326435 0)
(-0.150535 -0.326631 0)
(-0.0924037 -0.278949 0)
(-0.0346568 -0.182792 0)
(-0.00420099 -0.0589268 0)
(-0.000826594 0.0286799 0)
(-0.00544291 0.0714478 0)
(-0.014021 0.100875 0)
(-0.0238808 0.119607 0)
(-0.0339266 0.130501 0)
(-0.0435914 0.136106 0)
(-0.0526156 0.138471 0)
(-0.0609769 0.139112 0)
(-0.0687969 0.139052 0)
(-0.0762736 0.138897 0)
(-0.083644 0.138882 0)
(-0.0911623 0.1389 0)
(-0.0990846 0.138497 0)
(-0.107655 0.13685 0)
(-0.117091 0.132755 0)
(-0.127566 0.124659 0)
(-0.139189 0.110767 0)
(-0.151981 0.0892372 0)
(-0.165851 0.0584496 0)
(-0.180541 0.0172941 0)
(-0.195446 -0.0345665 0)
(-0.209491 -0.0964046 0)
(-0.220866 -0.166076 0)
(-0.226611 -0.239313 0)
(-0.222506 -0.308471 0)
(-0.203534 -0.360901 0)
(-0.165589 -0.378174 0)
(-0.108808 -0.339385 0)
(-0.0442835 -0.233544 0)
(-0.00619301 -0.0791917 0)
(-0.00101346 0.0317916 0)
(-0.00638316 0.0788067 0)
(-0.015989 0.110383 0)
(-0.0265181 0.129729 0)
(-0.0367022 0.140318 0)
(-0.0459571 0.145177 0)
(-0.0540606 0.146677 0)
(-0.0610373 0.146517 0)
(-0.0670399 0.145823 0)
(-0.0722748 0.14525 0)
(-0.0769697 0.145055 0)
(-0.081362 0.145141 0)
(-0.0856967 0.145055 0)
(-0.0902304 0.143968 0)
(-0.0952362 0.140671 0)
(-0.101007 0.133596 0)
(-0.107854 0.120927 0)
(-0.116096 0.100776 0)
(-0.126037 0.0714217 0)
(-0.137903 0.0315628 0)
(-0.151673 -0.0194842 0)
(-0.1669 -0.0816865 0)
(-0.182375 -0.153921 0)
(-0.195629 -0.233366 0)
(-0.202432 -0.31395 0)
(-0.196692 -0.383785 0)
(-0.171466 -0.42228 0)
(-0.122069 -0.400348 0)
(-0.0550541 -0.291951 0)
(-0.0090776 -0.105298 0)
(-0.00135037 0.0355585 0)
(-0.00789611 0.0873307 0)
(-0.0189701 0.120864 0)
(-0.0303466 0.140281 0)
(-0.0405881 0.14993 0)
(-0.0491602 0.153441 0)
(-0.0559422 0.153535 0)
(-0.061051 0.152087 0)
(-0.0646971 0.150299 0)
(-0.0671092 0.148846 0)
(-0.0685114 0.147997 0)
(-0.0691257 0.14766 0)
(-0.0691861 0.147397 0)
(-0.06896 0.146411 0)
(-0.0687722 0.143537 0)
(-0.0690274 0.137272 0)
(-0.0702225 0.12586 0)
(-0.0729454 0.107462 0)
(-0.0778514 0.0803552 0)
(-0.0855993 0.0431305 0)
(-0.0967145 -0.00518097 0)
(-0.111373 -0.0651066 0)
(-0.12909 -0.136536 0)
(-0.148225 -0.218274 0)
(-0.165218 -0.306509 0)
(-0.173845 -0.391626 0)
(-0.16514 -0.453209 0)
(-0.129393 -0.455798 0)
(-0.0662559 -0.355339 0)
(-0.0131826 -0.138208 0)
(-0.00197728 0.0404205 0)
(-0.0103724 0.0975992 0)
(-0.0235 0.132657 0)
(-0.0358652 0.151286 0)
(-0.045934 0.159104 0)
(-0.0533617 0.160496 0)
(-0.0582388 0.158546 0)
(-0.0608469 0.155271 0)
(-0.061498 0.151899 0)
(-0.0604691 0.149097 0)
(-0.0579975 0.147116 0)
(-0.0543011 0.145868 0)
(-0.0496093 0.144941 0)
(-0.0442004 0.143597 0)
(-0.0384408 0.140764 0)
(-0.0328282 0.135068 0)
(-0.0280075 0.124879 0)
(-0.0247756 0.108487 0)
(-0.0240667 0.0842388 0)
(-0.0268801 0.0506935 0)
(-0.0341729 0.00669608 0)
(-0.0466546 -0.0486708 0)
(-0.0645646 -0.116134 0)
(-0.0872681 -0.195982 0)
(-0.112419 -0.286922 0)
(-0.134735 -0.382834 0)
(-0.144609 -0.466231 0)
(-0.128041 -0.498979 0)
(-0.0766248 -0.419173 0)
(-0.0187895 -0.178697 0)
(-0.00318178 0.047158 0)
(-0.0144878 0.110451 0)
(-0.0303401 0.146113 0)
(-0.0436165 0.162601 0)
(-0.0529146 0.167365 0)
(-0.0583394 0.165688 0)
(-0.0603642 0.160987 0)
(-0.0595366 0.155343 0)
(-0.0563296 0.149941 0)
(-0.0511056 0.145385 0)
(-0.0441391 0.14188 0)
(-0.0356595 0.139329 0)
(-0.0258975 0.13735 0)
(-0.0151378 0.135285 0)
(-0.00376423 0.132186 0)
(0.00766538 0.126839 0)
(0.0184139 0.117812 0)
(0.0275586 0.103566 0)
(0.0339808 0.0825746 0)
(0.0364522 0.0534332 0)
(0.0337214 0.0148966 0)
(0.0246576 -0.0341954 0)
(0.00839239 -0.0951105 0)
(-0.0154344 -0.169216 0)
(-0.0459905 -0.257436 0)
(-0.0798641 -0.357765 0)
(-0.108559 -0.458252 0)
(-0.115359 -0.523264 0)
(-0.0840967 -0.477071 0)
(-0.0258428 -0.226968 0)
(-0.00555409 0.0572 0)
(-0.0214005 0.127018 0)
(-0.0404476 0.161388 0)
(-0.053875 0.173623 0)
(-0.0609641 0.173695 0)
(-0.0627134 0.167839 0)
(-0.0602253 0.159679 0)
(-0.0544407 0.151211 0)
(-0.0460619 0.143471 0)
(-0.0355745 0.13693 0)
(-0.0233104 0.131704 0)
(-0.00951847 0.127662 0)
(0.00557585 0.124446 0)
(0.0217012 0.121478 0)
(0.0384799 0.11795 0)
(0.0553676 0.112825 0)
(0.0716144 0.104904 0)
(0.0862506 0.092853 0)
(0.0980875 0.0753202 0)
(0.105776 0.0510004 0)
(0.10787 0.0186501 0)
(0.102924 -0.0230031 0)
(0.0895735 -0.0754568 0)
(0.0666335 -0.140646 0)
(0.0334185 -0.220997 0)
(-0.00911293 -0.318297 0)
(-0.0554023 -0.427933 0)
(-0.0881885 -0.522527 0)
(-0.0854358 -0.520827 0)
(-0.0334284 -0.282097 0)
(-0.0102629 0.0732735 0)
(-0.0329671 0.148594 0)
(-0.0544852 0.177881 0)
(-0.0654482 0.182642 0)
(-0.0670425 0.175938 0)
(-0.0618458 0.164751 0)
(-0.0518956 0.152582 0)
(-0.0386492 0.141102 0)
(-0.0230772 0.131034 0)
(-0.0057895 0.122617 0)
(0.012844 0.115821 0)
(0.0325858 0.110438 0)
(0.053247 0.106115 0)
(0.0746164 0.102338 0)
(0.0963861 0.0984373 0)
(0.11809 0.0935716 0)
(0.139052 0.0867613 0)
(0.158359 0.0769158 0)
(0.174853 0.0628968 0)
(0.187162 0.0435624 0)
(0.193728 0.0177722 0)
(0.19287 -0.0157127 0)
(0.182841 -0.0583599 0)
(0.161787 -0.1122 0)
(0.12783 -0.180309 0)
(0.079547 -0.267148 0)
(0.0181315 -0.375659 0)
(-0.0415474 -0.49143 0)
(-0.0757961 -0.540639 0)
(-0.0391815 -0.341787 0)
(-0.0193735 0.100298 0)
(-0.0513978 0.175393 0)
(-0.0701873 0.192671 0)
(-0.0713646 0.185417 0)
(-0.0604484 0.169693 0)
(-0.0423705 0.152435 0)
(-0.0202592 0.136336 0)
(0.00399059 0.122328 0)
(0.0292854 0.110596 0)
(0.0550462 0.101017 0)
(0.0809993 0.093346 0)
(0.107034 0.0872635 0)
(0.133098 0.0823915 0)
(0.159125 0.0782742 0)
(0.184953 0.0743639 0)
(0.210269 0.0700086 0)
(0.234548 0.0644573 0)
(0.257018 0.0568765 0)
(0.27664 0.0463793 0)
(0.292115 0.0320509 0)
(0.301839 0.0129593 0)
(0.303994 -0.0119269 0)
(0.296542 -0.0438239 0)
(0.27711 -0.084539 0)
(0.242917 -0.137 0)
(0.190826 -0.206761 0)
(0.118077 -0.302667 0)
(0.0333031 -0.426706 0)
(-0.0477863 -0.526445 0)
(-0.0382949 -0.40076 0)
(-0.0345981 0.144164 0)
(-0.0735664 0.200112 0)
(-0.0696821 0.194516 0)
(-0.04436 0.170898 0)
(-0.00897735 0.145745 0)
(0.0298906 0.123782 0)
(0.0689791 0.105746 0)
(0.106823 0.0912747 0)
(0.142856 0.0797931 0)
(0.176996 0.0707548 0)
(0.209389 0.0636864 0)
(0.240277 0.0581699 0)
(0.269898 0.0538161 0)
(0.298432 0.0502338 0)
(0.325939 0.0470052 0)
(0.352308 0.043668 0)
(0.37721 0.0397104 0)
(0.400059 0.0345748 0)
(0.419981 0.0276687 0)
(0.435824 0.0183702 0)
(0.446052 0.0060062 0)
(0.448895 -0.0100702 0)
(0.44212 -0.0306573 0)
(0.423059 -0.0570976 0)
(0.388319 -0.0916335 0)
(0.333989 -0.139242 0)
(0.253825 -0.210928 0)
(0.150031 -0.325662 0)
(0.013608 -0.46613 0)
(-0.0176133 -0.44141 0)
(-0.0375092 0.236067 0)
(-0.047462 0.203889 0)
(0.0280154 0.153373 0)
(0.100007 0.117466 0)
(0.167071 0.0907365 0)
(0.227139 0.0710583 0)
(0.279895 0.056822 0)
(0.326084 0.0464724 0)
(0.36674 0.0388459 0)
(0.402871 0.0331695 0)
(0.435363 0.0289221 0)
(0.464959 0.0257246 0)
(0.492255 0.0232766 0)
(0.517689 0.0213172 0)
(0.541525 0.0195986 0)
(0.563828 0.0178691 0)
(0.584441 0.0158653 0)
(0.602957 0.0133114 0)
(0.618687 0.00992643 0)
(0.630642 0.00543436 0)
(0.637553 -0.000441484 0)
(0.637979 -0.00798895 0)
(0.629773 -0.01768 0)
(0.610501 -0.0301224 0)
(0.576559 -0.0464406 0)
(0.524225 -0.0698443 0)
(0.443748 -0.108373 0)
(0.333906 -0.188912 0)
(0.143267 -0.336298 0)
(0.0605336 -0.41299 0)
(0.23129 0.158586 0)
(0.291481 0.117138 0)
(0.441069 0.075956 0)
(0.539958 0.0506209 0)
(0.606974 0.0342736 0)
(0.656389 0.023495 0)
(0.694346 0.016484 0)
(0.724196 0.0119396 0)
(0.748283 0.00895931 0)
(0.768267 0.00697564 0)
(0.785293 0.00563988 0)
(0.800157 0.00472964 0)
(0.813415 0.0040943 0)
(0.82544 0.00362386 0)
(0.836443 0.00322998 0)
(0.846483 0.00283449 0)
(0.855466 0.00236334 0)
(0.86314 0.00174433 0)
(0.869092 0.000910423 0)
(0.872762 -0.000196139 0)
(0.873403 -0.00158523 0)
(0.870101 -0.00331619 0)
(0.861674 -0.00557285 0)
(0.847021 -0.00846164 0)
(0.823655 -0.0121794 0)
(0.789849 -0.0177177 0)
(0.734009 -0.0272187 0)
(0.656511 -0.0492013 0)
(0.454337 -0.110169 0)
(0.313218 -0.177536 0)
)
;

boundaryField
{
    movingWall
    {
        type            fixedValue;
        value           uniform (1 0 0);
    }
    fixedWalls
    {
        type            noSlip;
    }
    frontAndBack
    {
        type            empty;
    }
}


// ************************************************************************* //
