/*--------------------------------*- C++ -*----------------------------------*\
  =========                 |
  \\      /  F ield         | OpenFOAM: The Open Source CFD Toolbox
   \\    /   O peration     | Website:  https://openfoam.org
    \\  /    A nd           | Version:  7
     \\/     M anipulation  |
\*---------------------------------------------------------------------------*/
FoamFile
{
    version     2.0;
    format      ascii;
    class       surfaceScalarField;
    location    "3.6";
    object      phi;
}
// * * * * * * * * * * * * * * * * * * * * * * * * * * * * * * * * * * * * * //

dimensions      [0 3 -1 0 0 0 0];

internalField   nonuniform List<scalar> 
1740
(
3.05014e-07
-3.0501e-07
-7.13761e-07
1.01878e-06
-3.08819e-06
2.37443e-06
-6.46765e-06
3.37945e-06
-1.0474e-05
4.00633e-06
-1.47926e-05
4.31859e-06
-1.91909e-05
4.39829e-06
-2.35055e-05
4.31468e-06
-2.76204e-05
4.1149e-06
-3.14463e-05
3.8259e-06
-3.49058e-05
3.45945e-06
-3.79233e-05
3.01752e-06
-4.04204e-05
2.49709e-06
-4.23143e-05
1.89394e-06
-4.35202e-05
1.20582e-06
-4.39551e-05
4.34972e-07
-4.35455e-05
-4.09602e-07
-4.22354e-05
-1.31015e-06
-3.99973e-05
-2.23812e-06
-3.68439e-05
-3.15334e-06
-3.28403e-05
-4.00367e-06
-2.81141e-05
-4.7262e-06
-2.28641e-05
-5.24998e-06
-1.73636e-05
-5.50046e-06
-1.19583e-05
-5.40533e-06
-7.05552e-06
-4.90275e-06
-3.09835e-06
-3.95717e-06
-5.05806e-07
-2.59254e-06
4.57553e-07
-9.63361e-07
4.5755e-07
-1.01638e-06
7.11375e-07
-4.90321e-06
4.9056e-06
-1.1483e-05
8.95418e-06
-2.01281e-05
1.20246e-05
-3.01397e-05
1.40179e-05
-4.08805e-05
1.50595e-05
-5.18293e-05
1.5347e-05
-6.25819e-05
1.50674e-05
-7.28281e-05
1.43611e-05
-8.23196e-05
1.33174e-05
-9.08433e-05
1.19832e-05
-9.82012e-05
1.03754e-05
-0.000104199
8.49478e-06
-0.000108643
6.33775e-06
-0.000111343
3.90596e-06
-0.000112122
1.21435e-06
-0.000110833
-1.69866e-06
-0.000107372
-4.77151e-06
-0.000101705
-7.90504e-06
-9.38922e-05
-1.0966e-05
-8.41113e-05
-1.37845e-05
-7.26788e-05
-1.61587e-05
-6.00638e-05
-1.78649e-05
-4.68902e-05
-1.86741e-05
-3.39206e-05
-1.83749e-05
-2.20164e-05
-1.68069e-05
-1.20625e-05
-1.39111e-05
-4.84537e-06
-9.80962e-06
-8.8739e-07
-4.92135e-06
-4.29843e-07
-2.46518e-06
3.17655e-06
-9.26287e-06
1.17033e-05
-1.96363e-05
1.93276e-05
-3.26957e-05
2.50841e-05
-4.75235e-05
2.88457e-05
-6.32857e-05
3.08216e-05
-7.92819e-05
3.13432e-05
-9.49498e-05
3.07352e-05
-0.000109842
2.92533e-05
-0.000123593
2.70687e-05
-0.000135889
2.42784e-05
-0.000146439
2.09255e-05
-0.000154967
1.70227e-05
-0.000161203
1.25736e-05
-0.000164888
7.59126e-06
-0.000165789
2.11515e-06
-0.00016371
-3.77703e-06
-0.000158528
-9.95357e-06
-0.000150214
-1.62193e-05
-0.000138868
-2.23115e-05
-0.000124754
-2.78987e-05
-0.000108322
-3.25911e-05
-9.02254e-05
-3.59613e-05
-7.13204e-05
-3.75791e-05
-5.26354e-05
-3.706e-05
-3.53123e-05
-3.413e-05
-2.05087e-05
-2.87147e-05
-9.26248e-06
-2.10559e-05
-2.31575e-06
-1.18681e-05
-2.74559e-06
-3.69405e-06
6.8706e-06
-1.30661e-05
2.10753e-05
-2.67714e-05
3.30329e-05
-4.35854e-05
4.1898e-05
-6.23849e-05
4.76452e-05
-8.21884e-05
5.06252e-05
-0.000102177
5.13317e-05
-0.000121687
5.02449e-05
-0.000140182
4.77483e-05
-0.000157219
4.41056e-05
-0.000172412
3.94722e-05
-0.00018541
3.39236e-05
-0.000195877
2.74892e-05
-0.000203487
2.01837e-05
-0.000207932
1.2036e-05
-0.000208932
3.11505e-06
-0.000206257
-6.4518e-06
-0.00019976
-1.64505e-05
-0.000189409
-2.65702e-05
-0.000175328
-3.63923e-05
-0.000157836
-4.53911e-05
-0.000137477
-5.29501e-05
-0.00011504
-5.83983e-05
-9.15516e-05
-6.10675e-05
-6.82395e-05
-6.03721e-05
-4.646e-05
-5.59094e-05
-2.75921e-05
-4.75827e-05
-1.29067e-05
-3.57412e-05
-3.44385e-06
-2.1331e-05
-6.18944e-06
-4.66995e-06
1.15405e-05
-1.62153e-05
3.26207e-05
-3.27713e-05
4.95889e-05
-5.27794e-05
6.19061e-05
-7.49112e-05
6.9777e-05
-9.8055e-05
7.3769e-05
-0.000121303
7.45797e-05
-0.000143925
7.28665e-05
-0.000165329
6.91531e-05
-0.000185026
6.38022e-05
-0.000202585
5.70313e-05
-0.000217611
4.895e-05
-0.000229726
3.9604e-05
-0.000238561
2.90181e-05
-0.00024376
1.72356e-05
-0.000244999
4.35422e-06
-0.000242005
-9.44639e-06
-0.00023459
-2.38648e-05
-0.0002227
-3.84607e-05
-0.000206454
-5.26385e-05
-0.000186198
-6.56471e-05
-0.000162543
-7.66046e-05
-0.000136389
-8.45523e-05
-0.000108916
-8.85407e-05
-8.1541e-05
-8.7747e-05
-5.58351e-05
-8.16152e-05
-3.34064e-05
-7.00114e-05
-1.57719e-05
-5.33757e-05
-4.25614e-06
-3.28467e-05
-1.04456e-05
-5.43823e-06
1.69788e-05
-1.87972e-05
4.59796e-05
-3.77859e-05
6.85777e-05
-6.05407e-05
8.46608e-05
-8.55355e-05
9.47718e-05
-0.000111537
9.97709e-05
-0.000137565
0.000100607
-0.000162841
9.81427e-05
-0.000186744
9.30556e-05
-0.000208755
8.58138e-05
-0.000228421
7.66976e-05
-0.000245319
6.58475e-05
-0.000259036
5.33207e-05
-0.000269162
3.91448e-05
-0.000275296
2.33688e-05
-0.000277052
6.11105e-06
-0.000274096
-1.24029e-05
-0.000266175
-3.17855e-05
-0.000253177
-5.14593e-05
-0.000235183
-7.06319e-05
-0.000212537
-8.82933e-05
-0.000185894
-0.000103248
-0.000156255
-0.000114191
-0.000124968
-0.000119828
-9.36681e-05
-0.000119047
-6.41845e-05
-0.000111099
-3.83975e-05
-9.57984e-05
-1.8092e-05
-7.36812e-05
-4.84392e-06
-4.60948e-05
-1.52895e-05
-6.0647e-06
2.30435e-05
-2.09699e-05
6.08848e-05
-4.20801e-05
8.96879e-05
-6.72618e-05
0.000109843
-9.4805e-05
0.000122315
-0.000123363
0.000128329
-0.00015189
0.000129134
-0.000179577
0.00012583
-0.000205785
0.000119264
-0.000229987
0.000110016
-0.000251717
9.84278e-05
-0.000270536
8.46659e-05
-0.000286003
6.87877e-05
-0.000297668
5.08098e-05
-0.00030507
3.07708e-05
-0.00030775
8.79193e-06
-0.000305282
-1.4871e-05
-0.000297313
-3.97553e-05
-0.000283627
-6.51443e-05
-0.000264228
-9.00316e-05
-0.000239412
-0.000113109
-0.000209856
-0.000132804
-0.000176665
-0.000147382
-0.000141377
-0.000155116
-0.00010591
-0.000154514
-7.24247e-05
-0.000144584
-4.31493e-05
-0.000125074
-2.01786e-05
-9.66519e-05
-5.31672e-06
-6.09567e-05
-2.06062e-05
-6.61124e-06
2.96547e-05
-2.29002e-05
7.71738e-05
-4.59412e-05
0.000112729
-7.33601e-05
0.000137262
-0.000103277
0.000152231
-0.000134238
0.00015929
-0.000165142
0.000160039
-0.000195158
0.000155846
-0.000223644
0.000147749
-0.000250076
0.000136447
-0.000273989
0.000122341
-0.000294937
0.000105614
-0.000312457
8.63076e-05
-0.000326056
6.44087e-05
-0.000335204
3.99196e-05
-0.000339349
1.29366e-05
-0.000337938
-1.62816e-05
-0.000330472
-4.72217e-05
-0.000316581
-7.90354e-05
-0.000296123
-0.00011049
-0.000269298
-0.000139934
-0.000236763
-0.000165339
-0.000199716
-0.000184429
-0.000159929
-0.000194903
-0.000119677
-0.000194767
-8.15705e-05
-0.00018269
-4.83019e-05
-0.000158342
-2.23558e-05
-0.000122598
-5.77295e-06
-7.75395e-05
-2.63792e-05
-7.12767e-06
3.67824e-05
-2.47344e-05
9.47805e-05
-4.96295e-05
0.000137624
-7.92146e-05
0.000166847
-0.000111448
0.000184465
-0.000144778
0.00019262
-0.000178055
0.000193316
-0.000210436
0.000188227
-0.000241288
0.000178601
-0.000270104
0.000165263
-0.000296434
0.000148672
-0.000319837
0.000129016
-0.000339834
0.000106305
-0.000355893
8.0467e-05
-0.000367407
5.1434e-05
-0.000373708
1.92375e-05
-0.000374086
-1.59032e-05
-0.000367839
-5.34688e-05
-0.000354373
-9.25017e-05
-0.00033332
-0.000131543
-0.000304695
-0.000168558
-0.000269068
-0.000200967
-0.000227702
-0.000225794
-0.000182627
-0.000239977
-0.000136581
-0.000240813
-9.27825e-05
-0.000226488
-5.45694e-05
-0.000196556
-2.49627e-05
-0.000152205
-6.3015e-06
-9.62007e-05
-3.26807e-05
-7.65153e-06
4.44339e-05
-2.65895e-05
0.000113718
-5.33587e-05
0.000164393
-8.51377e-05
0.000198626
-0.000119726
0.000219053
-0.000155477
0.000228371
-0.000191203
0.000229042
-0.00022606
0.000223083
-0.000259437
0.000211978
-0.000290861
0.000196687
-0.000319916
0.000177727
-0.000346178
0.000155278
-0.000369172
0.000129299
-0.000388331
9.96258e-05
-0.000402975
6.60784e-05
-0.000412305
2.85677e-05
-0.000415425
-1.27837e-05
-0.000411365
-5.75281e-05
-0.000399224
-0.000104643
-0.000378294
-0.000152473
-0.000348279
-0.000198573
-0.000309537
-0.000239709
-0.000263317
-0.000272014
-0.000211911
-0.000291383
-0.000158628
-0.000294097
-0.000107518
-0.000277599
-6.28407e-05
-0.000241233
-2.84072e-05
-0.000186638
-6.9998e-06
-0.000117608
-3.96805e-05
-8.21032e-06
5.26442e-05
-2.85554e-05
0.000134064
-5.72949e-05
0.000193133
-9.13713e-05
0.000232702
-0.00012842
0.000256101
-0.000166702
0.000266654
-0.000204998
0.000267338
-0.000242476
0.000260562
-0.000278567
0.000248069
-0.00031285
0.000230971
-0.000344965
0.000209841
-0.000374535
0.000184848
-0.000401108
0.000155872
-0.000424108
0.000122626
-0.000442795
8.47659e-05
-0.000456239
4.20111e-05
-0.000463338
-5.68486e-06
-0.00046279
-5.80757e-05
-0.000453288
-0.000114146
-0.000433635
-0.000172125
-0.000403036
-0.000229173
-0.000361436
-0.000281308
-0.000309903
-0.000323547
-0.000250927
-0.000350359
-0.000188491
-0.000356533
-0.000127761
-0.000338329
-7.43417e-05
-0.000294652
-3.32528e-05
-0.000227727
-8.00124e-06
-0.00014286
-4.76817e-05
-8.8246e-06
6.14688e-05
-3.07011e-05
0.00015594
-6.15657e-05
0.000223997
-9.80976e-05
0.000269234
-0.000137754
0.000295758
-0.000178703
0.000307603
-0.000219701
0.000308336
-0.000259945
0.000300805
-0.000298925
0.000287049
-0.000336301
0.000268347
-0.000371799
0.000245339
-0.000405122
0.000218171
-0.000435883
0.000186633
-0.000463537
0.00015028
-0.000487319
0.000108548
-0.000506189
6.08818e-05
-0.000518824
6.94999e-06
-0.000523571
-5.33288e-05
-0.00051859
-0.000119127
-0.000502013
-0.000188702
-0.000472282
-0.000258904
-0.000428621
-0.00032497
-0.000371618
-0.00038055
-0.000303774
-0.000418203
-0.000229789
-0.000430517
-0.000156293
-0.000411825
-9.08376e-05
-0.000360107
-4.03298e-05
-0.000278235
-9.50931e-06
-0.00017368
-5.7191e-05
-9.51174e-06
7.09806e-05
-3.30851e-05
0.000179513
-6.62764e-05
0.000257189
-0.00010546
0.000308418
-0.000147893
0.000338191
-0.000191645
0.000351355
-0.000235456
0.000352147
-0.000278569
0.000343917
-0.000320559
0.00032904
-0.000361198
0.000308986
-0.000400334
0.000284475
-0.000437798
0.000255635
-0.000473323
0.000222157
-0.000506454
0.000183411
-0.000536466
0.00013856
-0.000562274
8.66895e-05
-0.000582326
2.70015e-05
-0.000594653
-4.1001e-05
-0.000596748
-0.000117033
-0.000585871
-0.000199579
-0.000559369
-0.000285405
-0.000515305
-0.000369033
-0.00045331
-0.000442546
-0.000375515
-0.000495998
-0.000287234
-0.000518798
-0.0001969
-0.000502159
-0.000114825
-0.000442183
-5.08523e-05
-0.000342207
-1.18339e-05
-0.000212699
-6.90249e-05
-1.02901e-05
8.12707e-05
-3.57673e-05
0.000204991
-7.15301e-05
0.000292951
-0.00011359
0.000350478
-0.000158972
0.000383572
-0.000205638
0.00039802
-0.000252321
0.000398831
-0.000298329
0.000389925
-0.00034335
0.000374061
-0.0003873
0.000352936
-0.000430195
0.000327369
-0.000472049
0.000297489
-0.000512782
0.00026289
-0.000552116
0.000222745
-0.000589459
0.000175903
-0.000623764
0.000120995
-0.000653374
5.66117e-05
-0.000675967
-1.84084e-05
-0.000688333
-0.000104666
-0.000686665
-0.000201247
-0.000666843
-0.000305227
-0.000625217
-0.000410659
-0.000559785
-0.000507977
-0.000471656
-0.000584128
-0.00036637
-0.000624083
-0.000254354
-0.000614175
-0.000149631
-0.000546906
-6.651e-05
-0.000425328
-1.54235e-05
-0.000263785
-8.44485e-05
-1.11843e-05
9.24551e-05
-3.88237e-05
0.00023263
-7.7451e-05
0.000331579
-0.000122635
0.000395662
-0.000171128
0.000432065
-0.000220772
0.000447665
-0.000270304
0.000448363
-0.000319115
0.000438736
-0.000367034
0.00042198
-0.000414157
0.000400059
-0.000460713
0.000373925
-0.000506956
0.000343733
-0.000553072
0.000309006
-0.000599058
0.000268731
-0.000644575
0.00022142
-0.000688754
0.000165174
-0.000729956
9.78141e-05
-0.000765579
1.72145e-05
-0.000791769
-7.84763e-05
-0.000803491
-0.000189525
-0.000794833
-0.000313885
-0.000759857
-0.000445636
-0.000694107
-0.000573727
-0.000596706
-0.000681528
-0.00047259
-0.000748199
-0.000333929
-0.000752836
-0.000199306
-0.00068153
-8.9501e-05
-0.000535133
-2.08892e-05
-0.000332397
-0.000105338
-1.22315e-05
0.000104687
-4.23641e-05
0.000262762
-8.42129e-05
0.000373428
-0.000132797
0.000444246
-0.000184542
0.000483809
-0.000237159
0.000500282
-0.000289396
0.000500601
-0.000340753
0.000490093
-0.000391226
0.000472453
-0.000441121
0.000449954
-0.000490914
0.000423718
-0.000541154
0.000393973
-0.000592363
0.000360214
-0.000644909
0.000321277
-0.000698837
0.000275347
-0.000753614
0.000219951
-0.000807809
0.000152009
-0.000858653
6.80586e-05
-0.000901871
-3.52581e-05
-0.000931171
-0.000160226
-0.000938703
-0.000306353
-0.000915812
-0.000468526
-0.000854793
-0.000634746
-0.00075159
-0.000784731
-0.000609116
-0.000890674
-0.000440194
-0.000921758
-0.000268156
-0.000853567
-0.000122476
-0.000680814
-2.90279e-05
-0.000425845
-0.000134366
-1.34903e-05
0.000118177
-4.65558e-05
0.000295828
-9.20733e-05
0.000418945
-0.000144368
0.000496541
-0.000199472
0.000538913
-0.000254957
0.000555767
-0.000309601
0.000555245
-0.000363031
0.000543523
-0.000415435
0.000524857
-0.000467345
0.000501864
-0.000519508
0.000475881
-0.000572792
0.000447257
-0.000628097
0.000415519
-0.000686236
0.000379416
-0.00074774
0.000336851
-0.000812565
0.000284777
-0.000879672
0.000219116
-0.000946488
0.000134874
-0.00100839
2.66461e-05
-0.00105827
-0.000110349
-0.00108649
-0.000278129
-0.00108166
-0.000473355
-0.00103235
-0.000684065
-0.000930127
-0.00088695
-0.000773926
-0.00104688
-0.000574893
-0.00112079
-0.000359778
-0.00106868
-0.00016836
-0.000872232
-4.08646e-05
-0.00055334
-0.00017523
-1.50546e-05
0.000133232
-5.16565e-05
0.00033243
-0.000101418
0.000468707
-0.000157774
0.000552897
-0.000216292
0.000597431
-0.000274402
0.000613877
-0.000330939
0.000611782
-0.000385691
0.000598275
-0.000439047
0.000578213
-0.000491771
0.000554587
-0.000544868
0.000528979
-0.000599513
0.000501902
-0.000656977
0.000472983
-0.000718523
0.000440962
-0.000785216
0.000403544
-0.000857596
0.000357157
-0.000935205
0.000296725
-0.00101595
0.000215623
-0.00109538
0.000106073
-0.00116607
-3.9663e-05
-0.00121738
-0.000226814
-0.0012358
-0.000454935
-0.00120636
-0.000713508
-0.00111555
-0.000977757
-0.00095613
-0.0012063
-0.000733933
-0.00134299
-0.000475367
-0.00132725
-0.000229952
-0.00111765
-5.77258e-05
-0.000725566
-0.000232956
-1.70753e-05
0.000150307
-5.80629e-05
0.000373417
-0.000112818
0.000523461
-0.000173624
0.000613703
-0.000235514
0.00065932
-0.000295802
0.000674165
-0.000353432
0.000669412
-0.000408389
0.000653233
-0.000461278
0.000631102
-0.000513073
0.000606382
-0.000564995
0.000580901
-0.000618458
0.000555365
-0.000675028
0.000529553
-0.000736341
0.000502276
-0.000803938
0.00047114
-0.000878952
0.000432171
-0.000961628
0.000379401
-0.00105065
0.00030465
-0.00114238
0.000197801
-0.00122988
4.78356e-05
-0.00130284
-0.000153859
-0.00134705
-0.000410721
-0.00134518
-0.000715375
-0.00127888
-0.00104406
-0.00113307
-0.0013521
-0.000903957
-0.0015721
-0.000611119
-0.00162009
-0.000309005
-0.00141976
-8.1295e-05
-0.000953276
-0.000314251
-1.98001e-05
0.000170107
-6.63886e-05
0.000420006
-0.000127111
0.000584184
-0.000192763
0.000679355
-0.000257795
0.000724353
-0.000319488
0.000735859
-0.000376994
0.000726918
-0.000430557
0.000706796
-0.000481009
0.000681554
-0.000529503
0.000654875
-0.000577399
0.000628797
-0.000626239
0.000604205
-0.000677737
0.000581051
-0.000733736
0.000558275
-0.000796091
0.000533496
-0.00086642
0.0005025
-0.00094569
0.000458671
-0.00103363
0.000392587
-0.00112797
0.00029214
-0.0012237
0.000143571
-0.00131169
-6.58692e-05
-0.00137975
-0.000342659
-0.00141017
-0.000684955
-0.00138135
-0.00107288
-0.00127028
-0.00146317
-0.00105998
-0.00178241
-0.000755009
-0.00192505
-0.000404427
-0.00177034
-0.000113504
-0.0012442
-0.000427755
-2.36482e-05
0.000193755
-7.75913e-05
0.000473949
-0.000145509
0.000652101
-0.000216301
0.000750147
-0.000283874
0.000791926
-0.000345662
0.000797647
-0.000401196
0.000782453
-0.000451086
0.000756686
-0.000496426
0.000726894
-0.000538515
0.000696965
-0.000578771
0.000669052
-0.000618729
0.000644163
-0.000660069
0.000622391
-0.000704623
0.000602829
-0.000754324
0.000583197
-0.000811071
0.000559246
-0.000876462
0.000524062
-0.000951388
0.000467513
-0.00103548
0.00037623
-0.0011265
0.000234594
-0.00121846
2.60884e-05
-0.00130296
-0.000258154
-0.00136484
-0.000623074
-0.00138232
-0.00105541
-0.00132659
-0.00151891
-0.00116657
-0.00194243
-0.000884648
-0.00220698
-0.000509686
-0.00214531
-0.000156037
-0.00159785
-0.000583791
-2.93589e-05
0.000223114
-9.31901e-05
0.00053778
-0.000169744
0.000728655
-0.000245608
0.000826011
-0.000314379
0.000860696
-0.000374015
0.000857283
-0.000424725
0.000833163
-0.00046766
0.000799621
-0.00050425
0.000763484
-0.000535947
0.000728661
-0.000564169
0.000697275
-0.00059034
0.000670334
-0.000615949
0.000647999
-0.000642607
0.000629487
-0.000672088
0.000612678
-0.000706328
0.000593486
-0.000747368
0.000565103
-0.000797213
0.000517358
-0.000857543
0.000436559
-0.000929159
0.00030621
-0.00101185
0.00010878
-0.00110035
-0.000169656
-0.00118607
-0.000537353
-0.00125075
-0.000990724
-0.00126424
-0.00150542
-0.00118446
-0.0020222
-0.000968692
-0.00242275
-0.000610578
-0.00250342
-0.000209222
-0.0019992
-0.000793013
-3.82931e-05
0.000261407
-0.000115627
0.000615114
-0.000202219
0.000815248
-0.00028213
0.000905922
-0.000349295
0.000927861
-0.000402883
0.000910871
-0.000444256
0.000874535
-0.000475383
0.000830748
-0.000498183
0.000786283
-0.000514328
0.000744806
-0.000525257
0.000708204
-0.000532251
0.000677328
-0.000536531
0.000652279
-0.000539368
0.000632324
-0.000542209
0.000615519
-0.000546823
0.0005981
-0.000555465
0.000573744
-0.000571012
0.000532906
-0.000596998
0.000462545
-0.000637409
0.000346622
-0.000696255
0.000167625
-0.000775061
-9.08494e-05
-0.000871624
-0.00044079
-0.00097515
-0.000887198
-0.00106017
-0.0014204
-0.00108075
-0.00200162
-0.000972762
-0.00253073
-0.000685071
-0.00279111
-0.000270206
-0.00241407
-0.00106322
-5.30395e-05
0.000314447
-0.000148816
0.000710891
-0.000245993
0.000912424
-0.000326667
0.000986596
-0.00038658
0.000987774
-0.000427283
0.000951574
-0.000452011
0.000899264
-0.000463971
0.000842708
-0.000465811
0.000788124
-0.000459582
0.000738577
-0.000446842
0.000695464
-0.000428793
0.000659279
-0.000406416
0.000629902
-0.00038063
0.000606538
-0.000352492
0.000587382
-0.000323472
0.000569079
-0.000295791
0.000546064
-0.000272835
0.00050995
-0.000259441
0.000449151
-0.000261991
0.000349171
-0.000288026
0.000193661
-0.000345094
-3.37814e-05
-0.000437652
-0.000348232
-0.000564773
-0.000760077
-0.00071124
-0.00127393
-0.000836957
-0.00187591
-0.000867066
-0.00250062
-0.000705859
-0.00295232
-0.000330724
-0.0027892
-0.00139394
-7.85706e-05
0.000393017
-0.000198721
0.000831041
-0.000303859
0.00101756
-0.000376914
0.00105965
-0.000418405
0.00102926
-0.000434152
0.00096732
-0.000430292
0.000895404
-0.00041182
0.000824235
-0.000382429
0.000758733
-0.000344732
0.000700881
-0.000300531
0.000651263
-0.000251032
0.00060978
-0.000197038
0.000575908
-0.00013916
0.00054866
-7.80727e-05
0.000526294
-1.48734e-05
0.00050588
4.84439e-05
0.000482746
0.000108479
0.000449916
0.000159829
0.000397801
0.000194787
0.000314213
0.000203421
0.000185027
0.000173745
-4.10526e-06
9.58406e-05
-0.000270328
-3.82925e-05
-0.000625944
-0.000227658
-0.00108457
-0.00044802
-0.00165554
-0.000629557
-0.00231909
-0.00064345
-0.00293843
-0.000375169
-0.00305749
-0.00176911
-0.00012424
0.000517257
-0.000272739
0.000979539
-0.0003736
0.00111842
-0.000419279
0.00110533
-0.000420555
0.00103054
-0.000390297
0.000937062
-0.000338798
0.000843905
-0.000273343
0.000758781
-0.000198812
0.000684201
-0.000118347
0.000620416
-3.38959e-05
0.000566812
5.34274e-05
0.000522456
0.000143063
0.000486273
0.000234762
0.000456962
0.000328271
0.000432785
0.000422953
0.000411198
0.000517271
0.000388428
0.000608155
0.000359032
0.000690365
0.00031559
0.000755931
0.000248647
0.000793941
0.000147017
0.00078983
5.34054e-09
0.000730138
-0.000210636
0.000598446
-0.000494252
0.000383492
-0.000869612
8.92602e-05
-0.00136131
-0.000238129
-0.0019917
-0.000465237
-0.00271132
-0.000382569
-0.00314015
-0.00215168
-0.000206578
0.000723835
-0.000370788
0.00114375
-0.000427842
0.00117548
-0.00040182
0.00107931
-0.000322392
0.000951112
-0.000212355
0.000827025
-8.64276e-05
0.000717978
4.64091e-05
0.000625944
0.000180985
0.000549625
0.000314488
0.000486913
0.00044559
0.00043571
0.000573875
0.000394172
0.000699477
0.00036067
0.000822789
0.00033365
0.000944165
0.000311408
0.00106355
0.000291818
0.00117997
0.000272005
0.00129097
0.000248033
0.0013919
0.00021466
0.00147526
0.000165285
0.00152999
9.22821e-05
0.00154214
-1.21379e-05
0.00149384
-0.000162337
0.0013654
-0.000365815
0.00113537
-0.000639581
0.000786662
-0.0010126
0.000331068
-0.0015361
-0.00012361
-0.00225664
-0.000314341
-0.00294942
-0.00246602
-0.0003386
0.00106243
-0.000425107
0.00123026
-0.000334257
0.00108463
-0.000151206
0.000896257
6.8742e-05
0.000731164
0.000297339
0.000598428
0.00052051
0.000494807
0.0007321
0.000414354
0.000930037
0.000351687
0.00111431
0.000302638
0.00128591
0.000264112
0.00144628
0.0002338
0.00159703
0.000209918
0.00173971
0.000190977
0.00187555
0.00017557
0.00200521
0.000162153
0.00212837
0.000148842
0.0022432
0.00013321
0.00234574
0.000112121
0.00242936
8.16599e-05
0.00248394
3.76992e-05
0.00249649
-2.46873e-05
0.00244762
-0.000113468
0.00231586
-0.000234049
0.00207426
-0.000397984
0.00169125
-0.000629594
0.00113801
-0.00098286
0.000465309
-0.00158394
-5.22646e-05
-0.00243185
-0.00251829
-0.000298907
0.00136134
-4.10307e-05
0.000972381
0.000393838
0.000649759
0.000818096
0.000472
0.00120057
0.000348686
0.00153712
0.000261879
0.00183034
0.000201587
0.00208546
0.000159238
0.00230835
0.0001288
0.00250449
0.000106493
0.00267867
8.99316e-05
0.00283495
7.75246e-05
0.00297671
6.81531e-05
0.00310672
6.0973e-05
0.00322702
5.52671e-05
0.00333885
5.03257e-05
0.00344234
4.53454e-05
0.0035362
3.93551e-05
0.00361715
3.11714e-05
0.00367932
1.94896e-05
0.00371388
3.13671e-06
0.00371118
-2.19847e-05
0.00365271
-5.49994e-05
0.00351795
-9.92849e-05
0.00327964
-0.000159678
0.00289881
-0.000248762
0.0023166
-0.000400646
0.00148154
-0.000748888
0.000502179
-0.00145249
-0.00201611
0.00136134
0.00233372
0.00298348
0.00345548
0.00380417
0.00406605
0.00426763
0.00442687
0.00455567
0.00466216
0.0047521
0.00482962
0.00489777
0.00495875
0.00501401
0.00506434
0.00510968
0.00514904
0.00518021
0.0051997
0.00520284
0.00518085
0.00512585
0.00502657
0.00486689
0.00461813
0.00421748
0.00346859
0.00201611
)
;

boundaryField
{
    movingWall
    {
        type            calculated;
        value           uniform 0;
    }
    fixedWalls
    {
        type            calculated;
        value           uniform 0;
    }
    frontAndBack
    {
        type            empty;
        value           nonuniform 0();
    }
}


// ************************************************************************* //
