/*--------------------------------*- C++ -*----------------------------------*\
  =========                 |
  \\      /  F ield         | OpenFOAM: The Open Source CFD Toolbox
   \\    /   O peration     | Website:  https://openfoam.org
    \\  /    A nd           | Version:  7
     \\/     M anipulation  |
\*---------------------------------------------------------------------------*/
FoamFile
{
    version     2.0;
    format      ascii;
    class       volVectorField;
    location    "3.6";
    object      U;
}
// * * * * * * * * * * * * * * * * * * * * * * * * * * * * * * * * * * * * * //

dimensions      [0 1 -1 0 0 0 0];

internalField   nonuniform List<vector> 
900
(
(5.91927e-05 -5.84913e-05 0)
(2.47759e-05 1.3203e-05 0)
(-0.000274633 9.6035e-05 0)
(-0.000768207 0.000154675 0)
(-0.00139515 0.000188746 0)
(-0.00209837 0.000204134 0)
(-0.00283203 0.000207175 0)
(-0.00356345 0.000202602 0)
(-0.00426994 0.000193246 0)
(-0.00493495 0.000180465 0)
(-0.00554499 0.000164637 0)
(-0.00608759 0.000145571 0)
(-0.00655003 0.000122812 0)
(-0.00691887 9.5868e-05 0)
(-0.00718003 6.43742e-05 0)
(-0.00731935 2.8234e-05 0)
(-0.00732354 -1.22561e-05 0)
(-0.00718147 -5.63579e-05 0)
(-0.00688582 -0.000102676 0)
(-0.00643497 -0.000149153 0)
(-0.00583501 -0.000193034 0)
(-0.0051017 -0.000230912 0)
(-0.00426204 -0.000258844 0)
(-0.0033554 -0.000272532 0)
(-0.00243362 -0.000267507 0)
(-0.00156011 -0.000239371 0)
(-0.00080675 -0.000184617 0)
(-0.000245161 -0.000103073 0)
(6.16116e-05 -4.07226e-06 0)
(7.20341e-05 7.08706e-05 0)
(-1.14976e-05 -2.61147e-05 0)
(-0.00036353 0.000361826 0)
(-0.00126933 0.00075922 0)
(-0.00256839 0.00105857 0)
(-0.00414881 0.00124916 0)
(-0.00590089 0.00134657 0)
(-0.00772673 0.00137302 0)
(-0.00954933 0.00134823 0)
(-0.0113103 0.0012862 0)
(-0.0129641 0.00119525 0)
(-0.0144735 0.00107932 0)
(-0.0158046 0.000939385 0)
(-0.016925 0.000774894 0)
(-0.0178025 0.0005849 0)
(-0.0184047 0.000369017 0)
(-0.0187008 0.000128199 0)
(-0.018663 -0.000134626 0)
(-0.0182697 -0.000413715 0)
(-0.0175083 -0.000700226 0)
(-0.0163804 -0.0009818 0)
(-0.0149048 -0.00124251 0)
(-0.0131219 -0.00146325 0)
(-0.011097 -0.00162258 0)
(-0.0089213 -0.0016982 0)
(-0.00671123 -0.00166885 0)
(-0.00460449 -0.00151718 0)
(-0.00275046 -0.00123473 0)
(-0.00128935 -0.000831158 0)
(-0.000332688 -0.000351613 0)
(3.83942e-06 6.26009e-05 0)
(-9.84991e-05 0.00027581 0)
(-0.00079058 0.00127473 0)
(-0.00227511 0.00220841 0)
(-0.00427267 0.00291995 0)
(-0.00663154 0.00338561 0)
(-0.00921174 0.00363109 0)
(-0.0118841 0.00369917 0)
(-0.0145432 0.00363149 0)
(-0.0171062 0.00346026 0)
(-0.0195067 0.00320651 0)
(-0.0216893 0.00288172 0)
(-0.0236042 0.00249053 0)
(-0.0252049 0.00203381 0)
(-0.0264455 0.00151132 0)
(-0.0272819 0.000924021 0)
(-0.0276724 0.000276084 0)
(-0.0275804 -0.000423437 0)
(-0.0269783 -0.00115885 0)
(-0.0258521 -0.00190691 0)
(-0.0242066 -0.00263591 0)
(-0.022071 -0.00330571 0)
(-0.0195037 -0.00386885 0)
(-0.0165966 -0.00427299 0)
(-0.0134759 -0.00446499 0)
(-0.0102999 -0.00439656 0)
(-0.00725325 -0.00403228 0)
(-0.00453212 -0.00336125 0)
(-0.00231629 -0.00241403 0)
(-0.000756909 -0.00128749 0)
(-7.94732e-05 -0.000217019 0)
(-0.000168432 0.000798755 0)
(-0.00115874 0.00264066 0)
(-0.00315884 0.0042419 0)
(-0.00576085 0.0054442 0)
(-0.00877096 0.0062294 0)
(-0.0120247 0.00664108 0)
(-0.0153714 0.00674638 0)
(-0.0186875 0.00661148 0)
(-0.0218745 0.00628911 0)
(-0.0248521 0.00581517 0)
(-0.0275528 0.00521044 0)
(-0.0299158 0.00448467 0)
(-0.0318843 0.00364126 0)
(-0.0334032 0.00268167 0)
(-0.0344194 0.00160931 0)
(-0.0348831 0.000432982 0)
(-0.0347508 -0.000830098 0)
(-0.03399 -0.00215174 0)
(-0.0325841 -0.0034905 0)
(-0.0305393 -0.00479051 0)
(-0.0278911 -0.00598158 0)
(-0.0247103 -0.00698136 0)
(-0.0211079 -0.00769991 0)
(-0.0172357 -0.00804726 0)
(-0.0132834 -0.00794381 0)
(-0.00947059 -0.00733405 0)
(-0.00603001 -0.00620437 0)
(-0.00317508 -0.00460507 0)
(-0.00109906 -0.00267682 0)
(-0.000140037 -0.000709186 0)
(-0.000220105 0.00150311 0)
(-0.00145653 0.00439797 0)
(-0.00389787 0.00678111 0)
(-0.00701701 0.0085323 0)
(-0.0105777 0.00966171 0)
(-0.0143921 0.0102426 0)
(-0.0182923 0.0103724 0)
(-0.022142 0.0101448 0)
(-0.0258329 0.00963483 0)
(-0.0292767 0.00889438 0)
(-0.0323979 0.00795444 0)
(-0.0351289 0.00683048 0)
(-0.0374055 0.00552883 0)
(-0.0391656 0.00405297 0)
(-0.0403485 0.00240907 0)
(-0.0408969 0.000611034 0)
(-0.0407595 -0.00131499 0)
(-0.0398968 -0.00332659 0)
(-0.0382867 -0.00536162 0)
(-0.0359326 -0.00733633 0)
(-0.0328717 -0.00914563 0)
(-0.0291824 -0.0106664 0)
(-0.0249902 -0.0117647 0)
(-0.020469 -0.012308 0)
(-0.0158377 -0.0121805 0)
(-0.0113501 -0.0113037 0)
(-0.00727605 -0.00965906 0)
(-0.00386547 -0.0073128 0)
(-0.00135421 -0.00443899 0)
(-0.000177035 -0.00135871 0)
(-0.000257871 0.00235114 0)
(-0.00169481 0.00648523 0)
(-0.00450997 0.00975752 0)
(-0.00807301 0.0121111 0)
(-0.0121075 0.0136044 0)
(-0.0164027 0.0143535 0)
(-0.0207753 0.0144935 0)
(-0.0250796 0.0141498 0)
(-0.0292012 0.013422 0)
(-0.0330471 0.012379 0)
(-0.0365379 0.0110622 0)
(-0.0396017 0.00949262 0)
(-0.0421692 0.00767921 0)
(-0.0441723 0.00562674 0)
(-0.0455428 0.00334335 0)
(-0.0462145 0.000847351 0)
(-0.046126 -0.00182649 0)
(-0.0452266 -0.00462102 0)
(-0.0434838 -0.00745171 0)
(-0.0408926 -0.0102036 0)
(-0.0374861 -0.0127314 0)
(-0.0333457 -0.0148643 0)
(-0.0286087 -0.0164163 0)
(-0.0234715 -0.0172036 0)
(-0.0181855 -0.0170674 0)
(-0.0130452 -0.015901 0)
(-0.00836577 -0.0136782 0)
(-0.0044401 -0.0104796 0)
(-0.00154686 -0.00651022 0)
(-0.000197356 -0.00212176 0)
(-0.00028683 0.00331344 0)
(-0.00189138 0.0088488 0)
(-0.00502933 0.0131091 0)
(-0.00898247 0.0161162 0)
(-0.0134376 0.0179927 0)
(-0.0181618 0.0189095 0)
(-0.0229578 0.019048 0)
(-0.0276723 0.0185702 0)
(-0.0321875 0.0176026 0)
(-0.0364085 0.0162321 0)
(-0.0402545 0.0145107 0)
(-0.0436512 0.0124642 0)
(-0.046526 0.0101027 0)
(-0.0488051 0.00743051 0)
(-0.0504122 0.0044558 0)
(-0.0512699 0.00119915 0)
(-0.0513029 -0.00229777 0)
(-0.0504442 -0.005964 0)
(-0.0486437 -0.00969178 0)
(-0.0458807 -0.0133318 0)
(-0.0421768 -0.0166926 0)
(-0.0376106 -0.0195464 0)
(-0.032329 -0.0216438 0)
(-0.0265529 -0.0227373 0)
(-0.0205738 -0.0226141 0)
(-0.0147389 -0.0211318 0)
(-0.00942195 -0.0182543 0)
(-0.00497047 -0.0140797 0)
(-0.00170836 -0.00885213 0)
(-0.00020815 -0.00296982 0)
(-0.000311193 0.00437163 0)
(-0.00206389 0.0114525 0)
(-0.00549311 0.0167936 0)
(-0.00980365 0.0205047 0)
(-0.0146485 0.0227856 0)
(-0.0197741 0.0238732 0)
(-0.0249701 0.0240033 0)
(-0.0300775 0.0233798 0)
(-0.0349766 0.0221593 0)
(-0.0395731 0.0204478 0)
(-0.0437869 0.0183075 0)
(-0.0475436 0.0157678 0)
(-0.0507683 0.0128376 0)
(-0.0533818 0.00951827 0)
(-0.0552988 0.00581424 0)
(-0.0564284 0.00174473 0)
(-0.0566769 -0.00264517 0)
(-0.0559543 -0.00727335 0)
(-0.0541846 -0.0120092 0)
(-0.0513212 -0.0166664 0)
(-0.0473643 -0.0210003 0)
(-0.0423811 -0.0247142 0)
(-0.0365237 -0.0274792 0)
(-0.0300397 -0.0289662 0)
(-0.0232705 -0.0288907 0)
(-0.0166331 -0.0270636 0)
(-0.0105808 -0.0234371 0)
(-0.00553348 -0.018136 0)
(-0.00186867 -0.0114625 0)
(-0.00021459 -0.00389178 0)
(-0.000333981 0.00551689 0)
(-0.0022271 0.014278 0)
(-0.00593464 0.0207891 0)
(-0.0105897 0.0252557 0)
(-0.0158134 0.0279649 0)
(-0.0213325 0.0292303 0)
(-0.026925 0.0293502 0)
(-0.0324272 0.0285766 0)
(-0.03772 0.0270991 0)
(-0.0427118 0.0250443 0)
(-0.0473253 0.022484 0)
(-0.0514882 0.0194494 0)
(-0.0551249 0.0159459 0)
(-0.0581521 0.0119674 0)
(-0.060475 0.00750995 0)
(-0.0619868 0.00258579 0)
(-0.0625713 -0.00276241 0)
(-0.0621079 -0.00844648 0)
(-0.0604843 -0.0143155 0)
(-0.0576151 -0.0201446 0)
(-0.0534644 -0.0256284 0)
(-0.0480746 -0.0303869 0)
(-0.0415937 -0.0339893 0)
(-0.034295 -0.0359981 0)
(-0.0265807 -0.0360313 0)
(-0.0189603 -0.0338343 0)
(-0.0119971 -0.0293443 0)
(-0.00621261 -0.0227282 0)
(-0.00205658 -0.0143784 0)
(-0.000220063 -0.00489202 0)
(-0.000357258 0.00674769 0)
(-0.00239239 0.0173214 0)
(-0.00638101 0.0250919 0)
(-0.0113845 0.0303665 0)
(-0.0169924 0.0335303 0)
(-0.0229123 0.0349836 0)
(-0.0289116 0.0350964 0)
(-0.0348238 0.0341744 0)
(-0.0405322 0.0324445 0)
(-0.0459504 0.0300548 0)
(-0.0510072 0.0270867 0)
(-0.0556349 0.0235714 0)
(-0.0597602 0.0195071 0)
(-0.0632976 0.0148755 0)
(-0.0661436 0.00965789 0)
(-0.068175 0.00385153 0)
(-0.0692493 -0.00251197 0)
(-0.0692081 -0.00934691 0)
(-0.0678903 -0.0164883 0)
(-0.065155 -0.0236741 0)
(-0.0609097 -0.0305319 0)
(-0.0551498 -0.0365814 0)
(-0.0480009 -0.0412612 0)
(-0.0397542 -0.0439868 0)
(-0.030881 -0.0442378 0)
(-0.022012 -0.041663 0)
(-0.013865 -0.0361755 0)
(-0.00711027 -0.0280051 0)
(-0.00230483 -0.0176819 0)
(-0.000227298 -0.00598972 0)
(-0.000382405 0.00806783 0)
(-0.00256829 0.020591 0)
(-0.0068532 0.0297125 0)
(-0.0122223 0.035849 0)
(-0.0182319 0.0394947 0)
(-0.0245703 0.0411479 0)
(-0.0309951 0.0412595 0)
(-0.0373388 0.0401963 0)
(-0.0434899 0.0382259 0)
(-0.0493703 0.0355205 0)
(-0.0549183 0.0321708 0)
(-0.0600752 0.0282062 0)
(-0.0647741 0.023614 0)
(-0.0689311 0.0183584 0)
(-0.0724378 0.0123977 0)
(-0.0751557 0.00570365 0)
(-0.0769149 -0.00171542 0)
(-0.0775123 -0.00978809 0)
(-0.0767252 -0.018349 0)
(-0.0743364 -0.0271061 0)
(-0.0701679 -0.0356178 0)
(-0.0641343 -0.0432861 0)
(-0.0563057 -0.0493835 0)
(-0.0469693 -0.0531247 0)
(-0.0366669 -0.0537877 0)
(-0.0261829 -0.05087 0)
(-0.0164521 -0.0442375 0)
(-0.00836834 -0.034207 0)
(-0.00265848 -0.0215138 0)
(-0.000239857 -0.00722216 0)
(-0.000410386 0.00948503 0)
(-0.00276127 0.0241037 0)
(-0.00736747 0.0346723 0)
(-0.0131292 0.0417258 0)
(-0.0195663 0.0458802 0)
(-0.0263467 0.0477448 0)
(-0.0332188 0.0478621 0)
(-0.0400164 0.0466677 0)
(-0.0466358 0.0444754 0)
(-0.0530114 0.0414835 0)
(-0.0590957 0.037793 0)
(-0.0648443 0.03343 0)
(-0.0702031 0.0283678 0)
(-0.0750967 0.0225468 0)
(-0.0794183 0.0158935 0)
(-0.0830194 0.00834155 0)
(-0.0857033 -0.00014084 0)
(-0.0872208 -0.00951474 0)
(-0.0872756 -0.0196369 0)
(-0.0855486 -0.0302025 0)
(-0.0817394 -0.0407072 0)
(-0.0756322 -0.0504233 0)
(-0.0671878 -0.0584164 0)
(-0.0566445 -0.0636282 0)
(-0.0445982 -0.0650394 0)
(-0.0320182 -0.0619023 0)
(-0.0201398 -0.0539825 0)
(-0.0101945 -0.0417036 0)
(-0.00318544 -0.0260998 0)
(-0.00026386 -0.00865343 0)
(-0.000441987 0.01101 0)
(-0.00297682 0.027884 0)
(-0.00793748 0.0400015 0)
(-0.0141265 0.048027 0)
(-0.021022 0.0527139 0)
(-0.0282697 0.0547979 0)
(-0.0356093 0.0549256 0)
(-0.0428777 0.0536106 0)
(-0.0499832 0.0512192 0)
(-0.0568768 0.0479794 0)
(-0.063531 0.0440036 0)
(-0.0699229 0.0393148 0)
(-0.0760194 0.0338697 0)
(-0.0817637 0.0275799 0)
(-0.0870612 0.0203307 0)
(-0.091764 0.0120034 0)
(-0.0956551 0.00250531 0)
(-0.0984423 -0.00818817 0)
(-0.0997483 -0.0199851 0)
(-0.0991256 -0.0326005 0)
(-0.0961062 -0.0454912 0)
(-0.0902789 -0.0577998 0)
(-0.0814149 -0.0683458 0)
(-0.0696255 -0.0757064 0)
(-0.055513 -0.0784264 0)
(-0.0402464 -0.0753576 0)
(-0.0254606 -0.0660545 0)
(-0.0128894 -0.0510463 0)
(-0.00398792 -0.0317902 0)
(-0.000309765 -0.0103891 0)
(-0.000478089 0.0126564 0)
(-0.00322076 0.0319627 0)
(-0.00857707 0.0457372 0)
(-0.0152345 0.0547879 0)
(-0.0226222 0.0600249 0)
(-0.0303608 0.0623287 0)
(-0.0381815 0.0624654 0)
(-0.045927 0.0610376 0)
(-0.053521 0.058471 0)
(-0.0609368 0.0550284 0)
(-0.0681731 0.0508368 0)
(-0.0752366 0.0459169 0)
(-0.0821256 0.0402088 0)
(-0.0888145 0.0335915 0)
(-0.0952361 0.0259011 0)
(-0.101259 0.0169511 0)
(-0.106664 0.00656236 0)
(-0.111124 -0.0053909 0)
(-0.114176 -0.0189108 0)
(-0.115228 -0.0337885 0)
(-0.113596 -0.0494897 0)
(-0.108597 -0.0650508 0)
(-0.0997065 -0.0790178 0)
(-0.0867909 -0.0895008 0)
(-0.0703613 -0.0944206 0)
(-0.0517591 -0.0919867 0)
(-0.0331101 -0.0813324 0)
(-0.0168672 -0.0630311 0)
(-0.00521279 -0.0391121 0)
(-0.000394014 -0.0125971 0)
(-0.000519966 0.0144411 0)
(-0.00350073 0.0363781 0)
(-0.00930347 0.0519239 0)
(-0.0164772 0.0620479 0)
(-0.0243922 0.0678415 0)
(-0.0326406 0.0703528 0)
(-0.0409452 0.0704857 0)
(-0.049157 0.0689446 0)
(-0.0572196 0.0662235 0)
(-0.0651333 0.0626259 0)
(-0.07293 0.0582979 0)
(-0.0806541 0.0532618 0)
(-0.0883465 0.0474429 0)
(-0.0960277 0.0406876 0)
(-0.103676 0.0327765 0)
(-0.111199 0.0234408 0)
(-0.118398 0.0123874 0)
(-0.124928 -0.000652214 0)
(-0.130256 -0.015837 0)
(-0.133636 -0.0331133 0)
(-0.134132 -0.0520358 0)
(-0.130712 -0.0715936 0)
(-0.122439 -0.0900617 0)
(-0.108781 -0.104987 0)
(-0.0899959 -0.113438 0)
(-0.0674878 -0.112639 0)
(-0.0439055 -0.100937 0)
(-0.022658 -0.078753 0)
(-0.00705935 -0.0488293 0)
(-0.000540705 -0.0155329 0)
(-0.000569703 0.0163861 0)
(-0.00382814 0.0411784 0)
(-0.0101412 0.0586152 0)
(-0.0178875 0.0698507 0)
(-0.0263658 0.0761893 0)
(-0.0351352 0.078876 0)
(-0.0439105 0.078974 0)
(-0.0525544 0.0773044 0)
(-0.0610343 0.0744395 0)
(-0.0693825 0.0707302 0)
(-0.0776689 0.0663478 0)
(-0.0859831 0.0613226 0)
(-0.0944186 0.0555707 0)
(-0.103056 0.0489091 0)
(-0.111937 0.0410623 0)
(-0.121034 0.0316679 0)
(-0.130197 0.0202937 0)
(-0.139092 0.00648018 0)
(-0.147144 -0.0101703 0)
(-0.153471 -0.0298494 0)
(-0.156875 -0.0523176 0)
(-0.155927 -0.0766214 0)
(-0.14918 -0.100818 0)
(-0.135535 -0.121834 0)
(-0.114774 -0.135663 0)
(-0.0881286 -0.138105 0)
(-0.0586535 -0.12615 0)
(-0.0308809 -0.0996212 0)
(-0.00978567 -0.061998 0)
(-0.000784797 -0.0195698 0)
(-0.000630787 0.0185207 0)
(-0.00422076 0.0464263 0)
(-0.0111273 0.0658769 0)
(-0.0195139 0.0782447 0)
(-0.0285915 0.0850899 0)
(-0.037882 0.0878904 0)
(-0.0470935 0.0878952 0)
(-0.0561041 0.0860587 0)
(-0.0649091 0.083041 0)
(-0.0735759 0.0792483 0)
(-0.0822157 0.0748841 0)
(-0.0909668 0.0699942 0)
(-0.0999806 0.0644947 0)
(-0.109406 0.0581817 0)
(-0.119365 0.0507276 0)
(-0.129914 0.0416722 0)
(-0.140981 0.0304232 0)
(-0.152288 0.0162842 0)
(-0.163255 -0.00145931 0)
(-0.172913 -0.0233564 0)
(-0.179846 -0.0495095 0)
(-0.182251 -0.0791724 0)
(-0.178131 -0.110307 0)
(-0.165695 -0.139252 0)
(-0.143986 -0.160772 0)
(-0.113689 -0.168801 0)
(-0.0778909 -0.158185 0)
(-0.0421698 -0.127282 0)
(-0.013717 -0.0800012 0)
(-0.00118036 -0.0252333 0)
(-0.000709094 0.0208868 0)
(-0.00470664 0.0522065 0)
(-0.0123178 0.0737928 0)
(-0.0214276 0.0872851 0)
(-0.0311396 0.0945578 0)
(-0.0409346 0.097369 0)
(-0.0505183 0.0971842 0)
(-0.0597893 0.095108 0)
(-0.0687748 0.091898 0)
(-0.0775785 0.0880212 0)
(-0.0863523 0.0837198 0)
(-0.0952806 0.0790637 0)
(-0.104571 0.07398 0)
(-0.11444 0.068256 0)
(-0.125093 0.0615224 0)
(-0.13668 0.0532249 0)
(-0.149234 0.0426003 0)
(-0.16257 0.0286836 0)
(-0.176171 0.0103839 0)
(-0.189059 -0.0133166 0)
(-0.199719 -0.0429991 0)
(-0.206091 -0.0782976 0)
(-0.205708 -0.117279 0)
(-0.196065 -0.155866 0)
(-0.175245 -0.187624 0)
(-0.142901 -0.204309 0)
(-0.101467 -0.197736 0)
(-0.0570135 -0.163381 0)
(-0.0192537 -0.104534 0)
(-0.00181839 -0.0332476 0)
(-0.000814673 0.0235457 0)
(-0.00533028 0.0586371 0)
(-0.0137976 0.0824718 0)
(-0.0237327 0.0970342 0)
(-0.0341083 0.104596 0)
(-0.0443655 0.107258 0)
(-0.0542153 0.106735 0)
(-0.063586 0.104301 0)
(-0.0725407 0.100815 0)
(-0.0812191 0.0968077 0)
(-0.0898078 0.0925638 0)
(-0.0985281 0.0881841 0)
(-0.107631 0.0836169 0)
(-0.117388 0.078655 0)
(-0.128075 0.0729028 0)
(-0.139933 0.0657255 0)
(-0.153102 0.0561961 0)
(-0.167528 0.043074 0)
(-0.18283 0.0248639 0)
(-0.198146 1.76216e-05 0)
(-0.212033 -0.0326521 0)
(-0.222413 -0.0733061 0)
(-0.226587 -0.120385 0)
(-0.221468 -0.169729 0)
(-0.204106 -0.21402 0)
(-0.17266 -0.242867 0)
(-0.127981 -0.244318 0)
(-0.0754462 -0.209066 0)
(-0.0268563 -0.137482 0)
(-0.00285684 -0.0445952 0)
(-0.000965247 0.0265904 0)
(-0.00616308 0.0658857 0)
(-0.015695 0.0920564 0)
(-0.0265773 0.10756 0)
(-0.0376291 0.115188 0)
(-0.0482614 0.117461 0)
(-0.0582086 0.116386 0)
(-0.0674426 0.113416 0)
(-0.0760695 0.109514 0)
(-0.0842627 0.105269 0)
(-0.0922346 0.101006 0)
(-0.100228 0.096858 0)
(-0.108514 0.0928023 0)
(-0.117394 0.0886491 0)
(-0.127186 0.083995 0)
(-0.138193 0.0781485 0)
(-0.150657 0.0700472 0)
(-0.164669 0.0582055 0)
(-0.180056 0.0407502 0)
(-0.196229 0.0156159 0)
(-0.21201 -0.0190254 0)
(-0.225614 -0.0640229 0)
(-0.234502 -0.118445 0)
(-0.235334 -0.178527 0)
(-0.224291 -0.236713 0)
(-0.197812 -0.281013 0)
(-0.154245 -0.295523 0)
(-0.0965494 -0.264188 0)
(-0.0369499 -0.180582 0)
(-0.00455851 -0.0605754 0)
(-0.00119356 0.0301669 0)
(-0.00732242 0.0741937 0)
(-0.0182032 0.10273 0)
(-0.0301676 0.118925 0)
(-0.0418648 0.126272 0)
(-0.0527058 0.127815 0)
(-0.0624819 0.125893 0)
(-0.0712328 0.122141 0)
(-0.0791189 0.117616 0)
(-0.0863475 0.112954 0)
(-0.0931469 0.108509 0)
(-0.0997626 0.10444 0)
(-0.106462 0.100755 0)
(-0.11354 0.0972863 0)
(-0.121315 0.0936422 0)
(-0.130119 0.0891061 0)
(-0.140264 0.0825314 0)
(-0.151985 0.07226 0)
(-0.165361 0.0561339 0)
(-0.180189 0.0316769 0)
(-0.195796 -0.00349937 0)
(-0.210999 -0.0510724 0)
(-0.223813 -0.110886 0)
(-0.231165 -0.180116 0)
(-0.228832 -0.251876 0)
(-0.211725 -0.313719 0)
(-0.175166 -0.346526 0)
(-0.117908 -0.326285 0)
(-0.0496806 -0.234734 0)
(-0.00731916 -0.0828143 0)
(-0.0015634 0.034513 0)
(-0.00900707 0.0839109 0)
(-0.0216151 0.11472 0)
(-0.0347805 0.131163 0)
(-0.0469932 0.137706 0)
(-0.057731 0.138043 0)
(-0.0669021 0.134881 0)
(-0.0746538 0.130028 0)
(-0.0812208 0.124608 0)
(-0.0868502 0.11928 0)
(-0.0917817 0.114407 0)
(-0.0962504 0.110161 0)
(-0.100497 0.106568 0)
(-0.104779 0.103488 0)
(-0.10938 0.10055 0)
(-0.114616 0.0970487 0)
(-0.120831 0.0918212 0)
(-0.128379 0.0831427 0)
(-0.137588 0.0687143 0)
(-0.148694 0.0458137 0)
(-0.161745 0.0116515 0)
(-0.176314 -0.0360817 0)
(-0.19128 -0.098232 0)
(-0.204456 -0.17333 0)
(-0.211922 -0.256127 0)
(-0.207761 -0.335298 0)
(-0.184469 -0.390369 0)
(-0.135421 -0.38984 0)
(-0.0644925 -0.298958 0)
(-0.01164 -0.113143 0)
(-0.00220497 0.0400323 0)
(-0.0115645 0.0955427 0)
(-0.0263723 0.12828 0)
(-0.0407638 0.144213 0)
(-0.0531471 0.149179 0)
(-0.0632015 0.147669 0)
(-0.0710523 0.142769 0)
(-0.0770157 0.136426 0)
(-0.0814346 0.129789 0)
(-0.0846128 0.1235 0)
(-0.0868083 0.117903 0)
(-0.0882447 0.113159 0)
(-0.0891268 0.109295 0)
(-0.0896593 0.106189 0)
(-0.0900662 0.1035 0)
(-0.0906156 0.100566 0)
(-0.091646 0.0962771 0)
(-0.0935913 0.0889602 0)
(-0.0969927 0.0763449 0)
(-0.102489 0.0556685 0)
(-0.110761 0.0239773 0)
(-0.122296 -0.0213812 0)
(-0.137092 -0.0822495 0)
(-0.154171 -0.158663 0)
(-0.170721 -0.247749 0)
(-0.181138 -0.340976 0)
(-0.176179 -0.419296 0)
(-0.143824 -0.446495 0)
(-0.0796142 -0.369284 0)
(-0.0179527 -0.153229 0)
(-0.00339146 0.0474401 0)
(-0.0156144 0.109802 0)
(-0.0331209 0.143615 0)
(-0.0484768 0.157782 0)
(-0.0602374 0.160054 0)
(-0.068532 0.155859 0)
(-0.0738615 0.148625 0)
(-0.0768009 0.140361 0)
(-0.0778522 0.132173 0)
(-0.0774076 0.124636 0)
(-0.0757637 0.118037 0)
(-0.0731459 0.112494 0)
(-0.0697309 0.108013 0)
(-0.0656721 0.104472 0)
(-0.0611283 0.101559 0)
(-0.0563041 0.0986785 0)
(-0.051502 0.0948299 0)
(-0.047184 0.0884999 0)
(-0.0440269 0.0776059 0)
(-0.0429577 0.0595612 0)
(-0.045146 0.0314932 0)
(-0.0518903 -0.0093973 0)
(-0.0642383 -0.0655525 0)
(-0.0826046 -0.138333 0)
(-0.105892 -0.227444 0)
(-0.130082 -0.328405 0)
(-0.14606 -0.426718 0)
(-0.137751 -0.486439 0)
(-0.0917313 -0.438166 0)
(-0.0261905 -0.203841 0)
(-0.00569548 0.0580625 0)
(-0.0222532 0.127636 0)
(-0.042699 0.160667 0)
(-0.0580059 0.171032 0)
(-0.067425 0.169057 0)
(-0.071966 0.161142 0)
(-0.0727405 0.150925 0)
(-0.0707031 0.140337 0)
(-0.0665811 0.130342 0)
(-0.0608933 0.12138 0)
(-0.0539987 0.113631 0)
(-0.0461406 0.107137 0)
(-0.0374799 0.101851 0)
(-0.0281275 0.0976309 0)
(-0.0181826 0.0941836 0)
(-0.0077823 0.0909866 0)
(0.00283058 0.0871844 0)
(0.0132192 0.0814901 0)
(0.0226656 0.0721256 0)
(0.0301012 0.0568423 0)
(0.0340708 0.0330591 0)
(0.0327082 -0.00190442 0)
(0.0242152 -0.0506717 0)
(0.00690441 -0.115476 0)
(-0.0200589 -0.19805 0)
(-0.0552246 -0.298285 0)
(-0.0918719 -0.408808 0)
(-0.112415 -0.500269 0)
(-0.0960653 -0.494838 0)
(-0.035113 -0.263858 0)
(-0.0102758 0.0744864 0)
(-0.0333037 0.150101 0)
(-0.0557085 0.17856 0)
(-0.0680582 0.181952 0)
(-0.0715158 0.173695 0)
(-0.0686502 0.160933 0)
(-0.0614898 0.147187 0)
(-0.051494 0.134082 0)
(-0.0396574 0.122286 0)
(-0.0266277 0.112011 0)
(-0.0128126 0.103269 0)
(0.00154453 0.0959839 0)
(0.0163146 0.0900259 0)
(0.0314384 0.0852079 0)
(0.0468823 0.0812421 0)
(0.0625832 0.0776749 0)
(0.0783745 0.0738051 0)
(0.093891 0.0686004 0)
(0.108463 0.060643 0)
(0.121019 0.0481212 0)
(0.13002 0.0288985 0)
(0.133306 0.000629451 0)
(0.128634 -0.0390102 0)
(0.113438 -0.0926466 0)
(0.0852784 -0.163088 0)
(0.0427151 -0.25367 0)
(-0.0118987 -0.365032 0)
(-0.0629431 -0.480517 0)
(-0.0866794 -0.526641 0)
(-0.0416929 -0.329833 0)
(-0.0192247 0.101495 0)
(-0.0510542 0.177187 0)
(-0.0700262 0.194126 0)
(-0.0718628 0.186014 0)
(-0.0620577 0.169232 0)
(-0.0455286 0.150865 0)
(-0.0253888 0.133636 0)
(-0.00353084 0.118461 0)
(0.0189259 0.105491 0)
(0.0413608 0.0945899 0)
(0.0634585 0.085537 0)
(0.0850896 0.0780989 0)
(0.106242 0.0720466 0)
(0.126968 0.0671387 0)
(0.14734 0.063086 0)
(0.167391 0.0594995 0)
(0.18705 0.055829 0)
(0.206052 0.0512992 0)
(0.223829 0.0448618 0)
(0.239405 0.0351756 0)
(0.25128 0.0206395 0)
(0.257335 -0.000566222 0)
(0.255084 -0.0302416 0)
(0.241343 -0.0707519 0)
(0.21269 -0.12507 0)
(0.16556 -0.198205 0)
(0.0974008 -0.297439 0)
(0.0178352 -0.422932 0)
(-0.056122 -0.521202 0)
(-0.0404929 -0.394928 0)
(-0.0343539 0.144964 0)
(-0.0726935 0.201551 0)
(-0.0683384 0.196059 0)
(-0.0429352 0.172024 0)
(-0.0078233 0.146248 0)
(0.0303873 0.123587 0)
(0.0684313 0.104823 0)
(0.104845 0.0895992 0)
(0.139038 0.0773306 0)
(0.170889 0.0674674 0)
(0.200511 0.0595501 0)
(0.228125 0.0532082 0)
(0.253992 0.0481379 0)
(0.278383 0.0440709 0)
(0.301535 0.0407389 0)
(0.323614 0.0378325 0)
(0.34466 0.0349584 0)
(0.364508 0.0315967 0)
(0.382701 0.0270675 0)
(0.398396 0.0205093 0)
(0.410231 0.0108813 0)
(0.416267 -0.00301938 0)
(0.414 -0.0223813 0)
(0.400021 -0.0488152 0)
(0.370274 -0.0846821 0)
(0.320219 -0.134731 0)
(0.243305 -0.209181 0)
(0.142003 -0.3255 0)
(0.00912127 -0.465587 0)
(-0.0187953 -0.440226 0)
(-0.0373775 0.236313 0)
(-0.0466826 0.204657 0)
(0.02957 0.154326 0)
(0.102082 0.118303 0)
(0.169504 0.0913022 0)
(0.229625 0.0712843 0)
(0.28209 0.0566866 0)
(0.327638 0.0459688 0)
(0.36729 0.0379694 0)
(0.402034 0.031916 0)
(0.432738 0.0272945 0)
(0.460138 0.0237466 0)
(0.484854 0.0210095 0)
(0.507397 0.0188763 0)
(0.528167 0.0171642 0)
(0.547441 0.0156858 0)
(0.565338 0.014224 0)
(0.581773 0.0125103 0)
(0.59638 0.0102099 0)
(0.608444 0.00692282 0)
(0.616734 0.00217763 0)
(0.619746 -0.00447825 0)
(0.615204 -0.0137595 0)
(0.600022 -0.0264511 0)
(0.569963 -0.0436692 0)
(0.520703 -0.0684562 0)
(0.442118 -0.108445 0)
(0.332878 -0.189861 0)
(0.142458 -0.33714 0)
(0.0602029 -0.413599 0)
(0.231281 0.158532 0)
(0.291684 0.117279 0)
(0.441761 0.076152 0)
(0.541156 0.0508324 0)
(0.608594 0.0344455 0)
(0.658255 0.0235929 0)
(0.696241 0.016494 0)
(0.7259 0.0118587 0)
(0.749576 0.00878895 0)
(0.768932 0.00671914 0)
(0.785115 0.005303 0)
(0.798933 0.0043233 0)
(0.810967 0.00363852 0)
(0.821645 0.0031514 0)
(0.831267 0.00278843 0)
(0.840016 0.00248527 0)
(0.847954 0.00217587 0)
(0.855 0.00178537 0)
(0.860893 0.00122398 0)
(0.865172 0.000399186 0)
(0.867124 -0.000797395 0)
(0.865751 -0.00235932 0)
(0.859556 -0.00455935 0)
(0.847066 -0.0076086 0)
(0.82547 -0.0116642 0)
(0.7927 -0.017638 0)
(0.736933 -0.0275377 0)
(0.658633 -0.0497549 0)
(0.455348 -0.110684 0)
(0.31346 -0.177875 0)
)
;

boundaryField
{
    movingWall
    {
        type            fixedValue;
        value           uniform (1 0 0);
    }
    fixedWalls
    {
        type            noSlip;
    }
    frontAndBack
    {
        type            empty;
    }
}


// ************************************************************************* //
