/*--------------------------------*- C++ -*----------------------------------*\
  =========                 |
  \\      /  F ield         | OpenFOAM: The Open Source CFD Toolbox
   \\    /   O peration     | Website:  https://openfoam.org
    \\  /    A nd           | Version:  7
     \\/     M anipulation  |
\*---------------------------------------------------------------------------*/
FoamFile
{
    version     2.0;
    format      ascii;
    class       volScalarField;
    location    "4.6";
    object      p;
}
// * * * * * * * * * * * * * * * * * * * * * * * * * * * * * * * * * * * * * //

dimensions      [0 2 -2 0 0 0 0];

internalField   nonuniform List<scalar> 
900
(
1.02573e-06
-0.000115967
-0.000244934
-0.000348085
-0.00039746
-0.000378505
-0.000286335
-0.000120804
0.000116339
0.000422677
0.000795446
0.00123129
0.00172571
0.00227242
0.00286262
0.00348453
0.00412299
0.00475958
0.00537305
0.00594049
0.00643891
0.00684735
0.00714938
0.00733551
0.00740534
0.00736919
0.00724978
0.00708393
0.00690896
0.00679969
0.000118528
-7.38723e-07
-8.96632e-05
-0.000149051
-0.000163704
-0.000122125
-1.94675e-05
0.000145808
0.000373652
0.000663029
0.00101208
0.00141796
0.00187645
0.0023815
0.00292472
0.00349505
0.00407843
0.00465836
0.00521592
0.0057311
0.00618424
0.0065579
0.00683902
0.00702093
0.00710495
0.00710119
0.00702892
0.00691669
0.00679608
0.00668767
0.000252997
8.57609e-05
-5.42519e-06
-5.45729e-05
-5.8161e-05
-8.20301e-06
9.83233e-05
0.000262379
0.000484157
0.000763201
0.00109831
0.0014873
0.00192657
0.00241068
0.00293184
0.00347958
0.00404087
0.00459946
0.0051372
0.0056347
0.00607288
0.00643481
0.00670794
0.006886
0.00697049
0.0069711
0.00690554
0.00679936
0.00667426
0.00651851
0.000363679
0.000139443
3.23941e-05
-1.8992e-05
-2.07549e-05
3.15417e-05
0.000138578
0.000300154
0.000516274
0.000786846
0.00111133
0.00148835
0.00191517
0.0023872
0.00289745
0.00343613
0.00399048
0.00454454
0.00507996
0.00557678
0.00601505
0.00637686
0.00664869
0.00682359
0.00690267
0.00689527
0.00681874
0.00669802
0.00654917
0.0063412
0.000416259
0.000137417
1.11405e-05
-4.76656e-05
-5.24676e-05
-1.6695e-06
0.000103277
0.000261036
0.000471385
0.000734598
0.00105086
0.00141973
0.0018395
0.00230661
0.00281495
0.0033554
0.00391542
0.0044789
0.00502658
0.00553704
0.00598833
0.0063603
0.00663733
0.00681092
0.00688146
0.00685841
0.00676001
0.00661289
0.00643179
0.00617205
0.000386344
5.81726e-05
-8.81416e-05
-0.000157253
-0.000168351
-0.000121964
-2.12653e-05
0.000131509
0.000336033
0.000593034
0.000903532
0.00126815
0.0016864
0.00215588
0.00267154
0.00322493
0.00380369
0.00439115
0.00496658
0.00550617
0.00598483
0.00637884
0.0066692
0.00684487
0.00690518
0.00686022
0.00673056
0.00654699
0.0063267
0.00601705
0.000257544
-0.000114372
-0.000280242
-0.000361022
-0.000380398
-0.000340473
-0.000245726
-9.90069e-05
9.94469e-05
0.000350973
0.000657577
0.00102114
0.00144256
0.00192085
0.00245222
0.00302906
0.00363918
0.00426526
0.00488454
0.00547001
0.00599219
0.00642231
0.00673641
0.00691964
0.00696962
0.00689744
0.00672757
0.00649746
0.0062302
0.00586948
1.79502e-05
-0.000393186
-0.000577761
-0.000670799
-0.000699721
-0.000667839
-0.00058061
-0.00044124
-0.000249674
-3.78711e-06
0.000299599
0.000663831
0.00109148
0.0015833
0.00213709
0.00274646
0.00339962
0.00407872
0.00475869
0.00540857
0.00599325
0.00647706
0.00682901
0.00702851
0.00707029
0.00696644
0.00674678
0.00645824
0.00613307
0.00571355
-0.000341992
-0.000789379
-0.000992073
-0.00109785
-0.00113747
-0.00111524
-0.00103742
-0.000907371
-0.000724594
-0.000486014
-0.000187091
0.000177242
0.000611555
0.00111879
0.00169895
0.00234745
0.00305337
0.00379901
0.00455704
0.00529218
0.00596233
0.0065228
0.00693271
0.00716273
0.00720238
0.00706396
0.00678386
0.00642166
0.00602236
0.00552699
-0.000830615
-0.0013128
-0.00153356
-0.00165284
-0.00170458
-0.0016941
-0.00162833
-0.00151078
-0.00134039
-0.00111304
-0.000822676
-0.000462266
-2.48595e-05
0.000495239
0.00110101
0.00179054
0.0025546
0.00337799
0.00423094
0.00507414
0.0058577
0.00652544
0.00702276
0.00730696
0.00735808
0.00718618
0.00683459
0.00637935
0.00588251
0.0052818
-0.00145566
-0.00197249
-0.00221188
-0.00234587
-0.00241172
-0.00241582
-0.00236592
-0.00226569
-0.0021136
-0.00190448
-0.00163069
-0.00128307
-0.000851947
-0.000328299
0.000294688
0.00101895
0.0018381
0.00274532
0.00370658
0.00468069
0.00561031
0.00642573
0.00705378
0.00743142
0.00752165
0.00732655
0.00689495
0.00632339
0.00569658
0.0049447
-0.00222456
-0.00277702
-0.00303616
-0.00318659
-0.00326915
-0.0032916
-0.00326274
-0.00318668
-0.0030616
-0.00288149
-0.00263726
-0.00231763
-0.00191003
-0.0014017
-0.000781049
-3.92054e-05
0.000827402
0.00180341
0.00287445
0.00399685
0.00510715
0.00612134
0.00694252
0.00747743
0.00765939
0.00747078
0.00695998
0.00624747
0.00544805
0.00447788
-0.00314462
-0.00373468
-0.0040152
-0.0041842
-0.00428659
-0.00433193
-0.00433061
-0.00428758
-0.00420125
-0.00406517
-0.00386928
-0.00360057
-0.00324385
-0.00278248
-0.00219941
-0.00147855
-0.000607856
0.000412419
0.00157667
0.00284928
0.00416887
0.00544066
0.00654047
0.00733249
0.0077005
0.0075853
0.00701959
0.00614746
0.00512321
0.00384071
-0.00422296
-0.0048537
-0.00515757
-0.0053474
-0.00547284
-0.00554598
-0.00557952
-0.00558003
-0.00554687
-0.005474
-0.00535126
-0.00516492
-0.00489811
-0.00453103
-0.00404133
-0.00340467
-0.00259683
-0.00159936
-0.000398898
0.000991663
0.00252633
0.0041109
0.00559629
0.00679197
0.00750422
0.00759459
0.00704757
0.00601975
0.00471404
0.00299261
-0.00546667
-0.00614251
-0.00647187
-0.00668433
-0.00683538
-0.00694065
-0.00701622
-0.00707135
-0.00710742
-0.00712009
-0.00710055
-0.00703611
-0.00691021
-0.00670199
-0.00638556
-0.00592894
-0.00529302
-0.00443308
-0.00331328
-0.00189677
-0.000191336
0.00173331
0.00371823
0.00551305
0.00681355
0.00734446
0.00698048
0.00585561
0.00422196
0.00189828
-0.00688307
-0.00761037
-0.00796713
-0.00820272
-0.00838002
-0.00851964
-0.00864251
-0.00876199
-0.00888296
-0.00900439
-0.00912095
-0.00922358
-0.00929926
-0.00932983
-0.00928979
-0.0091427
-0.00883644
-0.00829953
-0.00744463
-0.0061783
-0.0044304
-0.00220482
0.000365757
0.00298482
0.00521067
0.00655668
0.00668584
0.00563051
0.00366355
0.000537802
-0.00848039
-0.00926841
-0.00965369
-0.00991019
-0.0101105
-0.0102823
-0.0104533
-0.0106427
-0.0108606
-0.0111112
-0.0113952
-0.0117106
-0.012052
-0.0124096
-0.0127645
-0.0130819
-0.0133013
-0.0133243
-0.0130049
-0.0121596
-0.0106121
-0.00823661
-0.00507845
-0.00143479
0.00211524
0.00480069
0.00593108
0.00529113
0.0030813
-0.00107264
-0.0102693
-0.0111316
-0.0115448
-0.0118151
-0.0120286
-0.0122228
-0.0124349
-0.0126917
-0.0130105
-0.0134027
-0.0138777
-0.0144438
-0.0151086
-0.0158767
-0.0167438
-0.0176856
-0.0186409
-0.0194884
-0.0200201
-0.0199331
-0.0189462
-0.016709
-0.0131046
-0.0083488
-0.00310588
0.0015372
0.00438596
0.0047528
0.00256555
-0.00283919
-0.0122656
-0.0132223
-0.0136592
-0.0139279
-0.014134
-0.0143291
-0.0145631
-0.0148725
-0.0152832
-0.0158154
-0.0164892
-0.0173266
-0.0183524
-0.0195916
-0.0210623
-0.0227601
-0.0246325
-0.0265437
-0.0282383
-0.0293207
-0.0292397
-0.0275149
-0.0237605
-0.0179987
-0.0108622
-0.00369566
0.00171296
0.00393907
0.00229722
-0.00451404
-0.0144954
-0.0155755
-0.0160251
-0.0162631
-0.0164249
-0.0165827
-0.0168024
-0.0171326
-0.0176081
-0.0182589
-0.0191167
-0.020219
-0.0216102
-0.02334
-0.0254536
-0.0279731
-0.0308625
-0.0339808
-0.0370296
-0.0395076
-0.0406947
-0.0398756
-0.0363693
-0.0299134
-0.0209589
-0.0109444
-0.00220165
0.00290532
0.0026242
-0.00556989
-0.0170035
-0.0182483
-0.0186863
-0.0188423
-0.0188987
-0.0189576
-0.0191055
-0.0194036
-0.0198956
-0.0206202
-0.0216204
-0.0229485
-0.024669
-0.026856
-0.0295828
-0.0328984
-0.036786
-0.0411046
-0.0455223
-0.049452
-0.0520324
-0.0523715
-0.0494644
-0.0427244
-0.0322933
-0.0194724
-0.00691031
0.0020689
0.00418598
-0.00501653
-0.019871
-0.0213351
-0.0217108
-0.0216961
-0.0215509
-0.0214191
-0.0214119
-0.0216026
-0.0220411
-0.0227722
-0.0238473
-0.0253315
-0.0273063
-0.0298669
-0.0331096
-0.0371048
-0.0418497
-0.0472016
-0.0528011
-0.0580089
-0.0619208
-0.0633171
-0.0611095
-0.0543772
-0.0428864
-0.0275917
-0.0111133
0.00249061
0.00809386
-0.001175
-0.0232483
-0.0249922
-0.0252014
-0.024866
-0.024372
-0.02392
-0.0236471
-0.023634
-0.0239314
-0.0245851
-0.0256507
-0.0272013
-0.0293306
-0.0321479
-0.0357637
-0.0402586
-0.0456314
-0.0517293
-0.0581778
-0.0642595
-0.0690067
-0.0712208
-0.0694959
-0.0627328
-0.0503679
-0.0329158
-0.0126499
0.00604975
0.016154
0.00853896
-0.0274277
-0.0294779
-0.0293078
-0.0283991
-0.0273377
-0.0263919
-0.0257163
-0.025388
-0.0254487
-0.0259373
-0.0269071
-0.0284336
-0.0306154
-0.0335675
-0.0374037
-0.0422001
-0.0479393
-0.0544378
-0.0613643
-0.0678253
-0.0728244
-0.0753703
-0.0735136
-0.0662349
-0.0526953
-0.0329826
-0.00888224
0.0153862
0.0310887
0.0277454
-0.033002
-0.0352151
-0.0342301
-0.0323299
-0.0303871
-0.0287255
-0.0274904
-0.0267325
-0.0264682
-0.0267181
-0.0275247
-0.0289583
-0.0311148
-0.0341046
-0.0380333
-0.0429601
-0.048844
-0.0554731
-0.0623944
-0.0687957
-0.0735928
-0.075472
-0.0728044
-0.0642192
-0.0486965
-0.0259494
0.00261858
0.0335703
0.0565896
0.0609852
-0.041241
-0.0428772
-0.0401806
-0.0366203
-0.033365
-0.0307212
-0.0287637
-0.0274776
-0.026829
-0.0268043
-0.0274236
-0.0287416
-0.0308422
-0.0338215
-0.0377625
-0.0426939
-0.0485334
-0.0550176
-0.0616258
-0.067513
-0.0715145
-0.07218
-0.0678363
-0.0569113
-0.0381626
-0.0111303
0.023339
0.0632373
0.0966347
0.113349
-0.0551996
-0.0535256
-0.0472718
-0.0410278
-0.0359003
-0.0319813
-0.0291622
-0.0273025
-0.0262782
-0.0260166
-0.0264987
-0.0277509
-0.0298323
-0.0328132
-0.0367441
-0.0416117
-0.047281
-0.0534275
-0.0594655
-0.0644894
-0.067258
-0.0661959
-0.059484
-0.0453083
-0.0221158
0.0109818
0.0537507
0.104946
0.153431
0.191839
-0.0826691
-0.0683377
-0.0554342
-0.0450012
-0.0372906
-0.031846
-0.0281366
-0.0257892
-0.0245283
-0.0241845
-0.024678
-0.0259946
-0.0281603
-0.0312127
-0.0351639
-0.0399544
-0.0453948
-0.0510989
-0.0564147
-0.0603667
-0.0616484
-0.0585907
-0.0492445
-0.0314123
-0.00304766
0.0375632
0.0911976
0.157949
0.227879
0.310436
-0.135036
-0.0836484
-0.0623546
-0.0460745
-0.0353182
-0.0285917
-0.0244812
-0.0221292
-0.0210464
-0.0209619
-0.0217403
-0.0233331
-0.0257406
-0.028975
-0.03302
-0.0377818
-0.0430335
-0.0483516
-0.0530505
-0.0561148
-0.0561563
-0.0514417
-0.0400313
-0.0193414
0.0133587
0.0612486
0.127442
0.216724
0.325339
0.495436
-0.307386
-0.0932336
-0.0448729
-0.027259
-0.0179443
-0.0134648
-0.0118479
-0.0117034
-0.0123893
-0.0136897
-0.0155523
-0.0179902
-0.021046
-0.0247603
-0.0291344
-0.0340858
-0.0393968
-0.0446564
-0.0492039
-0.0520797
-0.0520075
-0.0473223
-0.0357462
-0.0148544
0.0183984
0.0686786
0.142719
0.258023
0.433715
0.777823
)
;

boundaryField
{
    movingWall
    {
        type            zeroGradient;
    }
    fixedWalls
    {
        type            zeroGradient;
    }
    frontAndBack
    {
        type            empty;
    }
}


// ************************************************************************* //
