/*--------------------------------*- C++ -*----------------------------------*\
  =========                 |
  \\      /  F ield         | OpenFOAM: The Open Source CFD Toolbox
   \\    /   O peration     | Website:  https://openfoam.org
    \\  /    A nd           | Version:  7
     \\/     M anipulation  |
\*---------------------------------------------------------------------------*/
FoamFile
{
    version     2.0;
    format      ascii;
    class       surfaceScalarField;
    location    "4.6";
    object      phi;
}
// * * * * * * * * * * * * * * * * * * * * * * * * * * * * * * * * * * * * * //

dimensions      [0 3 -1 0 0 0 0];

internalField   nonuniform List<scalar> 
1740
(
3.46976e-07
-3.47932e-07
-6.62705e-07
1.00968e-06
-3.08788e-06
2.42518e-06
-6.593e-06
3.50512e-06
-1.0803e-05
4.21e-06
-1.53986e-05
4.59561e-06
-2.01372e-05
4.73858e-06
-2.48415e-05
4.70434e-06
-2.93789e-05
4.53735e-06
-3.36411e-05
4.26222e-06
-3.75292e-05
3.88811e-06
-4.0943e-05
3.41376e-06
-4.37756e-05
2.83263e-06
-4.59133e-05
2.13767e-06
-4.7239e-05
1.32578e-06
-4.76409e-05
4.01864e-07
-4.70234e-05
-6.1751e-07
-4.53223e-05
-1.70111e-06
-4.25211e-05
-2.80122e-06
-3.86667e-05
-3.85433e-06
-3.38827e-05
-4.78399e-06
-2.83762e-05
-5.50658e-06
-2.24365e-05
-5.93962e-06
-1.64252e-05
-6.01136e-06
-1.0755e-05
-5.67024e-06
-5.86124e-06
-4.89372e-06
-2.16119e-06
-3.70005e-06
1.86806e-08
-2.17987e-06
6.19984e-07
-6.0131e-07
6.19977e-07
-1.00834e-06
6.60407e-07
-4.9824e-06
4.98375e-06
-1.18058e-05
9.24859e-06
-2.08733e-05
1.25726e-05
-3.14941e-05
1.48308e-05
-4.30225e-05
1.61241e-05
-5.49138e-05
1.66298e-05
-6.67287e-05
1.65192e-05
-7.81125e-05
1.59212e-05
-8.87658e-05
1.49155e-05
-9.84173e-05
1.35396e-05
-0.000106804
1.18005e-05
-0.000113661
9.68948e-06
-0.000118719
7.19621e-06
-0.000121717
4.32305e-06
-0.000122411
1.09665e-06
-0.000120613
-2.4155e-06
-0.000116207
-6.108e-06
-0.000109189
-9.81835e-06
-9.97041e-05
-1.33397e-05
-8.80612e-05
-1.64269e-05
-7.47521e-05
-1.88157e-05
-6.04423e-05
-2.02494e-05
-4.59435e-05
-2.05102e-05
-3.21607e-05
-1.9453e-05
-2.00163e-05
-1.70381e-05
-1.03449e-05
-1.33715e-05
-3.75582e-06
-8.76894e-06
-5.16501e-07
-3.84063e-06
1.03471e-07
-2.53374e-06
3.19415e-06
-9.61037e-06
1.20604e-05
-2.05065e-05
2.01447e-05
-3.43541e-05
2.64202e-05
-5.02402e-05
3.07168e-05
-6.73155e-05
3.31993e-05
-8.4844e-05
3.41584e-05
-0.00010221
3.38856e-05
-0.0001189
3.2611e-05
-0.00013447
3.04854e-05
-0.000148517
2.75864e-05
-0.000160655
2.39383e-05
-0.000170502
1.95367e-05
-0.000177681
1.43751e-05
-0.000181829
8.47131e-06
-0.000182625
1.89309e-06
-0.000179814
-5.22694e-06
-0.000173258
-1.26642e-05
-0.000162974
-2.01017e-05
-0.00014918
-2.7134e-05
-0.000132322
-3.32852e-05
-0.000113091
-3.80463e-05
-9.24138e-05
-4.09268e-05
-7.14062e-05
-4.15178e-05
-5.13002e-05
-3.9559e-05
-3.33347e-05
-3.50036e-05
-1.86206e-05
-2.80856e-05
-7.99116e-06
-1.93984e-05
-1.8353e-06
-9.99648e-06
-1.73183e-06
-3.87567e-06
7.06982e-06
-1.37812e-05
2.19659e-05
-2.83648e-05
3.47284e-05
-4.64018e-05
4.44572e-05
-6.67614e-05
5.10764e-05
-8.84361e-05
5.4874e-05
-0.000110559
5.62812e-05
-0.000132398
5.57244e-05
-0.000153331
5.35448e-05
-0.000172817
4.99714e-05
-0.000190359
4.51282e-05
-0.000205482
3.90608e-05
-0.000217718
3.17724e-05
-0.000226606
2.32639e-05
-0.000231709
1.35739e-05
-0.000232634
2.81845e-06
-0.000229076
-8.78582e-06
-0.000220864
-2.08758e-05
-0.000208019
-3.2947e-05
-0.000190799
-4.43533e-05
-0.000169746
-5.43384e-05
-0.000145699
-6.20938e-05
-0.000119782
-6.6843e-05
-9.3356e-05
-6.79443e-05
-6.79155e-05
-6.49995e-05
-4.49629e-05
-5.79562e-05
-2.58515e-05
-4.7197e-05
-1.16335e-05
-3.36164e-05
-2.94207e-06
-1.86879e-05
-4.6739e-06
-4.98614e-06
1.2056e-05
-1.73635e-05
3.43432e-05
-3.52044e-05
5.25693e-05
-5.69184e-05
6.61712e-05
-8.11501e-05
7.5308e-05
-0.000106748
8.0472e-05
-0.000132745
8.22779e-05
-0.000158329
8.1309e-05
-0.000182813
7.80281e-05
-0.000205589
7.27476e-05
-0.0002261
6.56393e-05
-0.000243808
5.67688e-05
-0.00025818
4.61442e-05
-0.000268686
3.37701e-05
-0.000274814
1.97025e-05
-0.000276101
4.10479e-06
-0.00027217
-1.27168e-05
-0.000262795
-3.02508e-05
-0.000247961
-4.77804e-05
-0.000227932
-6.43827e-05
-0.0002033
-7.89704e-05
-0.000175019
-9.03749e-05
-0.000144393
-9.74693e-05
-0.000113015
-9.9322e-05
-8.26552e-05
-9.53592e-05
-5.50995e-05
-8.55119e-05
-3.19707e-05
-7.03258e-05
-1.45647e-05
-5.10224e-05
-3.74876e-06
-2.95038e-05
-8.42266e-06
-5.89622e-06
1.79522e-05
-2.04016e-05
4.88486e-05
-4.11e-05
7.32677e-05
-6.60587e-05
9.11299e-05
-9.37027e-05
0.000102952
-0.000122746
0.000109515
-0.000152136
0.000111669
-0.000181009
0.000110182
-0.000208636
0.000105655
-0.000234376
9.84874e-05
-0.000257634
8.88975e-05
-0.000277831
7.6965e-05
-0.000294379
6.26927e-05
-0.000306685
4.6076e-05
-0.000314157
2.71743e-05
-0.000316237
6.18508e-06
-0.000312449
-1.65047e-05
-0.000302464
-4.02356e-05
-0.000286183
-6.40621e-05
-0.000263816
-8.67497e-05
-0.000235964
-0.000106822
-0.000203667
-0.000122672
-0.000168407
-0.000132729
-0.000132046
-0.000135684
-9.66862e-05
-0.000130719
-6.44759e-05
-0.000117722
-3.73786e-05
-9.74232e-05
-1.69708e-05
-7.14302e-05
-4.31998e-06
-4.21546e-05
-1.27426e-05
-6.65802e-06
2.46102e-05
-2.30109e-05
6.52014e-05
-4.62376e-05
9.64944e-05
-7.41002e-05
0.000118992
-0.000104819
0.000133671
-0.000136982
0.000141678
-0.000169469
0.000144155
-0.000201378
0.000142092
-0.000231964
0.000136241
-0.000260575
0.000127098
-0.0002866
0.000114923
-0.000309434
9.97988e-05
-0.000328448
8.17064e-05
-0.00034298
6.06085e-05
-0.000352347
3.65412e-05
-0.00035587
9.70756e-06
-0.000352925
-1.94494e-05
-0.000343021
-5.01396e-05
-0.0003259
-8.11828e-05
-0.00030165
-0.000111
-0.000270813
-0.000137659
-0.000234478
-0.000159007
-0.000194309
-0.000172898
-0.000152491
-0.000177501
-0.000111567
-0.000171644
-7.41735e-05
-0.000155115
-4.27382e-05
-0.000128858
-1.91875e-05
-9.49809e-05
-4.76666e-06
-5.65754e-05
-1.75093e-05
-7.32144e-06
3.19316e-05
-2.53199e-05
8.31999e-05
-5.08337e-05
0.000122008
-8.13552e-05
0.000149514
-0.000114919
0.000167234
-0.000150001
0.00017676
-0.000185424
0.000179579
-0.000220271
0.000176938
-0.000253797
0.000169767
-0.000285361
0.000158662
-0.000314359
0.000143922
-0.000340178
0.000125618
-0.000362156
0.000103685
-0.000379567
7.80192e-05
-0.000391618
4.85925e-05
-0.000397478
1.5567e-05
-0.000396324
-2.06036e-05
-0.000387422
-5.90412e-05
-0.000370263
-9.83415e-05
-0.000344704
-0.00013656
-0.000311131
-0.000171232
-0.000270614
-0.000199524
-0.000224988
-0.000218523
-0.000176827
-0.000225663
-0.00012925
-0.00021922
-8.55831e-05
-0.000198782
-4.89087e-05
-0.000165533
-2.16361e-05
-0.000122254
-5.21082e-06
-7.30007e-05
-2.27201e-05
-7.92681e-06
3.98584e-05
-2.74442e-05
0.000102717
-5.50907e-05
0.000149655
-8.81164e-05
0.00018254
-0.000124387
0.000203505
-0.000162282
0.000214655
-0.000200583
0.00021788
-0.000238373
0.000214728
-0.000274932
0.000206327
-0.000309655
0.000193384
-0.000341968
0.000176235
-0.000371272
0.000154922
-0.000396892
0.000129304
-0.00041804
9.91681e-05
-0.000433812
6.4364e-05
-0.00044319
2.49446e-05
-0.000445097
-1.86959e-05
-0.000438465
-6.56739e-05
-0.000422406
-0.0001144
-0.0003964
-0.000162567
-0.000360524
-0.000207108
-0.000315704
-0.000244344
-0.00026389
-0.000270337
-0.000208095
-0.000281458
-0.000152196
-0.000275119
-0.000100477
-0.000250501
-5.69794e-05
-0.00020903
-2.48338e-05
-0.000154399
-5.7893e-06
-9.20451e-05
-2.85094e-05
-8.50462e-06
4.83631e-05
-2.94777e-05
0.00012369
-5.91782e-05
0.000179355
-9.46294e-05
0.000217991
-0.000133542
0.000242418
-0.00017421
0.000255323
-0.000215393
0.000259062
-0.000256192
0.000255527
-0.00029594
0.000246075
-0.000334094
0.000231538
-0.000370144
0.000212285
-0.000403536
0.000188315
-0.00043361
0.000159377
-0.000459543
0.000125101
-0.000480317
8.51384e-05
-0.000494713
3.93403e-05
-0.000501359
-1.20499e-05
-0.000498723
-6.83096e-05
-0.000485402
-0.000127721
-0.000460293
-0.000187676
-0.000422939
-0.000244462
-0.000373907
-0.000293376
-0.000315129
-0.000329115
-0.000250063
-0.000346524
-0.000183532
-0.00034165
-0.000121148
-0.000312885
-6.83674e-05
-0.000261811
-2.94473e-05
-0.000193319
-6.67246e-06
-0.00011482
-3.51819e-05
-9.07718e-06
5.74402e-05
-3.1493e-05
0.000146106
-6.32289e-05
0.000211091
-0.000101084
0.000255847
-0.000142621
0.000283955
-0.000186059
0.00029876
-0.000230148
0.000303152
-0.000274038
0.000299416
-0.000317138
0.000289175
-0.000359003
0.000273404
-0.000399229
0.000252511
-0.000437353
0.000226438
-0.000472773
0.000194797
-0.000504672
0.000157
-0.000531952
0.000112419
-0.000553176
6.05642e-05
-0.000566687
1.46084e-06
-0.000570315
-6.46811e-05
-0.000562014
-0.000136022
-0.000539831
-0.000209859
-0.000502458
-0.000281835
-0.000449779
-0.000346054
-0.000383443
-0.000395451
-0.000307259
-0.000422709
-0.000227161
-0.000421748
-0.000150543
-0.000389503
-8.49314e-05
-0.000327423
-3.63598e-05
-0.000241891
-8.08656e-06
-0.000143093
-4.32684e-05
-9.66089e-06
6.71011e-05
-3.35454e-05
0.000169991
-6.73438e-05
0.000244889
-0.000107621
0.000296124
-0.000151786
0.00032812
-0.000197992
0.000344966
-0.000244999
0.000350159
-0.000292022
0.000346439
-0.000338585
0.000335737
-0.000384381
0.000319201
-0.000429159
0.000297289
-0.000472607
0.000269887
-0.00051425
0.00023644
-0.000553341
0.000196092
-0.000588762
0.000147839
-0.000618932
9.0735e-05
-0.000641651
2.41791e-05
-0.000654428
-5.19035e-05
-0.000654138
-0.000136312
-0.000637736
-0.000226261
-0.000602674
-0.000316896
-0.000547701
-0.000401028
-0.000473752
-0.000469399
-0.000384714
-0.000511747
-0.00028768
-0.000518782
-0.000192303
-0.000484881
-0.000109048
-0.000410677
-4.67281e-05
-0.000304211
-1.03335e-05
-0.000179488
-5.36019e-05
-1.02694e-05
7.73705e-05
-3.56817e-05
0.000195403
-7.16049e-05
0.000280813
-0.000114343
0.000338862
-0.000161141
0.000374918
-0.000210086
0.000393911
-0.00025996
0.000400033
-0.000310071
0.00039655
-0.000360087
0.000385752
-0.000409887
0.000369001
-0.000459428
0.00034683
-0.000508619
0.000319077
-0.00055719
0.000285011
-0.000604556
0.000243458
-0.000649661
0.000192944
-0.000690814
0.000131888
-0.000725526
5.88905e-05
-0.000750582
-2.68469e-05
-0.00076185
-0.000125045
-0.000754884
-0.000233226
-0.000725475
-0.000346305
-0.00067068
-0.000455824
-0.000590103
-0.000549976
-0.000487172
-0.000614678
-0.000369909
-0.000636045
-0.000250574
-0.000604216
-0.0001436
-0.000517651
-6.20126e-05
-0.000385798
-1.38047e-05
-0.000227696
-6.74066e-05
-1.09177e-05
8.82882e-05
-3.79513e-05
0.000222437
-7.60938e-05
0.000318955
-0.000121345
0.000384114
-0.00017076
0.000424333
-0.000222356
0.000445507
-0.000274945
0.000452622
-0.00032795
0.000449555
-0.000381216
0.000439019
-0.00043485
0.000422635
-0.000489073
0.000401053
-0.000544083
0.000374087
-0.000599906
0.000340834
-0.000656222
0.000299773
-0.00071215
0.000248873
-0.000766013
0.00018575
-0.000815074
0.000107952
-0.000855478
1.35572e-05
-0.000882012
-9.85106e-05
-0.00088866
-0.000226579
-0.000869194
-0.000365771
-0.000818422
-0.000506596
-0.000733855
-0.000634543
-0.000617588
-0.000730945
-0.000477872
-0.00077576
-0.000329492
-0.000752595
-0.000191808
-0.000655335
-8.39687e-05
-0.000493637
-1.89917e-05
-0.000292673
-8.63984e-05
-1.16275e-05
9.99157e-05
-4.04219e-05
0.000251231
-8.09182e-05
0.000359451
-0.000128744
0.00043194
-0.000180726
0.000476315
-0.000234797
0.000499577
-0.000289807
0.000507632
-0.000345309
0.000505057
-0.000401349
0.00049506
-0.000458294
0.000479579
-0.000516672
0.000459431
-0.00057703
0.000434445
-0.000639769
0.000403572
-0.00070493
0.000364934
-0.000771933
0.000315877
-0.000839254
0.000253071
-0.000904082
0.000172779
-0.000961936
7.14114e-05
-0.00100685
-5.35937e-05
-0.00103114
-0.000202295
-0.00102644
-0.000370465
-0.000984929
-0.000548109
-0.000901227
-0.000718245
-0.000774914
-0.000857258
-0.000613106
-0.000937568
-0.000432189
-0.000933512
-0.00025686
-0.000830664
-0.000114592
-0.000635906
-2.65012e-05
-0.000380763
-0.0001129
-1.24349e-05
0.000112351
-4.32003e-05
0.000281996
-8.62439e-05
0.000402495
-0.000136722
0.000482417
-0.000191177
0.00053077
-0.000247438
0.000555838
-0.000304393
0.000564588
-0.000361734
0.000562397
-0.000419721
0.000553047
-0.000478991
0.00053885
-0.0005404
0.000520839
-0.000604869
0.000498915
-0.000673215
0.000471918
-0.000745912
0.000437632
-0.000822787
0.000392751
-0.000902618
0.000332902
-0.000982699
0.000252861
-0.00105841
0.000147119
-0.00112303
1.1027e-05
-0.00116776
-0.000157564
-0.00118236
-0.000355862
-0.00115631
-0.000574161
-0.00108078
-0.000793778
-0.000951488
-0.000986546
-0.000772365
-0.00111669
-0.000559222
-0.00114666
-0.0003412
-0.00104869
-0.000155982
-0.000821124
-3.70791e-05
-0.000499666
-0.000149979
-1.34e-05
0.000125751
-4.64597e-05
0.000315056
-9.23375e-05
0.000448373
-0.000145576
0.000535656
-0.000202362
0.000587556
-0.000260397
0.000613873
-0.000318605
0.000622795
-0.000376819
0.000620611
-0.000435508
0.000611735
-0.000495566
0.000598908
-0.000558153
0.000583427
-0.000624545
0.000565307
-0.00069596
0.000543333
-0.00077332
0.000514992
-0.000856916
0.000476347
-0.000945975
0.000421962
-0.00103816
0.000345049
-0.00112911
0.000238062
-0.00121198
9.39025e-05
-0.00127749
-9.20573e-05
-0.00131439
-0.000318956
-0.00130997
-0.000578589
-0.00125185
-0.000851898
-0.0011308
-0.00110759
-0.000945092
-0.0013024
-0.000706417
-0.00138533
-0.000445315
-0.00130979
-0.000210034
-0.00105641
-5.16335e-05
-0.000658066
-0.000201612
-1.46224e-05
0.000140373
-5.04772e-05
0.000350911
-9.96194e-05
0.000497515
-0.000155778
0.000591814
-0.000214699
0.000646477
-0.000273936
0.00067311
-0.000332455
0.000681314
-0.00039023
0.000678387
-0.000447918
0.000669424
-0.000506627
0.000657617
-0.000567755
0.000644554
-0.000632849
0.000630401
-0.000703453
0.000613937
-0.000780876
0.000592415
-0.000865876
0.000561346
-0.000958235
0.000514321
-0.00105627
0.000443084
-0.00115633
0.000338125
-0.00125245
0.000190019
-0.00133541
-9.09649e-06
-0.00139478
-0.000259581
-0.00141649
-0.000556882
-0.00138541
-0.000882981
-0.00128698
-0.00120602
-0.00111161
-0.00147777
-0.000862494
-0.00163445
-0.000565943
-0.00160634
-0.000277797
-0.00134455
-7.12229e-05
-0.00086464
-0.000272835
-1.62652e-05
0.000156638
-5.56894e-05
0.000390335
-0.000108734
0.000550559
-0.000168041
0.000651121
-0.000228826
0.000707262
-0.000288501
0.000732785
-0.000346101
0.000738914
-0.00040175
0.000734036
-0.000456267
0.00072394
-0.000510905
0.000712256
-0.000567198
0.000700847
-0.00062684
0.000690043
-0.000691555
0.000678652
-0.000762919
0.000663779
-0.000842092
0.000640519
-0.000929467
0.000601696
-0.00102426
0.000537873
-0.00112405
0.000437915
-0.00122433
0.000290306
-0.00131848
8.5054e-05
-0.00139614
-0.000181922
-0.00144499
-0.000508036
-0.00144846
-0.000879506
-0.00138748
-0.001267
-0.00124367
-0.00162158
-0.00100764
-0.00187047
-0.000693976
-0.00192001
-0.000358357
-0.00168017
-9.69661e-05
-0.00112603
-0.000369801
-1.85967e-05
0.000175235
-6.27771e-05
0.000434516
-0.000120642
0.000608424
-0.00018339
0.000713869
-0.000245639
0.000769511
-0.00030472
0.000791866
-0.000359816
0.00079401
-0.000411242
0.000785462
-0.000459961
0.000772659
-0.000507305
0.0007596
-0.000554827
0.000748369
-0.000604216
0.000739431
-0.000657216
0.000731652
-0.000715515
0.000722077
-0.000780575
0.000705579
-0.000853409
0.000674531
-0.0009343
0.000618764
-0.00102248
0.000526094
-0.00111577
0.000383596
-0.00121027
0.000179555
-0.00129851
-9.3685e-05
-0.00137093
-0.000435616
-0.00141184
-0.000838597
-0.00139981
-0.00127903
-0.00130878
-0.00171261
-0.00111479
-0.00206446
-0.000813229
-0.00222157
-0.000447413
-0.00204599
-0.000129838
-0.00144361
-0.000499639
-2.20695e-05
0.000197304
-7.28032e-05
0.000485249
-0.00013675
0.000672371
-0.000203223
0.000780343
-0.000266263
0.00083255
-0.000323296
0.000848899
-0.000373819
0.000844533
-0.000418436
0.000830079
-0.000458279
0.000812502
-0.000494714
0.000796036
-0.000529223
0.000782878
-0.000563362
0.000773571
-0.000598751
0.000767041
-0.000637052
0.000760378
-0.000679924
0.000748452
-0.000728959
0.000723566
-0.000785573
0.000675378
-0.000850837
0.000591358
-0.00092522
0.00045798
-0.0010083
0.000262634
-0.0010961
-5.889e-06
-0.00118396
-0.000347755
-0.00125882
-0.000763737
-0.00130029
-0.00123755
-0.00127793
-0.00173497
-0.00115451
-0.00218788
-0.000901611
-0.00247447
-0.000536139
-0.00241146
-0.000170312
-0.00180943
-0.00066995
-2.74748e-05
0.000224779
-8.74426e-05
0.000545217
-0.00015907
0.000743998
-0.000229331
0.000850604
-0.000291905
0.000895124
-0.000344693
0.000901687
-0.000387817
0.000887657
-0.00042236
0.000864622
-0.00044971
0.000839852
-0.000471285
0.00081761
-0.000488462
0.000800055
-0.000502604
0.000787713
-0.000515125
0.000779562
-0.000527571
0.000772824
-0.000541713
0.000762593
-0.000559635
0.000741488
-0.000583801
0.000699544
-0.000617047
0.000624604
-0.000662424
0.000503356
-0.000722516
0.000322726
-0.000799914
7.15088e-05
-0.00089113
-0.000256539
-0.000990306
-0.000664562
-0.00108108
-0.00114677
-0.00113354
-0.00168252
-0.00110211
-0.00221931
-0.000934964
-0.00264162
-0.00061114
-0.00273528
-0.000217752
-0.00220282
-0.000887702
-3.6252e-05
0.000261031
-0.000109358
0.000618323
-0.000190395
0.000825035
-0.000263738
0.000923947
-0.000323357
0.000954743
-0.000368338
0.000946668
-0.000399938
0.000919257
-0.000420031
0.000884715
-0.000430437
0.000850259
-0.000432724
0.000819897
-0.000428217
0.000795549
-0.00041811
0.000777605
-0.000403606
0.000765059
-0.000386106
0.000755324
-0.000367424
0.00074391
-0.000350022
0.000724087
-0.000337216
0.000686738
-0.000333265
0.000620654
-0.00034344
0.000513531
-0.000373416
0.000352703
-0.000428571
0.000126664
-0.000512007
-0.000173103
-0.00062241
-0.000554158
-0.000750651
-0.00101853
-0.000872857
-0.00156031
-0.000942917
-0.00214925
-0.000891777
-0.00269276
-0.000655675
-0.00297138
-0.00026943
-0.00258907
-0.00115713
-5.11004e-05
0.000312132
-0.000142754
0.000709977
-0.000234282
0.000916562
-0.000307987
0.000997653
-0.000359616
0.00100637
-0.000390656
0.000977708
-0.000404268
0.000932869
-0.000403567
0.000884013
-0.000391078
0.00083777
-0.000368697
0.000797516
-0.000337826
0.000764678
-0.000299575
0.000739354
-0.000254991
0.000720474
-0.000205326
0.000705659
-0.000152355
0.000690939
-9.87527e-05
0.000670484
-4.84335e-05
0.000636419
-6.8052e-06
0.000579026
1.96752e-05
0.00048705
2.3379e-05
0.000348999
-3.92952e-06
0.000153972
-6.85857e-05
-0.000108447
-0.000176235
-0.000446509
-0.000325806
-0.00086896
-0.000503738
-0.00138238
-0.000671879
-0.00198111
-0.000755354
-0.00260928
-0.000650911
-0.00307583
-0.000318987
-0.00292099
-0.00147612
-7.71252e-05
0.000389257
-0.000193916
0.000826768
-0.000294069
0.00101672
-0.000360588
0.00106417
-0.000394
0.00103978
-0.000400126
0.000983834
-0.000385092
0.000917836
-0.00035383
0.000852751
-0.000309895
0.000793835
-0.000255709
0.00074333
-0.000192879
0.000701848
-0.000122505
0.000668981
-4.55011e-05
0.00064347
3.70665e-05
0.000623091
0.000123584
0.000604422
0.000211512
0.000582556
0.000296932
0.000550999
0.00037429
0.000501668
0.000436123
0.000425216
0.000473438
0.000311684
0.000476289
0.000151122
0.000434041
-6.61998e-05
0.000338159
-0.000350626
0.000182031
-0.000712832
-3.30331e-05
-0.00116732
-0.000286169
-0.00172798
-0.000510677
-0.00238477
-0.000575155
-0.00301135
-0.000354269
-0.00314188
-0.00183039
-0.000123765
0.000513021
-0.000270436
0.00097344
-0.000367873
0.00111415
-0.000408472
0.00110477
-0.000403047
0.00103436
-0.000364546
0.000945334
-0.000303317
0.000856606
-0.000226605
0.000776039
-0.000139137
0.000706367
-4.3838e-05
0.000648031
5.75688e-05
0.000600441
0.000164097
0.000562452
0.000275107
0.00053246
0.000389894
0.000508304
0.000507273
0.000487043
0.000625098
0.000464731
0.000739837
0.000436259
0.000846176
0.000395329
0.000936769
0.000334623
0.0010023
0.00024615
0.00103172
0.000121701
0.00101267
-4.71451e-05
0.000932826
-0.000270783
0.000779287
-0.000559293
0.000541693
-0.000929723
0.000223076
-0.00140936
-0.00013274
-0.00202896
-0.000399146
-0.00274494
-0.000358591
-0.00318243
-0.00218898
-0.000207354
0.000720376
-0.000371899
0.00113798
-0.000427818
0.00117007
-0.000399067
0.00107602
-0.000315356
0.000950648
-0.0001996
0.000829578
-6.66005e-05
0.000723607
7.47044e-05
0.000634734
0.000219281
0.00056179
0.000364553
0.00050276
0.000509424
0.00045557
0.000653632
0.000418244
0.000797266
0.000388826
0.00094036
0.000365211
0.00108246
0.000344939
0.00122221
0.00032499
0.00135683
0.000301635
0.00148179
0.000270368
0.00159044
0.000225973
0.00167387
0.000162725
0.00172067
7.48921e-05
0.00171757
-4.40364e-05
0.0016497
-0.000202917
0.00149981
-0.000409408
0.00124906
-0.000678971
0.00088128
-0.00104158
0.000405109
-0.00155279
-7.26939e-05
-0.00226714
-0.000292725
-0.0029624
-0.0024817
-0.000340376
0.00106075
-0.000429137
0.00122674
-0.000339326
0.00108026
-0.000156115
0.000892807
6.52961e-05
0.000729236
0.000296626
0.000598248
0.000523784
0.000496449
0.00074065
0.000417868
0.00094528
0.00035716
0.00113784
0.000310196
0.00131952
0.000273888
0.00149191
0.000245859
0.00165659
0.000224147
0.00181483
0.000206968
0.00196726
0.000192511
0.00211349
0.000178762
0.00225173
0.000163389
0.00237842
0.00014368
0.00248786
0.000116529
0.0025721
7.84935e-05
0.00262039
2.65937e-05
0.00261987
-4.35083e-05
0.0025536
-0.000136647
0.00240235
-0.00025816
0.00214211
-0.000418737
0.00174363
-0.000643092
0.00117832
-0.000987476
0.000494024
-0.00158284
-3.68179e-05
-0.00243156
-0.00251852
-0.000300399
0.00136115
-4.46824e-05
0.000971028
0.000387587
0.000647992
0.000810054
0.00047034
0.00119177
0.000347518
0.00152865
0.000261371
0.00182331
0.000201784
0.00208103
0.000160151
0.00230776
0.000130437
0.00250908
0.000108873
0.00268989
9.30734e-05
0.00285433
8.14202e-05
0.00300575
7.27302e-05
0.00314667
6.6052e-05
0.00327865
6.05252e-05
0.00340213
5.52782e-05
0.00351616
4.93638e-05
0.0036181
4.17376e-05
0.00370336
3.12706e-05
0.00376493
1.69197e-05
0.00379386
-2.33078e-06
0.00378029
-2.99416e-05
0.00370721
-6.35691e-05
0.00355676
-0.000107702
0.00330408
-0.000166056
0.00291269
-0.000251705
0.00232467
-0.000399459
0.00148722
-0.000745388
0.000504759
-0.0014491
-0.00201376
0.00136115
0.00233218
0.00298017
0.00345051
0.00379803
0.0040594
0.00426118
0.00442134
0.00455177
0.00466065
0.00475372
0.00483514
0.00490787
0.00497392
0.00503445
0.00508973
0.00513909
0.00518083
0.0052121
0.00522902
0.00522669
0.00519674
0.00513318
0.00502547
0.00485942
0.00460771
0.00420825
0.00346287
0.00201376
)
;

boundaryField
{
    movingWall
    {
        type            calculated;
        value           uniform 0;
    }
    fixedWalls
    {
        type            calculated;
        value           uniform 0;
    }
    frontAndBack
    {
        type            empty;
        value           nonuniform 0();
    }
}


// ************************************************************************* //
