/*--------------------------------*- C++ -*----------------------------------*\
  =========                 |
  \\      /  F ield         | OpenFOAM: The Open Source CFD Toolbox
   \\    /   O peration     | Website:  https://openfoam.org
    \\  /    A nd           | Version:  7
     \\/     M anipulation  |
\*---------------------------------------------------------------------------*/
FoamFile
{
    version     2.0;
    format      ascii;
    class       volScalarField;
    location    "2.8";
    object      p;
}
// * * * * * * * * * * * * * * * * * * * * * * * * * * * * * * * * * * * * * //

dimensions      [0 2 -2 0 0 0 0];

internalField   nonuniform List<scalar> 
900
(
-9.15516e-10
-0.000116897
-0.000233409
-0.00031898
-0.000347676
-0.000307928
-0.000197479
-1.81575e-05
0.000226843
0.000534004
0.000899673
0.00131985
0.0017898
0.00230364
0.00285404
0.00343187
0.00402613
0.00462389
0.00521038
0.0057694
0.00628379
0.00673628
0.00711055
0.0073927
0.00757304
0.00764851
0.00762588
0.00752633
0.00738834
0.00725617
0.00011561
-2.578e-06
-8.34089e-05
-0.000131347
-0.000133322
-7.94243e-05
3.38149e-05
0.000206802
0.000438531
0.000727127
0.00107
0.00146377
0.00190407
0.00238531
0.0029004
0.00344058
0.00399531
0.00455242
0.00509807
0.00561731
0.00609461
0.00651475
0.00686393
0.00713118
0.00730992
0.00739954
0.00740746
0.00735199
0.0072569
0.0071249
0.000235393
7.54144e-05
-7.43158e-06
-4.73783e-05
-4.18806e-05
1.62769e-05
0.000129567
0.000298442
0.000522519
0.000800673
0.00113101
0.00151074
0.001936
0.00240159
0.0029008
0.00342519
0.00396463
0.0045071
0.00503908
0.00554588
0.00601226
0.00642333
0.00676574
0.00702903
0.00720708
0.00729931
0.00731234
0.00726231
0.00716237
0.00698581
0.000326324
0.000117822
2.14462e-05
-2.11301e-05
-1.55708e-05
4.258e-05
0.000154221
0.000319223
0.000537348
0.000807959
0.00112977
0.00150061
0.00191721
0.00237488
0.00286737
0.00338659
0.00392259
0.00446343
0.00499549
0.00550379
0.00597266
0.00638665
0.00673182
0.00699718
0.00717603
0.00726703
0.0072758
0.00721713
0.00709772
0.00686916
0.000357957
0.000106007
-5.99096e-06
-5.52316e-05
-5.32131e-05
2.45669e-06
0.000111264
0.000272458
0.000485836
0.000751163
0.00106773
0.00143403
0.00184741
0.00230381
0.00279745
0.00332057
0.00386335
0.00441375
0.00495771
0.00547948
0.00596233
0.00638957
0.00674587
0.00701895
0.00720101
0.00728979
0.00729027
0.00721717
0.00707441
0.00679863
0.000312118
2.30975e-05
-0.000104584
-0.000162455
-0.000166031
-0.00011431
-8.89222e-06
0.000148976
0.000359141
0.00062176
0.000936713
0.00130317
0.00171921
0.00218141
0.00268454
0.00322118
0.00378158
0.0043534
0.00492181
0.00546985
0.0059791
0.00643083
0.00680757
0.00709501
0.00728376
0.00737061
0.00736049
0.00726944
0.00710132
0.00678313
0.000179012
-0.000141994
-0.000284731
-0.000351954
-0.000362024
-0.000314847
-0.000212809
-5.74895e-05
0.000151086
0.000413516
0.000730324
0.00110145
0.00152576
0.00200062
0.00252141
0.00308113
0.00367007
0.00427545
0.00488143
0.00546934
0.00601843
0.00650712
0.00691485
0.00722449
0.00742452
0.00751073
0.0074886
0.00737677
0.00718117
0.00682239
-4.73122e-05
-0.000397515
-0.000554782
-0.00063152
-0.000648347
-0.000605794
-0.00050683
-0.000353233
-0.000144803
0.00011959
0.000441217
0.000820905
0.00125848
0.00175223
0.00229834
0.00289036
0.00351869
0.00417013
0.00482756
0.00547018
0.0060742
0.00661422
0.00706551
0.00740702
0.00762432
0.00771199
0.00767661
0.00754075
0.00731407
0.00691229
-0.000371613
-0.000750614
-0.000922451
-0.00100885
-0.00103254
-0.000994575
-0.000898417
-0.000745964
-0.000536705
-0.000268874
5.96875e-05
0.000450869
0.000905667
0.00142355
0.00200179
0.00263474
0.00331314
0.0040235
0.00474731
0.00546127
0.00613777
0.00674646
0.00725699
0.00764286
0.00788551
0.00797773
0.00792759
0.00776305
0.00749924
0.00704733
-0.000798865
-0.00120828
-0.00139541
-0.00149188
-0.00152269
-0.00148945
-0.00139617
-0.00124485
-0.00103459
-0.000762901
-0.000426561
-2.23993e-05
0.00045203
0.000997732
0.00161348
0.00229488
0.0030334
0.00381568
0.00462188
0.00542596
0.00619574
0.00689455
0.00748452
0.00793154
0.0082109
0.00831239
0.00824569
0.00804582
0.00773548
0.00722094
-0.00133502
-0.00177806
-0.00198181
-0.00208912
-0.00212762
-0.00209966
-0.00200991
-0.00186054
-0.00165027
-0.00137573
-0.00103251
-0.000615899
-0.000121645
0.000453243
0.00110961
0.00184497
0.00265215
0.00351879
0.00442404
0.0053392
0.00622691
0.00704267
0.00773865
0.00827001
0.00860273
0.00872127
0.00863636
0.00839202
0.00802135
0.00742478
-0.00198741
-0.00246854
-0.00269082
-0.00281009
-0.00285721
-0.00283557
-0.00275073
-0.00260518
-0.00239727
-0.00212274
-0.00177577
-0.00134988
-0.000838631
-0.000236507
0.000460123
0.00125156
0.00213291
0.00309448
0.00411496
0.00516371
0.00619804
0.00716417
0.00800137
0.00864973
0.00906099
0.00921003
0.00910677
0.00880611
0.00835537
0.00764735
-0.00276492
-0.00328977
-0.00353293
-0.00366556
-0.00372254
-0.00370872
-0.00363094
-0.00349222
-0.00329066
-0.00302108
-0.00267619
-0.0022475
-0.00172603
-0.00110319
-0.000371749
0.000472629
0.00142935
0.00249119
0.00364009
0.0048446
0.00605738
0.00721457
0.00823939
0.0090512
0.00957997
0.00978346
0.0096662
0.0092952
0.00873668
0.00787243
-0.00367823
-0.00425361
-0.00452038
-0.00466789
-0.00473606
-0.00473183
-0.00466385
-0.00453605
-0.00434645
-0.00408906
-0.00375513
-0.00333405
-0.00281407
-0.00218303
-0.00142931
-0.0005431
0.000481381
0.0016407
0.00292397
0.00430192
0.00572514
0.00712048
0.00839271
0.00943377
0.0101409
0.010442
0.0103261
0.00987102
0.00916688
0.00807803
-0.00473998
-0.00537422
-0.00566757
-0.00583126
-0.00591167
-0.00591867
-0.00586348
-0.00575144
-0.00558085
-0.00534512
-0.00503423
-0.00463557
-0.00413457
-0.00351527
-0.00276103
-0.00185561
-0.000785535
0.000455061
0.00186464
0.00342155
0.00508017
0.00676247
0.00835527
0.00971689
0.0106973
0.0111732
0.0110982
0.0105526
0.00965383
0.0082368
-0.00596534
-0.00666877
-0.00699172
-0.00717216
-0.00726486
-0.00728388
-0.00724404
-0.00715277
-0.00700912
-0.00680635
-0.00653354
-0.0061765
-0.00571823
-0.00513923
-0.00441779
-0.00353068
-0.00245516
-0.00117272
0.000329736
0.00204594
0.00394382
0.00595127
0.00794475
0.00974728
0.011145
0.0119311
0.0119858
0.011368
0.010218
0.00831955
-0.00737282
-0.00815862
-0.00851383
-0.00870995
-0.0088129
-0.00884275
-0.00881926
-0.00875287
-0.00864404
-0.00848641
-0.00826884
-0.00797636
-0.00759049
-0.00708921
-0.00644677
-0.00563371
-0.00461684
-0.00336157
-0.00184068
-3.02177e-05
0.00206571
0.00440071
0.00686181
0.00924811
0.0112702
0.012594
0.0129602
0.0123508
0.0109018
0.00830352
-0.00898584
-0.0098712
-0.0102602
-0.0104678
-0.0105751
-0.0106108
-0.0106015
-0.0105617
-0.0104939
-0.0103929
-0.0102481
-0.0100451
-0.00976544
-0.00938668
-0.00888139
-0.00821624
-0.00735067
-0.00623651
-0.00482093
-0.00304881
-0.000874612
0.00171299
0.00465303
0.00775862
0.0106739
0.0128916
0.0139098
0.013522
0.0117792
0.00818878
-0.0108353
-0.0118431
-0.012265
-0.0124739
-0.0125731
-0.0126034
-0.0126007
-0.0125845
-0.01256
-0.0125239
-0.0124671
-0.0123771
-0.0122378
-0.0120294
-0.0117268
-0.0112978
-0.0107004
-0.00987839
-0.00875724
-0.00724279
-0.00522298
-0.00258714
0.000721215
0.00460786
0.00870659
0.012316
0.0145614
0.0148509
0.0129669
0.0080323
-0.0129644
-0.0141254
-0.0145733
-0.0147633
-0.0148308
-0.0148345
-0.014822
-0.0148189
-0.0148334
-0.014864
-0.0149041
-0.0149444
-0.0149739
-0.0149789
-0.0149424
-0.0148409
-0.0146399
-0.0142867
-0.013697
-0.012738
-0.0112239
-0.00891074
-0.00553467
-0.000975903
0.00451595
0.0100995
0.0144172
0.0162121
0.0146411
0.0080261
-0.0154368
-0.0167916
-0.0172471
-0.0173795
-0.017374
-0.0173146
-0.0172632
-0.0172518
-0.0172906
-0.0173795
-0.0175143
-0.0176901
-0.0179028
-0.018149
-0.0184253
-0.0187255
-0.0190349
-0.019319
-0.0195034
-0.0194341
-0.0188264
-0.0173338
-0.0143814
-0.0094982
-0.00262653
0.00543134
0.0128488
0.0174131
0.0170851
0.00866837
-0.0183529
-0.0199522
-0.0203719
-0.0203762
-0.0202278
-0.0200459
-0.0199086
-0.0198524
-0.0198871
-0.0200117
-0.0202237
-0.0205222
-0.0209111
-0.0213997
-0.0220028
-0.0227387
-0.0236229
-0.024654
-0.0257848
-0.0268703
-0.0275863
-0.0273336
-0.0253392
-0.0206485
-0.0126901
-0.00194589
0.00952469
0.0184305
0.0208201
0.0110797
-0.0218815
-0.0237769
-0.0240661
-0.0238152
-0.0234089
-0.0230123
-0.0227182
-0.0225616
-0.0225467
-0.0226683
-0.0229221
-0.0233099
-0.0238427
-0.0245426
-0.0254439
-0.0265921
-0.0280374
-0.0298175
-0.0319211
-0.0342224
-0.0363674
-0.0376124
-0.0369201
-0.0328696
-0.0242612
-0.0109786
0.00512643
0.0199134
0.0269026
0.017453
-0.0263291
-0.0285328
-0.0284893
-0.0277566
-0.0269079
-0.0261591
-0.0256063
-0.0252717
-0.0251445
-0.0252086
-0.0254536
-0.0258805
-0.0265045
-0.027358
-0.0284915
-0.029974
-0.0318852
-0.0342954
-0.0372209
-0.0405447
-0.0438863
-0.0464241
-0.0468974
-0.0435022
-0.0344492
-0.0188901
0.00198154
0.0238128
0.0374555
0.0314746
-0.0322905
-0.03464
-0.0338381
-0.0322293
-0.0306513
-0.0293534
-0.028405
-0.0277929
-0.0274773
-0.0274211
-0.0276018
-0.028014
-0.0286728
-0.0296148
-0.0309005
-0.0326119
-0.0348439
-0.037679
-0.041134
-0.045071
-0.0490714
-0.0522946
-0.0531509
-0.0497351
-0.039783
-0.0217864
0.00393549
0.0337053
0.0562311
0.0583421
-0.0410104
-0.0427439
-0.0402889
-0.0371464
-0.0344169
-0.0323047
-0.0307918
-0.0297921
-0.0292146
-0.0289869
-0.0290651
-0.0294306
-0.0300911
-0.03108
-0.0324585
-0.0343073
-0.036716
-0.0397513
-0.0433975
-0.0474593
-0.0514263
-0.0543228
-0.0544835
-0.0497633
-0.0376818
-0.0162336
0.0150998
0.0541498
0.0883704
0.104158
-0.0554609
-0.0538141
-0.0478499
-0.0421384
-0.0376794
-0.0344349
-0.0321863
-0.030718
-0.0298544
-0.0294593
-0.0294559
-0.0298013
-0.0304875
-0.0315378
-0.0330015
-0.0349446
-0.0374303
-0.0404808
-0.0440123
-0.0477338
-0.0510131
-0.0527326
-0.0510232
-0.0435696
-0.0276497
-0.000844275
0.0379971
0.0885649
0.138297
0.176676
-0.0832605
-0.0688357
-0.0562719
-0.0464558
-0.0395269
-0.034864
-0.0318113
-0.0299253
-0.0288753
-0.028438
-0.0284766
-0.0289149
-0.0297238
-0.0309107
-0.0325077
-0.034556
-0.0370787
-0.0400354
-0.0432493
-0.0463045
-0.0484228
-0.048316
-0.0440301
-0.0328755
-0.0117631
0.0224132
0.0718036
0.137335
0.208569
0.29112
-0.135616
-0.0839706
-0.0631527
-0.0475292
-0.0376323
-0.0317658
-0.028379
-0.0265398
-0.0257066
-0.0255585
-0.0259079
-0.026653
-0.0277513
-0.0292002
-0.0310192
-0.0332278
-0.0358137
-0.0386822
-0.0415812
-0.0439889
-0.0449792
-0.0430948
-0.0364144
-0.0219191
0.00405728
0.0459078
0.107942
0.195518
0.304648
0.475632
-0.307621
-0.0933418
-0.0453437
-0.0284578
-0.0200577
-0.0164961
-0.0156682
-0.0161034
-0.0171044
-0.018406
-0.0199069
-0.0215736
-0.023413
-0.0254572
-0.0277465
-0.0303086
-0.0331265
-0.0360914
-0.0389336
-0.0411309
-0.0418055
-0.0395836
-0.0322734
-0.0168956
0.0102774
0.0549056
0.1248
0.238295
0.414182
0.758998
)
;

boundaryField
{
    movingWall
    {
        type            zeroGradient;
    }
    fixedWalls
    {
        type            zeroGradient;
    }
    frontAndBack
    {
        type            empty;
    }
}


// ************************************************************************* //
