/*--------------------------------*- C++ -*----------------------------------*\
  =========                 |
  \\      /  F ield         | OpenFOAM: The Open Source CFD Toolbox
   \\    /   O peration     | Website:  https://openfoam.org
    \\  /    A nd           | Version:  7
     \\/     M anipulation  |
\*---------------------------------------------------------------------------*/
FoamFile
{
    version     2.0;
    format      ascii;
    class       surfaceScalarField;
    location    "2.8";
    object      phi;
}
// * * * * * * * * * * * * * * * * * * * * * * * * * * * * * * * * * * * * * //

dimensions      [0 3 -1 0 0 0 0];

internalField   nonuniform List<scalar> 
1740
(
2.52208e-07
-2.52207e-07
-8.57432e-07
1.10964e-06
-3.31269e-06
2.45527e-06
-6.71322e-06
3.40053e-06
-1.06578e-05
3.94461e-06
-1.483e-05
4.1722e-06
-1.90084e-05
4.17842e-06
-2.30468e-05
4.03836e-06
-2.6847e-05
3.80023e-06
-3.03371e-05
3.49009e-06
-3.34562e-05
3.11905e-06
-3.61458e-05
2.68968e-06
-3.83466e-05
2.20076e-06
-3.9997e-05
1.65041e-06
-4.10352e-05
1.03818e-06
-4.14016e-05
3.66369e-07
-4.10428e-05
-3.58786e-07
-3.99166e-05
-1.12616e-06
-3.79982e-05
-1.9184e-06
-3.52873e-05
-2.71092e-06
-3.18168e-05
-3.47044e-06
-2.76633e-05
-4.15351e-06
-2.29582e-05
-4.70513e-06
-1.79003e-05
-5.05786e-06
-1.27681e-05
-5.13225e-06
-7.92725e-06
-4.84084e-06
-3.82383e-06
-4.10343e-06
-9.41986e-07
-2.88185e-06
3.09637e-07
-1.25163e-06
3.0963e-07
-1.10785e-06
8.55645e-07
-5.13602e-06
5.13781e-06
-1.1781e-05
9.10022e-06
-2.03397e-05
1.19593e-05
-3.00711e-05
1.36761e-05
-4.0334e-05
1.4435e-05
-5.06308e-05
1.44752e-05
-6.05972e-05
1.40048e-05
-6.99682e-05
1.31712e-05
-7.85417e-05
1.20636e-05
-8.61502e-05
1.07275e-05
-9.26422e-05
9.1817e-06
-9.78729e-05
7.43141e-06
-0.000101701
5.47843e-06
-0.00010399
3.32778e-06
-0.000104616
9.92141e-07
-0.000103473
-1.50215e-06
-0.000100483
-4.11631e-06
-9.5612e-05
-6.78917e-06
-8.88851e-05
-9.43778e-06
-8.0404e-05
-1.19515e-05
-7.03691e-05
-1.41884e-05
-5.91022e-05
-1.5972e-05
-4.70679e-05
-1.70922e-05
-3.48874e-05
-1.73128e-05
-2.33342e-05
-1.6394e-05
-1.32939e-05
-1.41438e-05
-5.6649e-06
-1.05108e-05
-1.17857e-06
-5.73797e-06
-8.68946e-07
-2.53899e-06
3.39463e-06
-9.3848e-06
1.19836e-05
-1.96597e-05
1.93751e-05
-3.23851e-05
2.46847e-05
-4.66001e-05
2.78911e-05
-6.14727e-05
2.93076e-05
-7.63397e-05
2.93423e-05
-9.06975e-05
2.83626e-05
-0.000104166
2.66399e-05
-0.00011645
2.43472e-05
-0.000127303
2.15804e-05
-0.000136507
1.83855e-05
-0.000143858
1.47824e-05
-0.000149162
1.07831e-05
-0.000152239
6.40445e-06
-0.000152925
1.67822e-06
-0.000151085
-3.34274e-06
-0.000146626
-8.57506e-06
-0.000139517
-1.38983e-05
-0.000129806
-1.91482e-05
-0.00011765
-2.41079e-05
-0.000103337
-2.85017e-05
-8.73167e-05
-3.19919e-05
-7.02257e-05
-3.41832e-05
-5.28952e-05
-3.46433e-05
-3.63391e-05
-3.29501e-05
-2.16994e-05
-2.87835e-05
-1.01375e-05
-2.20727e-05
-2.66399e-06
-1.32115e-05
-3.53294e-06
-3.68746e-06
7.0821e-06
-1.29152e-05
2.12114e-05
-2.62378e-05
3.26977e-05
-4.23556e-05
4.08025e-05
-6.01135e-05
4.5649e-05
-7.85447e-05
4.77387e-05
-9.68824e-05
4.76799e-05
-0.000114538
4.60181e-05
-0.000131061
4.31626e-05
-0.000146094
3.9381e-05
-0.000159342
3.48282e-05
-0.000170541
2.9584e-05
-0.000179446
2.36881e-05
-0.00018583
1.71669e-05
-0.000189479
1.00531e-05
-0.000190202
2.40122e-06
-0.000187842
-5.70259e-06
-0.000182294
-1.41233e-05
-0.000173522
-2.26697e-05
-0.00016159
-3.10807e-05
-0.000146684
-3.90132e-05
-0.000129153
-4.60326e-05
-0.000109534
-5.16111e-05
-8.85792e-05
-5.51383e-05
-6.72648e-05
-5.59576e-05
-4.67746e-05
-5.34404e-05
-2.84442e-05
-4.71139e-05
-1.36666e-05
-3.68504e-05
-3.77359e-06
-2.31045e-05
-7.30653e-06
-4.54795e-06
1.163e-05
-1.56921e-05
3.23555e-05
-3.15088e-05
4.85144e-05
-5.03911e-05
5.96848e-05
-7.09982e-05
6.62562e-05
-9.22501e-05
6.89906e-05
-0.000113306
6.8736e-05
-0.000133525
6.62369e-05
-0.000152414
6.20518e-05
-0.000169583
5.65498e-05
-0.000184703
4.99482e-05
-0.000197482
4.23632e-05
-0.000207649
3.38554e-05
-0.000214948
2.44659e-05
-0.000219139
1.42433e-05
-0.000220002
3.26486e-06
-0.000217356
-8.34851e-06
-0.000211072
-2.04079e-05
-0.000201097
-3.26443e-05
-0.000187489
-4.46886e-05
-0.000170448
-5.6054e-05
-0.000150357
-6.61242e-05
-0.000127815
-7.41525e-05
-0.000103672
-7.92821e-05
-7.90288e-05
-8.06004e-05
-5.52281e-05
-7.7241e-05
-3.37955e-05
-6.85465e-05
-1.63578e-05
-5.42881e-05
-4.55089e-06
-3.49114e-05
-1.18574e-05
-5.19165e-06
1.68217e-05
-1.78734e-05
4.50372e-05
-3.57465e-05
6.63875e-05
-5.69313e-05
8.08696e-05
-7.99131e-05
8.92379e-05
-0.000103507
9.2585e-05
-0.000126814
9.20422e-05
-0.000149155
8.85777e-05
-0.000170014
8.29116e-05
-0.000188984
7.55191e-05
-0.000205717
6.66816e-05
-0.000219904
5.65504e-05
-0.000231253
4.52045e-05
-0.000239484
3.26961e-05
-0.000244325
1.90848e-05
-0.000245526
4.46607e-06
-0.000242866
-1.10089e-05
-0.000236175
-2.7099e-05
-0.000225364
-4.34547e-05
-0.000210463
-5.95897e-05
-0.000191661
-7.48562e-05
-0.000169357
-8.84285e-05
-0.000144204
-9.93051e-05
-0.000117146
-0.000106341
-8.9424e-05
-0.000108322
-6.25615e-05
-0.000104104
-3.83006e-05
-9.28073e-05
-1.85161e-05
-7.40726e-05
-5.11827e-06
-4.83092e-05
-1.69757e-05
-5.7042e-06
2.25259e-05
-1.9676e-05
5.9009e-05
-3.93207e-05
8.60323e-05
-6.25207e-05
0.00010407
-8.7599e-05
0.000114316
-0.000113273
0.000118259
-0.000138588
0.000117357
-0.000162839
0.000112829
-0.000185499
0.000105572
-0.00020615
9.61702e-05
-0.000224439
8.49706e-05
-0.000240045
7.21556e-05
-0.000252657
5.78167e-05
-0.00026197
4.20091e-05
-0.000267679
2.4794e-05
-0.000269488
6.27507e-06
-0.00026712
-1.33765e-05
-0.000260345
-3.38745e-05
-0.000249009
-5.47905e-05
-0.000233085
-7.55136e-05
-0.000212727
-9.52148e-05
-0.00018833
-0.000112825
-0.000160598
-0.000127037
-0.000130581
-0.000136358
-9.9693e-05
-0.00013921
-6.96835e-05
-0.000134113
-4.25604e-05
-0.00011993
-2.04754e-05
-9.61576e-05
-5.59689e-06
-6.31877e-05
-2.25726e-05
-6.15996e-06
2.86859e-05
-2.13058e-05
7.41548e-05
-4.25904e-05
0.000107317
-6.76804e-05
0.00012916
-9.47455e-05
0.000141381
-0.000122408
0.000145921
-0.000149663
0.000144612
-0.000175785
0.000138951
-0.00020024
0.000130026
-0.00022261
0.000118541
-0.000242542
0.000104902
-0.000259707
8.93207e-05
-0.000273781
7.18907e-05
-0.000284431
5.26589e-05
-0.00029131
3.16737e-05
-0.000294065
9.03002e-06
-0.000292345
-1.5097e-05
-0.000285828
-4.03916e-05
-0.000274265
-6.63528e-05
-0.000257538
-9.22411e-05
-0.000235729
-0.000117024
-0.000209209
-0.000139344
-0.000178721
-0.000157525
-0.000145443
-0.000169636
-0.000111005
-0.000173647
-7.74541e-05
-0.000167664
-4.71351e-05
-0.000150249
-2.25318e-05
-0.000120761
-6.08186e-06
-7.96377e-05
-2.86544e-05
-6.61458e-06
3.53004e-05
-2.29288e-05
9.0469e-05
-4.58531e-05
0.000130241
-7.28446e-05
0.000156151
-0.000101922
0.000170458
-0.000131612
0.000175612
-0.000160864
0.000173864
-0.000188935
0.000167022
-0.000215291
0.000156382
-0.000239523
0.000142772
-0.000261281
0.000126661
-0.000280238
0.000108278
-0.000296057
8.77101e-05
-0.000308379
6.49803e-05
-0.000316809
4.0104e-05
-0.000320923
1.31438e-05
-0.000320274
-1.57458e-05
-0.00031442
-4.62454e-05
-0.000302976
-7.77969e-05
-0.000285683
-0.000109534
-0.000262506
-0.000140201
-0.000233752
-0.000168099
-0.000200187
-0.00019109
-0.000163132
-0.000206692
-0.000124491
-0.000212288
-8.66965e-05
-0.000205459
-5.2543e-05
-0.000184403
-2.49399e-05
-0.000148364
-6.64322e-06
-9.79344e-05
-3.52977e-05
-7.10692e-06
4.24074e-05
-2.46684e-05
0.00010803
-4.93354e-05
0.000154908
-7.83454e-05
0.000185161
-0.000109559
0.000201672
-0.00014141
0.000207463
-0.000172798
0.000205252
-0.000202972
0.000197196
-0.000231404
0.000184814
-0.0002577
0.000169068
-0.000281528
0.000150488
-0.000302566
0.000129316
-0.000320475
0.000105619
-0.00033487
7.93753e-05
-0.000345309
5.05426e-05
-0.000351286
1.91202e-05
-0.000352238
-1.47932e-05
-0.000347568
-5.09157e-05
-0.000336704
-8.86606e-05
-0.000319187
-0.000127052
-0.000294794
-0.000164594
-0.000263703
-0.00019919
-0.000226662
-0.00022813
-0.000185137
-0.000248217
-0.000141367
-0.000256058
-9.8296e-05
-0.00024853
-5.93261e-05
-0.000223373
-2.79484e-05
-0.000179742
-7.33941e-06
-0.000118543
-4.26371e-05
-7.66371e-06
5.00711e-05
-2.66132e-05
0.00012698
-5.32029e-05
0.000181498
-8.44257e-05
0.000216384
-0.000117971
0.000235217
-0.000152171
0.000241663
-0.000185884
0.000238965
-0.000218351
0.000229663
-0.000249064
0.000215528
-0.000277657
0.000197661
-0.000303824
0.000176655
-0.000327266
0.000152759
-0.000347651
0.000126004
-0.00036458
9.63045e-05
-0.000377568
6.353e-05
-0.000386023
2.75756e-05
-0.000389255
-1.15614e-05
-0.000386469
-5.37014e-05
-0.000376854
-9.82757e-05
-0.000359667
-0.000144239
-0.000334397
-0.000189863
-0.000300989
-0.000232598
-0.000260085
-0.000269033
-0.000213263
-0.000295039
-0.000163156
-0.000306165
-0.000113375
-0.000298311
-6.81705e-05
-0.000268578
-3.18647e-05
-0.000216047
-8.23695e-06
-0.000142171
-5.0874e-05
-8.30452e-06
5.83756e-05
-2.88302e-05
0.000147506
-5.75805e-05
0.000210248
-9.12652e-05
0.000250069
-0.000127381
0.000271333
-0.000164152
0.000278434
-0.000200395
0.000275208
-0.000235356
0.000264624
-0.000268558
0.000248729
-0.000299676
0.000228779
-0.000328451
0.000205431
-0.000354626
0.000178934
-0.000377896
0.000149273
-0.000397869
0.000116277
-0.00041403
7.96919e-05
-0.000425714
3.92591e-05
-0.000432096
-5.17891e-06
-0.000432151
-5.36467e-05
-0.000424767
-0.00010566
-0.000408815
-0.000160191
-0.000383359
-0.00021532
-0.000347938
-0.000268019
-0.000302933
-0.000314039
-0.00024993
-0.000348042
-0.000191977
-0.000364118
-0.000133547
-0.00035674
-8.00841e-05
-0.000322041
-3.71473e-05
-0.000258984
-9.43749e-06
-0.000169881
-6.03115e-05
-9.04662e-06
6.74222e-05
-3.13779e-05
0.000169837
-6.25743e-05
0.000241445
-9.9011e-05
0.000286505
-0.000137963
0.000310285
-0.000177537
0.000318007
-0.000216512
0.000314183
-0.000254149
0.000302261
-0.000290019
0.000284599
-0.00032386
0.00026262
-0.000355484
0.000237055
-0.0003847
0.00020815
-0.000411262
0.000175835
-0.000434817
0.000139833
-0.000454857
9.9732e-05
-0.000470663
5.50652e-05
-0.000481289
5.44674e-06
-0.00048547
-4.94655e-05
-0.000481733
-0.000109397
-0.000468447
-0.000173477
-0.000444058
-0.000239708
-0.000407455
-0.000304622
-0.000358476
-0.000363018
-0.000298493
-0.000408025
-0.000230903
-0.000431707
-0.000161244
-0.0004264
-9.66412e-05
-0.000386643
-4.45387e-05
-0.000311087
-1.11158e-05
-0.000203304
-7.14273e-05
-9.90946e-06
7.73317e-05
-3.43192e-05
0.000194247
-6.82941e-05
0.00027542
-0.000107808
0.000326019
-0.000149876
0.000352353
-0.000192478
0.000360609
-0.000234359
0.000356064
-0.000274813
0.000342715
-0.000313476
0.000323262
-0.000350177
0.000299322
-0.000384825
0.000271703
-0.000417332
0.000240657
-0.000447553
0.000206056
-0.000475221
0.000167501
-0.000499888
0.000124398
-0.000520844
7.60211e-05
-0.000537018
2.16212e-05
-0.000546998
-3.94853e-05
-0.000548864
-0.000107531
-0.000540372
-0.000181969
-0.000519126
-0.000260955
-0.000483011
-0.000340737
-0.000430885
-0.000415144
-0.00036348
-0.00047543
-0.000284296
-0.000510891
-0.000200078
-0.000510618
-0.000120281
-0.000466441
-5.52365e-05
-0.000376131
-1.35712e-05
-0.000244969
-8.49985e-05
-1.09195e-05
8.82512e-05
-3.7736e-05
0.000221063
-7.48763e-05
0.00031256
-0.000117825
0.000368968
-0.000163297
0.000397825
-0.000209129
0.000406441
-0.000254044
0.000400979
-0.000297385
0.000386056
-0.000338882
0.000364759
-0.000378479
0.000338919
-0.000416219
0.000309442
-0.000452157
0.000276595
-0.000486298
0.000240197
-0.000518529
0.000199732
-0.000548534
0.000154403
-0.000575693
0.00010318
-0.000598947
4.48757e-05
-0.00061673
-2.17024e-05
-0.000626718
-9.75439e-05
-0.000625963
-0.000182723
-0.00061098
-0.000275937
-0.000578212
-0.000373505
-0.000524909
-0.000468446
-0.000450448
-0.000549891
-0.000357878
-0.000603461
-0.000255086
-0.00061341
-0.000154587
-0.00056694
-7.10843e-05
-0.000459634
-1.72898e-05
-0.000298764
-0.000102288
-1.2116e-05
0.000100367
-4.17447e-05
0.000250692
-8.25086e-05
0.000353324
-0.000129292
0.000415751
-0.000178453
0.000446986
-0.000227677
0.000455665
-0.000275679
0.000448981
-0.000321877
0.000432254
-0.000366123
0.000409005
-0.000408508
0.000381305
-0.000449241
0.000350175
-0.000488563
0.000315917
-0.00052669
0.000278323
-0.000563734
0.000236776
-0.000599614
0.000190284
-0.000633923
0.000137489
-0.000665735
7.66873e-05
-0.000693507
6.06938e-06
-0.000714539
-7.65121e-05
-0.000725204
-0.000172057
-0.000720709
-0.000280433
-0.000695578
-0.000398636
-0.000644672
-0.000519352
-0.000564987
-0.000629576
-0.000458099
-0.00071035
-0.000332511
-0.000738997
-0.000204376
-0.000695075
-9.47228e-05
-0.000569287
-2.30069e-05
-0.00037048
-0.000125295
-1.35594e-05
0.000113927
-4.65177e-05
0.00028365
-9.14603e-05
0.000398267
-0.000142523
0.000466814
-0.000195647
0.00050011
-0.000248362
0.000508381
-0.000299399
0.000500018
-0.000348283
0.000481138
-0.000395018
0.00045574
-0.000439873
0.00042616
-0.000483254
0.000393556
-0.000525629
0.000358293
-0.000567474
0.000320168
-0.000609206
0.000278507
-0.000651087
0.000232165
-0.000693071
0.000179473
-0.000734582
0.000118199
-0.000774098
4.5585e-05
-0.000809082
-4.15282e-05
-0.000835116
-0.000146024
-0.000846067
-0.000269481
-0.000834178
-0.000410526
-0.000791127
-0.000562403
-0.000710281
-0.000710422
-0.000590191
-0.000830439
-0.000438646
-0.000890543
-0.000275301
-0.00085842
-0.000129611
-0.000714977
-3.17657e-05
-0.000468325
-0.000157061
-1.53437e-05
0.00012927
-5.23135e-05
0.00032062
-0.000102121
0.000448075
-0.00015796
0.000522653
-0.000215288
0.000557438
-0.00027149
0.000564583
-0.000325351
0.000553878
-0.000376547
0.000532333
-0.000425268
0.000504461
-0.000471985
0.000472877
-0.000517323
0.000438894
-0.000561998
0.000402968
-0.00060678
0.000364951
-0.000652449
0.000324176
-0.000699698
0.000279414
-0.000748981
0.000228756
-0.000800234
0.000169451
-0.00085243
9.77815e-05
-0.000903145
9.18618e-06
-0.000947669
-0.000101499
-0.000978712
-0.000238439
-0.000986177
-0.00040306
-0.000958075
-0.000590505
-0.000882985
-0.000785512
-0.000754485
-0.000958939
-0.000577213
-0.00106781
-0.000372627
-0.00106301
-0.000179818
-0.000907786
-4.49915e-05
-0.000603151
-0.000202053
-1.76179e-05
0.000146888
-5.95223e-05
0.000362524
-0.000115054
0.000503607
-0.00017621
0.000583808
-0.000237902
0.00061913
-0.000297412
0.000624093
-0.000353645
0.000610112
-0.000406485
0.000585173
-0.000456345
0.000554321
-0.000503913
0.000520445
-0.000550036
0.000485016
-0.000595673
0.000448605
-0.000641889
0.000411167
-0.000689831
0.000372117
-0.000740665
0.000330248
-0.000795426
0.000283518
-0.000854729
0.000228754
-0.000918282
0.000161335
-0.00098412
7.50239e-05
-0.00104783
-3.77904e-05
-0.0011015
-0.000184772
-0.00113326
-0.000371294
-0.00112772
-0.000596047
-0.00106815
-0.000845086
-0.000941297
-0.00108579
-0.000745169
-0.00126394
-0.000498826
-0.00130935
-0.000249435
-0.00115718
-6.46261e-05
-0.00078796
-0.000266679
-2.06238e-05
0.000167512
-6.87377e-05
0.000410638
-0.000131063
0.000565932
-0.000198075
0.00065082
-0.000264113
0.000685168
-0.000326446
0.000686426
-0.000384212
0.000667878
-0.000437582
0.000638543
-0.000487233
0.000603972
-0.000534078
0.00056729
-0.000579164
0.000530102
-0.000623658
0.000493099
-0.000668862
0.000456372
-0.000716232
0.000419487
-0.000767346
0.000381362
-0.000823795
0.000339967
-0.000886913
0.000291871
-0.000957279
0.0002317
-0.00103393
0.000151674
-0.00111317
4.14495e-05
-0.00118764
-0.000110303
-0.00124511
-0.000313821
-0.00126813
-0.000573027
-0.00123544
-0.000877773
-0.00112608
-0.00119515
-0.000927604
-0.00146242
-0.000649777
-0.00158718
-0.000341234
-0.00146572
-9.32925e-05
-0.0010359
-0.000359971
-2.47673e-05
0.000192279
-8.08742e-05
0.000466745
-0.000151287
0.000636345
-0.000224571
0.000724104
-0.000294549
0.000755145
-0.00035867
0.000750548
-0.000416486
0.000725694
-0.000468569
0.000690626
-0.000515912
0.000651314
-0.000559656
0.000611034
-0.000601018
0.000571464
-0.000641301
0.000533382
-0.000681943
0.000497013
-0.000724565
0.000462109
-0.000770991
0.000427788
-0.00082319
0.000392166
-0.000883084
0.000351766
-0.000952131
0.000300747
-0.0010306
0.000230138
-0.00111657
0.000127427
-0.00120389
-2.29866e-05
-0.00128268
-0.000235032
-0.00133584
-0.000519871
-0.00134013
-0.000873475
-0.00126792
-0.00126736
-0.00109378
-0.00163656
-0.000809987
-0.00187097
-0.000453863
-0.00182184
-0.000134168
-0.0013556
-0.000494139
-3.0759e-05
0.000223038
-9.73644e-05
0.00053335
-0.000177308
0.000716288
-0.000256864
0.00080366
-0.000329577
0.000827859
-0.000393453
0.000814424
-0.000448738
0.000780978
-0.000496576
0.000738464
-0.000538357
0.000693095
-0.000575472
0.000648149
-0.000609277
0.000605269
-0.000641138
0.000565243
-0.000672502
0.000528377
-0.000704969
0.000494576
-0.000740356
0.000463174
-0.000780707
0.000432518
-0.000828225
0.000399284
-0.000885033
0.000357554
-0.000952685
0.000297791
-0.00103138
0.000206121
-0.00111862
6.42529e-05
-0.00120744
-0.000146214
-0.0012855
-0.000441808
-0.00133153
-0.000827445
-0.00131481
-0.00128409
-0.00119773
-0.00175364
-0.000948843
-0.00211985
-0.000577383
-0.0021933
-0.000189864
-0.00174312
-0.000684003
-3.99022e-05
0.00026294
-0.000120488
0.000613936
-0.000211254
0.000807054
-0.000296007
0.000888413
-0.000368666
0.000900518
-0.000428447
0.000874205
-0.000476739
0.000829271
-0.000515516
0.000777241
-0.000546697
0.000724276
-0.000571988
0.00067344
-0.000592899
0.00062618
-0.000610819
0.000583164
-0.000627106
0.000544664
-0.000643166
0.000510637
-0.000660555
0.000480562
-0.000681057
0.000453019
-0.00070676
0.000424988
-0.000740069
0.000390863
-0.000783575
0.000341297
-0.000839702
0.000262248
-0.000910221
0.000134772
-0.000993237
-6.31984e-05
-0.00108389
-0.000351159
-0.00116758
-0.000743748
-0.00121664
-0.00123503
-0.00118657
-0.0017837
-0.00102192
-0.00228451
-0.000689
-0.00252622
-0.000259611
-0.0021725
-0.000943615
-5.46786e-05
0.000317619
-0.000153879
0.000713137
-0.000255711
0.000908885
-0.000342119
0.000974822
-0.000408839
0.000967237
-0.000457425
0.000922792
-0.000491085
0.000862931
-0.000513003
0.000799158
-0.000525857
0.000737131
-0.000531802
0.000679384
-0.000532574
0.000626953
-0.000529612
0.000580202
-0.000524146
0.000539198
-0.0005173
0.000503791
-0.000510203
0.000473466
-0.000504136
0.000446953
-0.000500731
0.000421583
-0.000502231
0.000392362
-0.000511761
0.000350827
-0.000533523
0.00028401
-0.000572849
0.000174098
-0.000634119
-1.92841e-06
-0.000720983
-0.000264294
-0.000829172
-0.000635559
-0.000941075
-0.00112313
-0.00101506
-0.00170972
-0.000979657
-0.00231991
-0.000752608
-0.00275327
-0.000334975
-0.00259014
-0.00127859
-7.98922e-05
0.000397511
-0.000203083
0.000836328
-0.000312773
0.00101858
-0.00039186
0.00105391
-0.00044083
0.00101621
-0.000465411
0.000947372
-0.000471621
0.000869141
-0.000464394
0.000791931
-0.000447471
0.000720208
-0.000423619
0.000655533
-0.000394891
0.000598225
-0.000362802
0.000548112
-0.000328461
0.000504858
-0.000292673
0.000468002
-0.000256104
0.000436897
-0.000219437
0.000410286
-0.000183674
0.000385819
-0.000150565
0.000359254
-0.00012322
0.000323481
-0.00010675
0.000267541
-0.000108615
0.000175963
-0.000139409
2.88656e-05
-0.000208005
-0.000195698
-0.000322993
-0.00052057
-0.000482054
-0.000964068
-0.000658115
-0.00153366
-0.000779665
-0.00219836
-0.000724102
-0.00280883
-0.000396152
-0.00291809
-0.00167474
-0.000124719
0.00052223
-0.000275053
0.000986663
-0.000379449
0.00112297
-0.000430455
0.00110491
-0.000438756
0.00102451
-0.000417022
0.000925639
-0.000375347
0.000827466
-0.000320923
0.000737507
-0.000258726
0.000658011
-0.00019206
0.000588866
-0.000123166
0.000529331
-5.34815e-05
0.000478428
1.61486e-05
0.000435228
8.52657e-05
0.000398885
0.000153741
0.000368422
0.000221473
0.000342553
0.000288099
0.000319193
0.000352484
0.00029487
0.000411985
0.00026398
0.000461531
0.000217995
0.000492627
0.000144866
0.000492325
2.91676e-05
0.000445836
-0.000149209
0.000335755
-0.000410489
0.000149096
-0.000777409
-0.000109814
-0.00127475
-0.000391272
-0.0019169
-0.000558216
-0.00264189
-0.000414254
-0.00306205
-0.002089
-0.000205767
0.000727997
-0.000369695
0.00115059
-0.000428237
0.00118151
-0.000405613
0.00108229
-0.000331377
0.000950273
-0.000228074
0.000822335
-0.000110212
0.000709605
1.32725e-05
0.000614022
0.000137211
0.000534073
0.000258521
0.000467556
0.00037562
0.000412233
0.000487805
0.000366243
0.000594959
0.000328074
0.000697374
0.00029647
0.000795539
0.000270257
0.000889969
0.000248123
0.000980879
0.000228283
0.00106769
0.000208055
0.00114833
0.000183342
0.00121821
0.000148116
0.001269
9.40796e-05
0.0012869
1.12621e-05
0.00125535
-0.000117654
0.00115117
-0.000306308
0.000949409
-0.00057565
0.000631152
-0.000956494
0.000210309
-0.00149606
-0.000204609
-0.00222697
-0.000347585
-0.00291907
-0.00243658
-0.000336562
0.00106456
-0.000420542
0.00123457
-0.000328809
0.00108978
-0.000146457
0.000899938
7.11431e-05
0.000732673
0.00029587
0.000597608
0.000513763
0.000491711
0.000718727
0.000409059
0.000908597
0.000344202
0.00108324
0.000292914
0.00124343
0.000252038
0.00139042
0.000219258
0.00152564
0.000192857
0.00165059
0.000171519
0.00176671
0.000154136
0.00187521
0.00013962
0.00197682
0.00012667
0.00207136
0.000113516
0.00215712
9.75874e-05
0.00223002
7.52111e-05
0.00228233
4.17716e-05
0.00230164
-8.05006e-06
0.00226997
-8.59857e-05
0.00216268
-0.000199012
0.00194881
-0.000361782
0.00159236
-0.000600049
0.00106225
-0.000965942
0.000413086
-0.00157781
-7.8698e-05
-0.00242729
-0.00251528
-0.000297063
0.00136162
-3.66022e-05
0.00097411
0.000401262
0.000651916
0.00082731
0.00047389
0.00121014
0.000349842
0.00154561
0.000262142
0.00183636
0.000200953
0.00208767
0.000157755
0.00230537
0.0001265
0.00249489
0.000103391
0.00266091
8.60202e-05
0.00280738
7.279e-05
0.00293763
6.26081e-05
0.00305445
5.46972e-05
0.00316013
4.84543e-05
0.00325642
4.33363e-05
0.00334434
3.87499e-05
0.00342391
3.39442e-05
0.00349358
2.79118e-05
0.00354945
1.9348e-05
0.0035845
6.71324e-06
0.00359005
-1.35916e-05
0.00354762
-4.35628e-05
0.00343458
-8.59709e-05
0.00321981
-0.000147014
0.00285971
-0.000239947
0.00229233
-0.000398563
0.00146607
-0.000751547
0.000495624
-0.00145684
-0.00201965
0.00136162
0.00233573
0.00298765
0.00346154
0.00381138
0.00407352
0.00427448
0.00443223
0.00455873
0.00466212
0.00474814
0.00482093
0.00488354
0.00493824
0.00498669
0.00503003
0.00506878
0.00510272
0.00513063
0.00514998
0.00515669
0.0051431
0.00509954
0.00501357
0.00486655
0.00462661
0.00422804
0.0034765
0.00201965
)
;

boundaryField
{
    movingWall
    {
        type            calculated;
        value           uniform 0;
    }
    fixedWalls
    {
        type            calculated;
        value           uniform 0;
    }
    frontAndBack
    {
        type            empty;
        value           nonuniform 0();
    }
}


// ************************************************************************* //
