/*--------------------------------*- C++ -*----------------------------------*\
  =========                 |
  \\      /  F ield         | OpenFOAM: The Open Source CFD Toolbox
   \\    /   O peration     | Website:  https://openfoam.org
    \\  /    A nd           | Version:  7
     \\/     M anipulation  |
\*---------------------------------------------------------------------------*/
FoamFile
{
    version     2.0;
    format      ascii;
    class       volVectorField;
    location    "2.8";
    object      U;
}
// * * * * * * * * * * * * * * * * * * * * * * * * * * * * * * * * * * * * * //

dimensions      [0 1 -1 0 0 0 0];

internalField   nonuniform List<vector> 
900
(
(5.69452e-05 -5.62888e-05 0)
(9.89583e-06 1.91949e-05 0)
(-0.000307265 0.000102669 0)
(-0.000810226 0.000158511 0)
(-0.00143407 0.000188342 0)
(-0.00211977 0.000199437 0)
(-0.0028224 0.000198849 0)
(-0.00351179 0.000191537 0)
(-0.00416834 0.000180292 0)
(-0.00477846 0.00016635 0)
(-0.00533149 0.000150023 0)
(-0.00581771 0.000131158 0)
(-0.00622738 0.000109436 0)
(-0.00655043 8.45436e-05 0)
(-0.0067765 5.628e-05 0)
(-0.00689538 2.46208e-05 0)
(-0.00689752 -1.0224e-05 0)
(-0.00677476 -4.78036e-05 0)
(-0.00652129 -8.72944e-05 0)
(-0.00613475 -0.000127479 0)
(-0.00561756 -0.000166662 0)
(-0.00497846 -0.000202573 0)
(-0.00423439 -0.000232247 0)
(-0.00341247 -0.000251889 0)
(-0.00255222 -0.000256707 0)
(-0.00170746 -0.000240856 0)
(-0.0009466 -0.000198123 0)
(-0.000346971 -0.000124188 0)
(1.74745e-05 -2.23753e-05 0)
(6.61554e-05 6.45932e-05 0)
(-1.76689e-05 -1.10588e-05 0)
(-0.000390359 0.0003887 0)
(-0.00131809 0.000781264 0)
(-0.0026182 0.00106207 0)
(-0.00416891 0.00122735 0)
(-0.0058573 0.00129875 0)
(-0.00758758 0.00130247 0)
(-0.00928852 0.00126012 0)
(-0.0109091 0.00118615 0)
(-0.0124117 0.00108874 0)
(-0.0137663 0.000971642 0)
(-0.0149471 0.000836026 0)
(-0.0159294 0.000681836 0)
(-0.0166896 0.000508766 0)
(-0.0172042 0.000316894 0)
(-0.0174515 0.000107109 0)
(-0.0174117 -0.00011857 0)
(-0.0170691 -0.00035652 0)
(-0.0164141 -0.000601331 0)
(-0.0154451 -0.000845378 0)
(-0.014172 -0.0010784 0)
(-0.0126191 -0.00128707 0)
(-0.010829 -0.00145466 0)
(-0.00886659 -0.00156083 0)
(-0.00682193 -0.00158205 0)
(-0.0048123 -0.00149329 0)
(-0.00297872 -0.00127287 0)
(-0.00146898 -0.000912635 0)
(-0.000420615 -0.000437539 0)
(-1.40674e-05 1.93033e-05 0)
(-0.000104932 0.000308504 0)
(-0.000810142 0.00132299 0)
(-0.00229525 0.00223373 0)
(-0.00425978 0.00289391 0)
(-0.00654057 0.00329358 0)
(-0.00899461 0.00347178 0)
(-0.0114966 0.00348092 0)
(-0.0139497 0.00336783 0)
(-0.0162819 0.0031665 0)
(-0.0184387 0.00289809 0)
(-0.0203758 0.00257387 0)
(-0.0220555 0.00219886 0)
(-0.0234428 0.00177489 0)
(-0.0245047 0.00130288 0)
(-0.0252098 0.000784433 0)
(-0.025529 0.000222979 0)
(-0.0254371 -0.000375297 0)
(-0.0249144 -0.00100045 0)
(-0.02395 -0.00163813 0)
(-0.0225443 -0.0022685 0)
(-0.0207134 -0.00286534 0)
(-0.0184933 -0.00339511 0)
(-0.0159444 -0.00381641 0)
(-0.0131564 -0.00408035 0)
(-0.0102514 -0.00413274 0)
(-0.00738489 -0.00391973 0)
(-0.00473969 -0.00339979 0)
(-0.00250274 -0.00256427 0)
(-0.000857725 -0.00146961 0)
(-0.000103327 -0.000320464 0)
(-0.000170838 0.000838316 0)
(-0.00115362 0.0026846 0)
(-0.00311359 0.00423128 0)
(-0.00562811 0.00533616 0)
(-0.00849376 0.00600247 0)
(-0.0115448 0.00629512 0)
(-0.0146367 0.00629718 0)
(-0.0176572 0.00608385 0)
(-0.0205216 0.00571133 0)
(-0.0231643 0.00521598 0)
(-0.0255322 0.00461847 0)
(-0.0275793 0.0039291 0)
(-0.029264 0.00315272 0)
(-0.0305467 0.00229242 0)
(-0.0313906 0.00135224 0)
(-0.0317616 0.000339219 0)
(-0.0316302 -0.000734975 0)
(-0.0309737 -0.00185253 0)
(-0.0297798 -0.00298785 0)
(-0.0280494 -0.00410598 0)
(-0.0258024 -0.00516099 0)
(-0.023082 -0.00609463 0)
(-0.0199608 -0.00683584 0)
(-0.0165454 -0.00730202 0)
(-0.0129797 -0.00740361 0)
(-0.00944573 -0.00705421 0)
(-0.00615638 -0.00618913 0)
(-0.00332966 -0.00479385 0)
(-0.00119325 -0.00294248 0)
(-0.000164121 -0.000869588 0)
(-0.000216274 0.00153251 0)
(-0.00141649 0.00439797 0)
(-0.00376476 0.00667876 0)
(-0.0067297 0.00827401 0)
(-0.0100691 0.00922207 0)
(-0.0135966 0.00962526 0)
(-0.0171529 0.00960313 0)
(-0.0206156 0.00926221 0)
(-0.0238924 0.00868263 0)
(-0.0269117 0.0079172 0)
(-0.0296147 0.00699685 0)
(-0.0319508 0.00593787 0)
(-0.0338734 0.00474864 0)
(-0.0353387 0.00343485 0)
(-0.036305 0.00200335 0)
(-0.0367339 0.000465115 0)
(-0.0365913 -0.00116221 0)
(-0.0358504 -0.00285198 0)
(-0.0344952 -0.004566 0)
(-0.0325248 -0.00625215 0)
(-0.0299593 -0.00784194 0)
(-0.0268455 -0.0092488 0)
(-0.0232642 -0.0103678 0)
(-0.0193349 -0.011078 0)
(-0.0152202 -0.0112504 0)
(-0.011126 -0.0107616 0)
(-0.00729388 -0.00951918 0)
(-0.00397383 -0.00749493 0)
(-0.00143663 -0.00476567 0)
(-0.000200543 -0.00157113 0)
(-0.000247311 0.00234976 0)
(-0.00161705 0.00639521 0)
(-0.00428256 0.00950029 0)
(-0.0076216 0.0116276 0)
(-0.0113563 0.0128692 0)
(-0.0152802 0.0133768 0)
(-0.0192214 0.0133136 0)
(-0.0230497 0.0128213 0)
(-0.0266685 0.0120058 0)
(-0.0300027 0.0109372 0)
(-0.0329911 0.00965716 0)
(-0.0355797 0.00818795 0)
(-0.037719 0.0065414 0)
(-0.0393614 0.00472549 0)
(-0.0404609 0.00274951 0)
(-0.0409735 0.000628029 0)
(-0.0408594 -0.00161561 0)
(-0.0400849 -0.00394576 0)
(-0.0386275 -0.00631093 0)
(-0.0364804 -0.00864013 0)
(-0.0336602 -0.0108396 0)
(-0.0302139 -0.0127903 0)
(-0.0262276 -0.0143483 0)
(-0.0218332 -0.0153488 0)
(-0.0172125 -0.0156168 0)
(-0.0125986 -0.0149865 0)
(-0.00826655 -0.0133314 0)
(-0.00450277 -0.0106034 0)
(-0.00162088 -0.00687366 0)
(-0.000221942 -0.00238125 0)
(-0.000270232 0.00326087 0)
(-0.00177898 0.00862316 0)
(-0.00471463 0.012635 0)
(-0.00837893 0.0153346 0)
(-0.0124615 0.016882 0)
(-0.0167365 0.0174897 0)
(-0.02102 0.0173717 0)
(-0.0251758 0.0167092 0)
(-0.0291043 0.0156361 0)
(-0.032729 0.0142408 0)
(-0.0359875 0.0125754 0)
(-0.0388246 0.0106679 0)
(-0.0411882 0.00853298 0)
(-0.0430272 0.00617981 0)
(-0.0442908 0.00361898 0)
(-0.0449283 0.000867384 0)
(-0.0448915 -0.00204699 0)
(-0.0441369 -0.0050803 0)
(-0.042631 -0.00816757 0)
(-0.0403568 -0.0112176 0)
(-0.0373224 -0.0141082 0)
(-0.0335713 -0.0166829 0)
(-0.0291927 -0.0187519 0)
(-0.0243313 -0.0200979 0)
(-0.0191922 -0.0204915 0)
(-0.0140423 -0.0197163 0)
(-0.00919868 -0.0176061 0)
(-0.00499195 -0.0140889 0)
(-0.00178048 -0.00922979 0)
(-0.000236463 -0.00327507 0)
(-0.000289932 0.00425051 0)
(-0.00192372 0.0110517 0)
(-0.00510721 0.0160481 0)
(-0.00907462 0.0193609 0)
(-0.0134852 0.0212289 0)
(-0.0180945 0.0219354 0)
(-0.0227069 0.0217527 0)
(-0.0271809 0.0209063 0)
(-0.0314149 0.0195604 0)
(-0.0353325 0.0178225 0)
(-0.0388713 0.0157553 0)
(-0.0419756 0.0133917 0)
(-0.0445918 0.0107477 0)
(-0.0466654 0.00783233 0)
(-0.0481398 0.00465532 0)
(-0.0489564 0.00123377 0)
(-0.0490556 -0.0024019 0)
(-0.0483801 -0.00620134 0)
(-0.0468806 -0.0100868 0)
(-0.0445238 -0.0139457 0)
(-0.0413036 -0.017624 0)
(-0.0372544 -0.0209213 0)
(-0.0324661 -0.0235921 0)
(-0.0270965 -0.0253551 0)
(-0.0213797 -0.0259138 0)
(-0.0156263 -0.0249908 0)
(-0.0102077 -0.0223733 0)
(-0.00551043 -0.0179652 0)
(-0.00194396 -0.0118326 0)
(-0.000249515 -0.00424617 0)
(-0.000309703 0.00531438 0)
(-0.00206786 0.0136717 0)
(-0.0054983 0.0197299 0)
(-0.00976961 0.0236982 0)
(-0.0145113 0.0259042 0)
(-0.0194601 0.0267112 0)
(-0.0244093 0.0264576 0)
(-0.0292124 0.0254176 0)
(-0.0337672 0.023789 0)
(-0.0379981 0.0216992 0)
(-0.0418441 0.0192212 0)
(-0.0452502 0.0163919 0)
(-0.0481619 0.0132269 0)
(-0.0505217 0.00973274 0)
(-0.0522669 0.00591555 0)
(-0.0533291 0.00178925 0)
(-0.0536351 -0.00261667 0)
(-0.0531093 -0.00724851 0)
(-0.0516804 -0.0120175 0)
(-0.0492915 -0.0167895 0)
(-0.045914 -0.0213746 0)
(-0.0415658 -0.0255204 0)
(-0.0363319 -0.028913 0)
(-0.0303831 -0.0311902 0)
(-0.0239881 -0.0319709 0)
(-0.0175139 -0.0309009 0)
(-0.0114045 -0.0277133 0)
(-0.00611998 -0.0222904 0)
(-0.00213364 -0.0147129 0)
(-0.000264076 -0.00530188 0)
(-0.000331622 0.006456 0)
(-0.00222328 0.0164903 0)
(-0.00591652 0.02369 0)
(-0.0105105 0.0283586 0)
(-0.0156036 0.0309218 0)
(-0.0209133 0.0318331 0)
(-0.0262218 0.0315043 0)
(-0.0313783 0.0302644 0)
(-0.0362807 0.0283472 0)
(-0.040856 0.0259012 0)
(-0.0450461 0.02301 0)
(-0.048798 0.019713 0)
(-0.0520579 0.0160237 0)
(-0.0547661 0.0119428 0)
(-0.056854 0.0074693 0)
(-0.0582426 0.0026094 0)
(-0.0588426 -0.00261341 0)
(-0.0585556 -0.00814709 0)
(-0.0572814 -0.0138956 0)
(-0.0549299 -0.0197043 0)
(-0.0514389 -0.0253443 0)
(-0.046798 -0.0305015 0)
(-0.0410778 -0.0347771 0)
(-0.0344578 -0.0377053 0)
(-0.0272462 -0.0387938 0)
(-0.0198823 -0.0375895 0)
(-0.0129075 -0.0337588 0)
(-0.00688324 -0.027167 0)
(-0.00236943 -0.0179315 0)
(-0.000281639 -0.00645968 0)
(-0.000356987 0.0076842 0)
(-0.00239831 0.0195264 0)
(-0.00638274 0.027953 0)
(-0.0113315 0.033369 0)
(-0.0168087 0.0363096 0)
(-0.0225115 0.0373289 0)
(-0.0282105 0.0369214 0)
(-0.0337516 0.0354765 0)
(-0.0390344 0.0332677 0)
(-0.0439901 0.0304662 0)
(-0.0485655 0.0271657 0)
(-0.0527121 0.0234072 0)
(-0.0563787 0.0191995 0)
(-0.0595054 0.0145347 0)
(-0.0620193 0.00939951 0)
(-0.0638311 0.00378667 0)
(-0.0648339 -0.0022934 0)
(-0.0649024 -0.0087981 0)
(-0.0638997 -0.0156307 0)
(-0.0616912 -0.0226202 0)
(-0.0581654 -0.0294972 0)
(-0.0532656 -0.0358766 0)
(-0.0470311 -0.0412539 0)
(-0.0396387 -0.0450284 0)
(-0.0314369 -0.0465593 0)
(-0.0229552 -0.0452584 0)
(-0.0148673 -0.0407046 0)
(-0.00787877 -0.0327508 0)
(-0.00267477 -0.0215827 0)
(-0.000303257 -0.00774665 0)
(-0.000386683 0.00901154 0)
(-0.00259916 0.0228079 0)
(-0.00691275 0.0325543 0)
(-0.0122584 0.0387672 0)
(-0.018161 0.0421045 0)
(-0.0242952 0.043234 0)
(-0.0304202 0.0427428 0)
(-0.0363793 0.0410878 0)
(-0.0420758 0.0385861 0)
(-0.0474475 0.0354335 0)
(-0.0524489 0.0317341 0)
(-0.0570392 0.0275294 0)
(-0.0611732 0.0228214 0)
(-0.0647944 0.0175895 0)
(-0.0678284 0.0118032 0)
(-0.0701779 0.00543393 0)
(-0.0717193 -0.00153049 0)
(-0.0722973 -0.00906672 0)
(-0.0717306 -0.0170899 0)
(-0.0698272 -0.0254214 0)
(-0.0664056 -0.0337547 0)
(-0.0613368 -0.0416256 0)
(-0.0545991 -0.0484012 0)
(-0.0463429 -0.0533051 0)
(-0.0369478 -0.0554924 0)
(-0.0270505 -0.0541827 0)
(-0.0175035 -0.0488288 0)
(-0.00922344 -0.0392709 0)
(-0.00308521 -0.0258079 0)
(-0.000330761 -0.00920271 0)
(-0.000421492 0.0104535 0)
(-0.00283131 0.0263697 0)
(-0.00752021 0.0375378 0)
(-0.0133126 0.0445984 0)
(-0.0196876 0.0483492 0)
(-0.026295 0.0495869 0)
(-0.0328817 0.0490033 0)
(-0.0392902 0.0471311 0)
(-0.0454299 0.0443357 0)
(-0.0512482 0.0408398 0)
(-0.0567112 0.0367587 0)
(-0.0617897 0.0321338 0)
(-0.0664495 0.0269584 0)
(-0.0706426 0.0211956 0)
(-0.0742991 0.0147914 0)
(-0.0773189 0.00768746 0)
(-0.0795641 -0.000162901 0)
(-0.0808511 -0.00876925 0)
(-0.0809493 -0.0180781 0)
(-0.0795939 -0.0279203 0)
(-0.0765088 -0.0379635 0)
(-0.0714551 -0.0476638 0)
(-0.064305 -0.0562376 0)
(-0.055136 -0.0626817 0)
(-0.0443302 -0.0658683 0)
(-0.0326395 -0.0647323 0)
(-0.0211549 -0.0585274 0)
(-0.011104 -0.0470664 0)
(-0.00366046 -0.0308211 0)
(-0.000368442 -0.0108891 0)
(-0.00046236 0.0120283 0)
(-0.00310086 0.0302534 0)
(-0.00821973 0.0429548 0)
(-0.014516 0.0509142 0)
(-0.0214149 0.0550897 0)
(-0.0285375 0.0564262 0)
(-0.0356189 0.0557351 0)
(-0.0425023 0.0536341 0)
(-0.0491063 0.0505429 0)
(-0.0553921 0.0467143 0)
(-0.0613413 0.0422757 0)
(-0.0669421 0.0372687 0)
(-0.0721772 0.0316767 0)
(-0.077015 0.0254437 0)
(-0.0813987 0.0184871 0)
(-0.0852343 0.0107094 0)
(-0.0883767 0.00201555 0)
(-0.0906214 -0.00765975 0)
(-0.0916894 -0.0183178 0)
(-0.0912291 -0.029827 0)
(-0.0888419 -0.0418562 0)
(-0.0841312 -0.0537954 0)
(-0.0767945 -0.0646966 0)
(-0.0667599 -0.0732725 0)
(-0.0543474 -0.0780037 0)
(-0.0404089 -0.0773943 0)
(-0.0263379 -0.0703636 0)
(-0.0138173 -0.0566438 0)
(-0.00450073 -0.0369534 0)
(-0.000425431 -0.0129047 0)
(-0.000510684 0.0137581 0)
(-0.00341601 0.0345086 0)
(-0.00902987 0.0488649 0)
(-0.0158952 0.0577713 0)
(-0.0233728 0.0623734 0)
(-0.0310515 0.0637882 0)
(-0.0386543 0.0629641 0)
(-0.0460283 0.0606155 0)
(-0.0531048 0.057223 0)
(-0.059863 0.0530728 0)
(-0.0663059 0.0483071 0)
(-0.0724443 0.0429687 0)
(-0.078286 0.0370314 0)
(-0.083825 0.0304188 0)
(-0.0890291 0.0230156 0)
(-0.0938246 0.0146769 0)
(-0.0980764 0.0052437 0)
(-0.101571 -0.00543119 0)
(-0.103988 -0.0174361 0)
(-0.104884 -0.0307219 0)
(-0.103713 -0.045007 0)
(-0.0998648 -0.0596551 0)
(-0.0927707 -0.0735613 0)
(-0.0820917 -0.0851013 0)
(-0.0679693 -0.0922245 0)
(-0.0512894 -0.0927832 0)
(-0.0337953 -0.085122 0)
(-0.0178142 -0.0687551 0)
(-0.00576634 -0.0447187 0)
(-0.000518772 -0.0154114 0)
(-0.000568675 0.0156702 0)
(-0.00378877 0.0391954 0)
(-0.00997676 0.0553378 0)
(-0.0174864 0.0652328 0)
(-0.0256007 0.0702484 0)
(-0.0338728 0.071704 0)
(-0.0420143 0.0707065 0)
(-0.0498796 0.0680801 0)
(-0.0574179 0.0643737 0)
(-0.0646312 0.0599114 0)
(-0.0715486 0.0548529 0)
(-0.0782106 0.0492448 0)
(-0.0846579 0.0430537 0)
(-0.0909209 0.0361842 0)
(-0.0970068 0.028487 0)
(-0.10288 0.0197632 0)
(-0.108439 0.00977437 0)
(-0.113485 -0.0017332 0)
(-0.117674 -0.0149714 0)
(-0.120482 -0.0300463 0)
(-0.121199 -0.046802 0)
(-0.118947 -0.0646527 0)
(-0.112785 -0.0823852 0)
(-0.101953 -0.0980094 0)
(-0.0862296 -0.108787 0)
(-0.066385 -0.111608 0)
(-0.0444937 -0.103843 0)
(-0.023728 -0.0844837 0)
(-0.00769743 -0.0549009 0)
(-0.000677195 -0.0186712 0)
(-0.00063992 0.0177998 0)
(-0.00423737 0.0443894 0)
(-0.0110985 0.0624569 0)
(-0.0193404 0.0733687 0)
(-0.0281526 0.078762 0)
(-0.0370486 0.0801967 0)
(-0.0457314 0.078964 0)
(-0.0540682 0.076013 0)
(-0.062031 0.0719686 0)
(-0.0696499 0.0671971 0)
(-0.0769854 0.0618794 0)
(-0.0841127 0.0560699 0)
(-0.091113 0.0497328 0)
(-0.0980636 0.0427584 0)
(-0.105026 0.0349671 0)
(-0.112026 0.0261056 0)
(-0.119022 0.015847 0)
(-0.125853 0.00380574 0)
(-0.132198 -0.0104133 0)
(-0.137488 -0.0271407 0)
(-0.140846 -0.0464568 0)
(-0.141091 -0.0679551 0)
(-0.136822 -0.0904242 0)
(-0.126681 -0.111537 0)
(-0.109845 -0.127727 0)
(-0.0867045 -0.134544 0)
(-0.0594997 -0.127779 0)
(-0.0323616 -0.1053 0)
(-0.0106309 -0.0686481 0)
(-0.000946793 -0.0230932 0)
(-0.000730327 0.0201945 0)
(-0.00478987 0.0501884 0)
(-0.0124515 0.0703245 0)
(-0.0215301 0.0822576 0)
(-0.0311025 0.0879583 0)
(-0.0406408 0.0892759 0)
(-0.0498455 0.087717 0)
(-0.0586034 0.0843715 0)
(-0.0669165 0.0799473 0)
(-0.0748476 0.0748566 0)
(-0.0824918 0.0693049 0)
(-0.0899629 0.0633594 0)
(-0.0973864 0.0569889 0)
(-0.104894 0.0500788 0)
(-0.112613 0.0424283 0)
(-0.120649 0.0337364 0)
(-0.129046 0.0235868 0)
(-0.137734 0.0114416 0)
(-0.14645 -0.00333436 0)
(-0.154624 -0.021372 0)
(-0.161268 -0.0431294 0)
(-0.164918 -0.068557 0)
(-0.163668 -0.0966307 0)
(-0.155436 -0.124808 0)
(-0.138538 -0.148639 0)
(-0.11261 -0.161957 0)
(-0.0796532 -0.158179 0)
(-0.0445926 -0.133013 0)
(-0.0150159 -0.0875481 0)
(-0.00140368 -0.029292 0)
(-0.000849867 0.0229216 0)
(-0.00549006 0.0567233 0)
(-0.0141191 0.0790681 0)
(-0.0241578 0.0919869 0)
(-0.0345488 0.0978732 0)
(-0.0447259 0.0989301 0)
(-0.0543973 0.0969146 0)
(-0.0634811 0.0930732 0)
(-0.0720171 0.0882019 0)
(-0.080105 0.0827601 0)
(-0.087876 0.0769799 0)
(-0.0954817 0.070946 0)
(-0.103091 0.0646406 0)
(-0.110891 0.0579561 0)
(-0.119077 0.0506855 0)
(-0.127842 0.0424947 0)
(-0.13734 0.0328857 0)
(-0.147622 0.0211624 0)
(-0.158534 0.00642408 0)
(-0.169582 -0.0123607 0)
(-0.179764 -0.0361635 0)
(-0.18743 -0.0654922 0)
(-0.190246 -0.0997676 0)
(-0.185396 -0.136475 0)
(-0.170164 -0.1704 0)
(-0.143002 -0.193438 0)
(-0.104984 -0.195808 0)
(-0.0611415 -0.1695 0)
(-0.0214307 -0.113633 0)
(-0.00218406 -0.0381655 0)
(-0.00101599 0.0260793 0)
(-0.00640737 0.0641734 0)
(-0.0162248 0.0888476 0)
(-0.0273654 0.102649 0)
(-0.0386167 0.108524 0)
(-0.0493865 0.10911 0)
(-0.0594105 0.106456 0)
(-0.0686551 0.101977 0)
(-0.0772078 0.0965569 0)
(-0.085209 0.0906997 0)
(-0.0928247 0.0846626 0)
(-0.100239 0.0785511 0)
(-0.107658 0.0723679 0)
(-0.11531 0.0660256 0)
(-0.123452 0.0593292 0)
(-0.132356 0.0519333 0)
(-0.142282 0.0432799 0)
(-0.153417 0.0325285 0)
(-0.165768 0.0185043 0)
(-0.178998 -0.00027939 0)
(-0.192224 -0.0254273 0)
(-0.203825 -0.0581733 0)
(-0.211282 -0.0986715 0)
(-0.211241 -0.144804 0)
(-0.199984 -0.19096 0)
(-0.174449 -0.22726 0)
(-0.133902 -0.24017 0)
(-0.0821185 -0.21608 0)
(-0.0305727 -0.149224 0)
(-0.00354141 -0.0510012 0)
(-0.00126076 0.0298177 0)
(-0.00765484 0.0727883 0)
(-0.018952 0.099861 0)
(-0.0313445 0.114332 0)
(-0.0434514 0.119886 0)
(-0.0546865 0.119702 0)
(-0.0648477 0.11616 0)
(-0.0739747 0.110851 0)
(-0.0822164 0.104737 0)
(-0.0897584 0.0983569 0)
(-0.0967986 0.0919872 0)
(-0.103546 0.0857518 0)
(-0.110226 0.0796777 0)
(-0.117093 0.0737071 0)
(-0.124435 0.0676735 0)
(-0.132575 0.061245 0)
(-0.141849 0.0538356 0)
(-0.152566 0.0444961 0)
(-0.164916 0.0318105 0)
(-0.178809 0.0138644 0)
(-0.193623 -0.0116081 0)
(-0.208054 -0.0467412 0)
(-0.219826 -0.0925976 0)
(-0.225487 -0.14791 0)
(-0.220658 -0.207335 0)
(-0.200732 -0.259927 0)
(-0.162378 -0.288575 0)
(-0.106269 -0.272437 0)
(-0.0431069 -0.196439 0)
(-0.00591854 -0.0695961 0)
(-0.0016463 0.034375 0)
(-0.00942245 0.0829195 0)
(-0.0225739 0.112343 0)
(-0.0363424 0.127084 0)
(-0.0491922 0.131844 0)
(-0.0606103 0.130471 0)
(-0.0705152 0.12571 0)
(-0.0790581 0.119317 0)
(-0.0864693 0.112314 0)
(-0.0929867 0.105256 0)
(-0.0988394 0.0984227 0)
(-0.104252 0.0919492 0)
(-0.109456 0.0858827 0)
(-0.114703 0.080196 0)
(-0.120276 0.0747602 0)
(-0.126501 0.0692766 0)
(-0.133738 0.0631682 0)
(-0.142371 0.0554351 0)
(-0.152741 0.0445032 0)
(-0.165045 0.0281354 0)
(-0.179138 0.00351227 0)
(-0.194276 -0.0323718 0)
(-0.20886 -0.0816232 0)
(-0.220047 -0.144234 0)
(-0.22346 -0.216003 0)
(-0.213397 -0.286222 0)
(-0.183661 -0.335462 0)
(-0.130094 -0.335241 0)
(-0.0591728 -0.256152 0)
(-0.00997011 -0.0962878 0)
(-0.002299 0.0401491 0)
(-0.0120406 0.0950608 0)
(-0.0274961 0.126539 0)
(-0.042652 0.140849 0)
(-0.0558976 0.144104 0)
(-0.0669243 0.140965 0)
(-0.0758671 0.134554 0)
(-0.0830447 0.12676 0)
(-0.0887995 0.118626 0)
(-0.0934377 0.110691 0)
(-0.0972255 0.10322 0)
(-0.100402 0.0963389 0)
(-0.103191 0.090102 0)
(-0.105822 0.0845024 0)
(-0.108537 0.0794444 0)
(-0.111614 0.0746713 0)
(-0.115379 0.069647 0)
(-0.120214 0.0633912 0)
(-0.126558 0.0542934 0)
(-0.134871 0.039972 0)
(-0.145534 0.0172888 0)
(-0.158574 -0.0173244 0)
(-0.173488 -0.0670388 0)
(-0.188665 -0.133318 0)
(-0.200643 -0.213952 0)
(-0.203631 -0.30019 0)
(-0.189176 -0.372718 0)
(-0.147495 -0.397177 0)
(-0.0774694 -0.326348 0)
(-0.0163949 -0.133666 0)
(-0.00348428 0.0478362 0)
(-0.0160983 0.109892 0)
(-0.0343029 0.142625 0)
(-0.0505381 0.155311 0)
(-0.0633462 0.156015 0)
(-0.072865 0.150339 0)
(-0.079596 0.141745 0)
(-0.0841091 0.132179 0)
(-0.086906 0.122648 0)
(-0.0883893 0.113631 0)
(-0.0888793 0.105345 0)
(-0.0886366 0.0978839 0)
(-0.0878798 0.0912839 0)
(-0.0868013 0.0855352 0)
(-0.0855847 0.0805576 0)
(-0.0844269 0.0761296 0)
(-0.0835668 0.0717742 0)
(-0.0833259 0.0665945 0)
(-0.0841552 0.0590762 0)
(-0.0866814 0.0469183 0)
(-0.0917092 0.0269953 0)
(-0.10007 -0.00444174 0)
(-0.112521 -0.051355 0)
(-0.129047 -0.116485 0)
(-0.147997 -0.200113 0)
(-0.164886 -0.297088 0)
(-0.170652 -0.391473 0)
(-0.150602 -0.44739 0)
(-0.0942677 -0.400418 0)
(-0.0253841 -0.183642 0)
(-0.00576203 0.05872 0)
(-0.0226457 0.128287 0)
(-0.0437419 0.160467 0)
(-0.0599455 0.169564 0)
(-0.0704962 0.166231 0)
(-0.0763993 0.157041 0)
(-0.0787505 0.145658 0)
(-0.0784885 0.133957 0)
(-0.076339 0.122814 0)
(-0.0728369 0.112589 0)
(-0.0683756 0.10341 0)
(-0.0632465 0.095302 0)
(-0.0576636 0.0882507 0)
(-0.0517816 0.0822122 0)
(-0.0457186 0.0770956 0)
(-0.0395812 0.0726946 0)
(-0.0335017 0.0685926 0)
(-0.0277005 0.0640152 0)
(-0.022568 0.0576502 0)
(-0.0187632 0.0474732 0)
(-0.0173157 0.0306598 0)
(-0.0197503 0.00366065 0)
(-0.0277682 -0.0375755 0)
(-0.0428838 -0.0966797 0)
(-0.0658122 -0.176158 0)
(-0.0947078 -0.275329 0)
(-0.122358 -0.384815 0)
(-0.131521 -0.473638 0)
(-0.103195 -0.466568 0)
(-0.0356438 -0.24587 0)
(-0.0102779 0.0753119 0)
(-0.0334566 0.151181 0)
(-0.0563176 0.17906 0)
(-0.0694223 0.18146 0)
(-0.0739181 0.172112 0)
(-0.0723525 0.158318 0)
(-0.0667224 0.143622 0)
(-0.0584624 0.129607 0)
(-0.0485681 0.116878 0)
(-0.0377081 0.105583 0)
(-0.0263279 0.0957016 0)
(-0.0147242 0.0871472 0)
(-0.00308267 0.0798202 0)
(0.00849877 0.0736154 0)
(0.0199773 0.0684003 0)
(0.0313349 0.0639652 0)
(0.0425435 0.0599428 0)
(0.0534915 0.0556923 0)
(0.0638845 0.0501541 0)
(0.0731136 0.0416976 0)
(0.0800925 0.0280077 0)
(0.0830409 0.00607293 0)
(0.0796916 -0.0276408 0)
(0.0673524 -0.0769698 0)
(0.0432852 -0.145702 0)
(0.00603234 -0.23706 0)
(-0.0415556 -0.349965 0)
(-0.0834276 -0.465262 0)
(-0.0962627 -0.509377 0)
(-0.0435062 -0.316598 0)
(-0.0191307 0.1023 0)
(-0.0508242 0.178408 0)
(-0.0698997 0.195069 0)
(-0.0721615 0.186287 0)
(-0.0630794 0.168718 0)
(-0.0475453 0.149579 0)
(-0.0286385 0.131624 0)
(-0.00822294 0.115748 0)
(0.012574 0.102063 0)
(0.0331076 0.0903984 0)
(0.0530319 0.0805092 0)
(0.0721662 0.0721587 0)
(0.0904501 0.0651402 0)
(0.107905 0.0592739 0)
(0.124601 0.054377 0)
(0.140628 0.0502297 0)
(0.156053 0.0465093 0)
(0.170861 0.0427058 0)
(0.18485 0.0380168 0)
(0.197502 0.0312334 0)
(0.207801 0.0206474 0)
(0.213912 0.00400452 0)
(0.213436 -0.0213789 0)
(0.203098 -0.0587831 0)
(0.178872 -0.112089 0)
(0.136673 -0.186582 0)
(0.0738152 -0.288575 0)
(0.000664471 -0.415785 0)
(-0.0649301 -0.513297 0)
(-0.0426274 -0.387625 0)
(-0.0341933 0.145514 0)
(-0.0721131 0.202545 0)
(-0.0674603 0.19709 0)
(-0.0420479 0.172699 0)
(-0.00718255 0.146432 0)
(0.0305128 0.12326 0)
(0.0677935 0.103999 0)
(0.103218 0.0882961 0)
(0.136191 0.0755448 0)
(0.166572 0.0651827 0)
(0.194449 0.0567358 0)
(0.220005 0.049831 0)
(0.243471 0.0441789 0)
(0.265097 0.0395493 0)
(0.28513 0.0357393 0)
(0.303794 0.0325409 0)
(0.321256 0.029694 0)
(0.337572 0.0268316 0)
(0.352602 0.0234121 0)
(0.3659 0.0186425 0)
(0.376539 0.0114073 0)
(0.382836 0.00022228 0)
(0.382472 -0.0165053 0)
(0.371948 -0.0410656 0)
(0.34666 -0.0764394 0)
(0.30129 -0.127716 0)
(0.228721 -0.204751 0)
(0.131356 -0.323205 0)
(0.00340376 -0.463611 0)
(-0.0203008 -0.438215 0)
(-0.0372887 0.236488 0)
(-0.0461356 0.205208 0)
(0.0306506 0.154994 0)
(0.103484 0.118859 0)
(0.171095 0.0916347 0)
(0.231171 0.0713601 0)
(0.283346 0.0565083 0)
(0.328373 0.0455488 0)
(0.367277 0.0373145 0)
(0.401039 0.0310281 0)
(0.430514 0.0261687 0)
(0.456423 0.0223763 0)
(0.479367 0.0193951 0)
(0.499856 0.0170362 0)
(0.51831 0.0151484 0)
(0.535063 0.013591 0)
(0.550349 0.0122067 0)
(0.56426 0.0107924 0)
(0.576681 0.0090687 0)
(0.587192 0.00665073 0)
(0.594917 0.00302553 0)
(0.598534 -0.00245116 0)
(0.595954 -0.0106096 0)
(0.583915 -0.0225911 0)
(0.557738 -0.0398165 0)
(0.51237 -0.0654532 0)
(0.437053 -0.106923 0)
(0.329846 -0.189806 0)
(0.140743 -0.337621 0)
(0.0596068 -0.414113 0)
(0.231273 0.158493 0)
(0.291828 0.117386 0)
(0.442256 0.0762959 0)
(0.541999 0.0509818 0)
(0.609708 0.0345602 0)
(0.659502 0.0236508 0)
(0.697462 0.0164896 0)
(0.726945 0.0117943 0)
(0.750305 0.00866848 0)
(0.76921 0.006546 0)
(0.784809 0.00507897 0)
(0.797908 0.00404966 0)
(0.809088 0.00331819 0)
(0.818783 0.00279188 0)
(0.827314 0.00240525 0)
(0.83491 0.00210554 0)
(0.841708 0.00184122 0)
(0.847735 0.00155204 0)
(0.852876 0.00116017 0)
(0.85683 0.000570221 0)
(0.859031 -0.000333732 0)
(0.858584 -0.00162903 0)
(0.854018 -0.00359115 0)
(0.843613 -0.0065351 0)
(0.82424 -0.0106945 0)
(0.793388 -0.0169908 0)
(0.738713 -0.0273111 0)
(0.660426 -0.0499732 0)
(0.456416 -0.111121 0)
(0.313743 -0.178267 0)
)
;

boundaryField
{
    movingWall
    {
        type            fixedValue;
        value           uniform (1 0 0);
    }
    fixedWalls
    {
        type            noSlip;
    }
    frontAndBack
    {
        type            empty;
    }
}


// ************************************************************************* //
