/*--------------------------------*- C++ -*----------------------------------*\
  =========                 |
  \\      /  F ield         | OpenFOAM: The Open Source CFD Toolbox
   \\    /   O peration     | Website:  https://openfoam.org
    \\  /    A nd           | Version:  7
     \\/     M anipulation  |
\*---------------------------------------------------------------------------*/
FoamFile
{
    version     2.0;
    format      ascii;
    class       volScalarField;
    location    "5.3";
    object      p;
}
// * * * * * * * * * * * * * * * * * * * * * * * * * * * * * * * * * * * * * //

dimensions      [0 2 -2 0 0 0 0];

internalField   nonuniform List<scalar> 
900
(
1.84085e-08
-0.000123142
-0.000260821
-0.000372794
-0.000430106
-0.000417455
-0.000329548
-0.000165947
7.18843e-05
0.000381832
0.000761394
0.00120737
0.00171519
0.0022781
0.00288638
0.00352667
0.00418171
0.00483043
0.00544877
0.00601122
0.00649292
0.00687235
0.00713421
0.00727208
0.00729036
0.00720544
0.00704592
0.0068511
0.00667072
0.00656749
0.000121441
-3.58766e-06
-9.86917e-05
-0.000164162
-0.000184044
-0.000146333
-4.59642e-05
0.000118747
0.000347904
0.00064064
0.000995233
0.00140889
0.00187725
0.00239382
0.00294942
0.00353167
0.00412487
0.00471047
0.00526741
0.00577376
0.00620862
0.00655433
0.00679902
0.0069387
0.00697862
0.00693368
0.00682778
0.00669254
0.00656303
0.00646298
0.000263874
8.79291e-05
-9.38571e-06
-6.36232e-05
-7.11739e-05
-2.38251e-05
8.14521e-05
0.000245606
0.000468866
0.000750868
0.00109052
0.00148569
0.00193269
0.00242575
0.00295638
0.00351298
0.00408123
0.00464284
0.00517774
0.00566478
0.00608366
0.00641727
0.00665413
0.00679057
0.00683187
0.00679224
0.00669376
0.00656522
0.00643175
0.00628894
0.000383069
0.000146179
3.20886e-05
-2.41576e-05
-2.92176e-05
2.12517e-05
0.000127675
0.000289656
0.000507127
0.000780045
0.00110799
0.00148971
0.00192249
0.00240155
0.00291938
0.00346523
0.00402505
0.00458101
0.00511275
0.00559842
0.00601664
0.00634909
0.00658321
0.00671456
0.00674814
0.00669802
0.00658619
0.00644119
0.00628276
0.00608763
0.000442356
0.000146318
1.16753e-05
-5.21663e-05
-5.99953e-05
-1.06257e-05
9.39702e-05
0.000252075
0.000463304
0.00072796
0.0010464
0.00141841
0.00184246
0.00231497
0.00282952
0.00337618
0.00394116
0.00450647
0.00505067
0.00555008
0.00598094
0.00632231
0.00655924
0.00668569
0.00670614
0.00663525
0.0064965
0.00632079
0.00612702
0.00587914
0.000414769
6.46852e-05
-9.1519e-05
-0.000166127
-0.00018034
-0.000135399
-3.52455e-05
0.000117342
0.00032181
0.000578929
0.000889969
0.00125592
0.00167666
0.00215002
0.00267082
0.00323002
0.00381401
0.00440422
0.0049774
0.00550703
0.00596561
0.006328
0.00657543
0.00669918
0.00670289
0.00660246
0.00642466
0.00620552
0.00596723
0.00566645
0.000281427
-0.00011692
-0.000294224
-0.000381137
-0.00040404
-0.000366027
-0.000272563
-0.000127169
6.9659e-05
0.000319335
0.000624222
0.000986737
0.00140838
0.00188866
0.00242395
0.00300627
0.0036223
0.00425275
0.00487205
0.00544988
0.00595355
0.00635198
0.00662067
0.0067467
0.00673218
0.00659474
0.00636619
0.00609062
0.00579734
0.00543963
2.80352e-05
-0.000413502
-0.000610932
-0.000710858
-0.000744043
-0.000715054
-0.000630519
-0.000494405
-0.000306931
-6.58443e-05
0.000232508
0.000592202
0.00101666
0.00150748
0.00206299
0.0026768
0.00333618
0.0040215
0.0047046
0.00535063
0.00592025
0.00637428
0.00667997
0.00681779
0.00678681
0.00660632
0.00631485
0.00596779
0.00560521
0.00517867
-0.000357135
-0.000838016
-0.00105476
-0.00116829
-0.00121329
-0.00119558
-0.00112272
-0.000998933
-0.000823988
-0.00059464
-0.000305771
4.85954e-05
0.000474168
0.0009751
0.00155243
0.0022021
0.00291277
0.00366567
0.00443021
0.00516679
0.00582809
0.00636427
0.00673077
0.00689766
0.00685788
0.00663119
0.00626409
0.005827
0.00537472
0.0048562
-0.000884231
-0.00140183
-0.00163753
-0.00176556
-0.00182429
-0.00182076
-0.00176337
-0.00165651
-0.00149947
-0.00128796
-0.00101529
-0.000673398
-0.000253952
0.000250366
0.00084419
0.00152701
0.00229018
0.00311873
0.0039802
0.00483109
0.00561549
0.00627014
0.00673392
0.00696042
0.00693073
0.00666145
0.00620716
0.00565764
0.00508732
0.00443916
-0.00156229
-0.00211503
-0.00236988
-0.00251382
-0.00258888
-0.00260339
-0.00256672
-0.00248352
-0.0023527
-0.00216904
-0.00192439
-0.00160857
-0.0012104
-0.000718872
-0.000124754
0.000576787
0.00138245
0.00228394
0.00325049
0.00423734
0.00518099
0.0060027
0.00661881
0.00695731
0.00697714
0.0066836
0.00613657
0.00544976
0.0047238
0.00389003
-0.0023994
-0.00298658
-0.00326134
-0.00342316
-0.00351789
-0.00355544
-0.0035464
-0.00349603
-0.00340323
-0.00326222
-0.00306376
-0.0027959
-0.00244474
-0.00199534
-0.00143296
-0.000744581
7.78613e-05
0.00102578
0.00208834
0.0032227
0.00436174
0.0054115
0.00625979
0.00679621
0.00694043
0.00667011
0.00604129
0.00519473
0.00426633
0.00316857
-0.00340263
-0.00402439
-0.00432026
-0.00450237
-0.00462071
-0.00468723
-0.00471428
-0.00470834
-0.00466893
-0.00459052
-0.00446362
-0.00427541
-0.00401006
-0.00364913
-0.00317196
-0.0025565
-0.00178231
-0.000838977
0.000281481
0.0015505
0.00290926
0.00425484
0.00544317
0.00631006
0.00670984
0.00656276
0.00589931
0.00488451
0.00370077
0.00223405
-0.00457796
-0.00523536
-0.00555388
-0.00575879
-0.00590474
-0.00600647
-0.00607895
-0.00613074
-0.00616309
-0.00617192
-0.00614899
-0.00608229
-0.00595589
-0.00574942
-0.00543717
-0.0049873
-0.00436199
-0.00352191
-0.00243835
-0.00109536
0.000473981
0.00217349
0.00383186
0.00521711
0.00608346
0.00624505
0.00566283
0.00450812
0.00301941
0.00104887
-0.00593018
-0.00662557
-0.00696834
-0.00719799
-0.0073747
-0.00751701
-0.0076437
-0.00776674
-0.00789054
-0.00801422
-0.00813297
-0.00823823
-0.00831708
-0.0083505
-0.00831057
-0.00815677
-0.00783221
-0.00726339
-0.00637291
-0.00508754
-0.00338004
-0.00130832
0.000949275
0.00308937
0.00472869
0.00550616
0.00523528
0.00404479
0.00222507
-0.000414656
-0.00746305
-0.00820077
-0.00856908
-0.00882382
-0.009032
-0.00921745
-0.00940438
-0.00960981
-0.00984312
-0.0101088
-0.0104083
-0.01074
-0.0110984
-0.0114709
-0.0118325
-0.0121377
-0.0123116
-0.0122419
-0.0117822
-0.0107773
-0.0090978
-0.00671673
-0.00377731
-0.000634264
0.00216759
0.00401184
0.00444569
0.00345524
0.00133894
-0.00216061
-0.00918005
-0.00996748
-0.0103617
-0.0106387
-0.0108744
-0.0110999
-0.0113471
-0.01164
-0.0119949
-0.0124242
-0.0129385
-0.0135473
-0.0142576
-0.0150696
-0.0159683
-0.0169099
-0.0178047
-0.0185006
-0.0187734
-0.0183481
-0.016971
-0.0144635
-0.0108684
-0.0065375
-0.00216399
0.00131707
0.00303961
0.00267748
0.000416046
-0.00414288
-0.0110858
-0.011935
-0.0123536
-0.0126444
-0.0128957
-0.0131491
-0.0134465
-0.0138212
-0.0142985
-0.0149008
-0.0156506
-0.0165724
-0.0176909
-0.0190254
-0.0205783
-0.0223152
-0.0241388
-0.0258596
-0.0271713
-0.0276577
-0.0269379
-0.0246055
-0.0205339
-0.0149862
-0.00873221
-0.00302641
0.000723063
0.00164375
-0.000425634
-0.00621679
-0.013189
-0.0141192
-0.0145567
-0.0148436
-0.0150865
-0.0153415
-0.0156643
-0.0160995
-0.016683
-0.0174485
-0.0184328
-0.0196777
-0.021229
-0.0231299
-0.0254061
-0.0280395
-0.0309316
-0.0338625
-0.0364596
-0.0381965
-0.0384372
-0.036631
-0.0324017
-0.0258201
-0.0176052
-0.00923568
-0.00269981
0.000349096
-0.000953751
-0.00805976
-0.0155075
-0.0165479
-0.016992
-0.0172426
-0.0174347
-0.0176459
-0.0179494
-0.0184035
-0.0190551
-0.0199501
-0.0211393
-0.0226826
-0.0246481
-0.0271041
-0.0301013
-0.0336407
-0.0376277
-0.0418199
-0.0457874
-0.0489019
-0.0503517
-0.0493852
-0.0453721
-0.0381212
-0.0281561
-0.0169919
-0.00708591
-0.00100479
-0.000738856
-0.00905209
-0.018078
-0.0192711
-0.0196957
-0.0198539
-0.0199269
-0.0200233
-0.020239
-0.0206469
-0.0213049
-0.0222693
-0.0236038
-0.0253848
-0.0277
-0.0306404
-0.0342785
-0.0386317
-0.04361
-0.0489546
-0.0541901
-0.0586083
-0.061292
-0.0612972
-0.0577751
-0.0502532
-0.0389544
-0.0252089
-0.0116829
-0.00179479
0.000966887
-0.00811497
-0.0209728
-0.0223763
-0.0227287
-0.0227
-0.0225486
-0.0224274
-0.0224599
-0.0227333
-0.0233138
-0.0242653
-0.0256609
-0.0275893
-0.0301535
-0.0334605
-0.0375973
-0.0425903
-0.0483485
-0.0545987
-0.0608318
-0.0662864
-0.069985
-0.0708292
-0.0678262
-0.0602541
-0.0480097
-0.0320706
-0.0149911
-0.000773351
0.00538567
-0.00352186
-0.024335
-0.026014
-0.0261876
-0.025815
-0.0252824
-0.0248032
-0.0245303
-0.0245614
-0.0249656
-0.0258089
-0.0271689
-0.0291412
-0.0318372
-0.0353717
-0.0398362
-0.0452547
-0.0515272
-0.058362
-0.0652233
-0.0713113
-0.0756007
-0.0769203
-0.0741607
-0.0664158
-0.0533031
-0.0353997
-0.0148981
0.00399401
0.0143868
0.00728076
-0.028452
-0.0304391
-0.0302185
-0.0292427
-0.0281017
-0.0270819
-0.0263585
-0.0260289
-0.0261552
-0.0267975
-0.0280309
-0.0299511
-0.0326703
-0.0363024
-0.0409316
-0.0465693
-0.0530971
-0.0601946
-0.0672968
-0.0735684
-0.0779422
-0.0792011
-0.0761459
-0.0677216
-0.0533284
-0.0331985
-0.0090788
0.0150069
0.0306511
0.0277935
-0.0339171
-0.0360755
-0.0350236
-0.0330215
-0.0309532
-0.0291674
-0.0278349
-0.0270298
-0.0267908
-0.0271604
-0.028202
-0.030004
-0.0326698
-0.0363044
-0.0409748
-0.0466675
-0.0532308
-0.0603118
-0.0673071
-0.0733413
-0.0772977
-0.077897
-0.0738206
-0.0639043
-0.0473709
-0.0241331
0.00443876
0.0350389
0.0576998
0.0623744
-0.0420105
-0.0436071
-0.0408284
-0.0371319
-0.0337075
-0.0308934
-0.028795
-0.0274233
-0.0267675
-0.0268364
-0.0276677
-0.0293346
-0.0319227
-0.0355146
-0.0401514
-0.0457851
-0.0522229
-0.0590677
-0.0656698
-0.071103
-0.0741865
-0.0735442
-0.0677184
-0.0553676
-0.0354888
-0.00780947
0.0267245
0.0663544
0.0992305
0.115924
-0.0558166
-0.054126
-0.04778
-0.0413728
-0.0360421
-0.0319181
-0.0289272
-0.0269558
-0.0259029
-0.0257173
-0.0263975
-0.0279822
-0.03053
-0.0340926
-0.0386749
-0.0441868
-0.050388
-0.0568314
-0.0628157
-0.0673601
-0.0692144
-0.0668699
-0.0586927
-0.0430845
-0.0187133
0.0151341
0.0581402
0.109084
0.15709
0.195364
-0.0831811
-0.0688675
-0.0558626
-0.0452499
-0.0373126
-0.0316398
-0.02774
-0.0252661
-0.023965
-0.0236867
-0.0243672
-0.0260006
-0.0286092
-0.032208
-0.0367621
-0.042138
-0.0480485
-0.0539977
-0.0592325
-0.0627142
-0.0631383
-0.0588874
-0.0481549
-0.0289567
0.00055357
0.0419313
0.0958767
0.162505
0.232024
0.314527
-0.135541
-0.0842149
-0.0627882
-0.0463225
-0.0353243
-0.0283542
-0.0240399
-0.0215509
-0.020419
-0.0203906
-0.0213434
-0.0232345
-0.0260573
-0.0297996
-0.0343986
-0.0396913
-0.0453622
-0.0508905
-0.0555014
-0.0581198
-0.0573459
-0.0515798
-0.0389196
-0.0169718
0.0167968
0.065419
0.13194
0.221196
0.32957
0.499525
-0.307979
-0.0938528
-0.0453883
-0.0275725
-0.0180045
-0.0132698
-0.0114351
-0.0111378
-0.0117572
-0.0130938
-0.0151072
-0.0178151
-0.0212528
-0.0254378
-0.0303285
-0.0357791
-0.0414917
-0.0469682
-0.0514698
-0.0539886
-0.0532377
-0.047538
-0.034802
-0.0127537
0.0215169
0.0725396
0.146963
0.2623
0.437815
0.781803
)
;

boundaryField
{
    movingWall
    {
        type            zeroGradient;
    }
    fixedWalls
    {
        type            zeroGradient;
    }
    frontAndBack
    {
        type            empty;
    }
}


// ************************************************************************* //
