/*--------------------------------*- C++ -*----------------------------------*\
  =========                 |
  \\      /  F ield         | OpenFOAM: The Open Source CFD Toolbox
   \\    /   O peration     | Website:  https://openfoam.org
    \\  /    A nd           | Version:  7
     \\/     M anipulation  |
\*---------------------------------------------------------------------------*/
FoamFile
{
    version     2.0;
    format      ascii;
    class       surfaceScalarField;
    location    "5.3";
    object      phi;
}
// * * * * * * * * * * * * * * * * * * * * * * * * * * * * * * * * * * * * * //

dimensions      [0 3 -1 0 0 0 0];

internalField   nonuniform List<scalar> 
1740
(
3.80399e-07
-3.80418e-07
-6.4874e-07
1.02914e-06
-3.15734e-06
2.5086e-06
-6.80535e-06
3.64801e-06
-1.12082e-05
4.40284e-06
-1.60372e-05
4.82902e-06
-2.10412e-05
5.004e-06
-2.60343e-05
4.99307e-06
-3.08736e-05
4.83936e-06
-3.54388e-05
4.56519e-06
-3.96155e-05
4.1767e-06
-4.32849e-05
3.66933e-06
-4.63184e-05
3.03356e-06
-4.8579e-05
2.2606e-06
-4.99268e-05
1.34783e-06
-5.02308e-05
3.03966e-07
-4.93837e-05
-8.47117e-07
-4.73219e-05
-2.06177e-06
-4.40451e-05
-3.2768e-06
-3.96338e-05
-4.41137e-06
-3.42611e-05
-5.37268e-06
-2.81958e-05
-6.06532e-06
-2.17926e-05
-6.40313e-06
-1.54709e-05
-6.3217e-06
-9.68177e-06
-5.78916e-06
-4.86747e-06
-4.8143e-06
-1.4098e-06
-3.45767e-06
4.49777e-07
-1.85958e-06
7.40857e-07
-2.91078e-07
7.40859e-07
-1.02836e-06
6.47942e-07
-5.14751e-06
5.14829e-06
-1.22627e-05
9.62376e-06
-2.17575e-05
1.31429e-05
-3.29252e-05
1.55706e-05
-4.51017e-05
1.70055e-05
-5.77215e-05
1.76238e-05
-7.03217e-05
1.75932e-05
-8.25187e-05
1.70364e-05
-9.39786e-05
1.60251e-05
-0.000104389
1.45867e-05
-0.000113438
1.27184e-05
-0.000120808
1.04035e-05
-0.000126175
7.62825e-06
-0.000129227
4.39907e-06
-0.00012968
7.5787e-07
-0.000127325
-3.2025e-06
-0.000122051
-7.33551e-06
-0.000113899
-1.14291e-05
-0.000103088
-1.52223e-05
-9.00405e-05
-1.84203e-05
-7.5382e-05
-2.07237e-05
-5.9919e-05
-2.18662e-05
-4.45867e-05
-2.16539e-05
-3.03731e-05
-2.00028e-05
-1.82196e-05
-1.69678e-05
-8.90242e-06
-1.27748e-05
-2.89501e-06
-7.86699e-06
-2.16394e-07
-2.96969e-06
5.24466e-07
-2.63416e-06
3.2821e-06
-1.0036e-05
1.25501e-05
-2.14709e-05
2.10587e-05
-3.60513e-05
2.77233e-05
-5.28411e-05
3.23604e-05
-7.09654e-05
3.51298e-05
-8.96583e-05
3.63167e-05
-0.000108268
3.62031e-05
-0.000126237
3.50049e-05
-0.000143067
3.28554e-05
-0.000158293
2.98129e-05
-0.000171458
2.58832e-05
-0.000182102
2.10477e-05
-0.00018977
1.52958e-05
-0.000194026
8.65585e-06
-0.000194498
1.22913e-06
-0.000190896
-6.80385e-06
-0.000183098
-1.51337e-05
-0.000171178
-2.33494e-05
-0.000155459
-3.09415e-05
-0.00013654
-3.7339e-05
-0.000115298
-4.19657e-05
-9.28525e-05
-4.43119e-05
-7.04935e-05
-4.40129e-05
-4.95745e-05
-4.09218e-05
-3.13735e-05
-3.51687e-05
-1.69387e-05
-2.72097e-05
-6.9295e-06
-1.78761e-05
-1.45805e-06
-8.44114e-06
-9.33586e-07
-4.07085e-06
7.35296e-06
-1.45076e-05
2.29869e-05
-2.99081e-05
3.64592e-05
-4.90073e-05
4.68226e-05
-7.06408e-05
5.39938e-05
-9.37676e-05
5.82566e-05
-0.000117483
6.00323e-05
-0.00014101
5.97298e-05
-0.000163671
5.76655e-05
-0.000184855
5.40394e-05
-0.000203986
4.89441e-05
-0.000220499
4.23961e-05
-0.000233829
3.43778e-05
-0.000243418
2.48846e-05
-0.000248736
1.39741e-05
-0.000249322
1.81562e-06
-0.000244831
-1.12954e-05
-0.000235101
-2.48635e-05
-0.000220215
-3.8235e-05
-0.000200557
-5.05994e-05
-0.000176848
-6.1048e-05
-0.000150152
-6.86624e-05
-0.000121835
-7.26291e-05
-9.34795e-05
-7.2368e-05
-6.67495e-05
-6.76518e-05
-4.32179e-05
-5.87003e-05
-2.4186e-05
-4.62416e-05
-1.05182e-05
-3.1544e-05
-2.52614e-06
-1.64332e-05
-3.45973e-06
-5.28226e-06
1.26352e-05
-1.84125e-05
3.61171e-05
-3.73667e-05
5.54134e-05
-6.04887e-05
6.99446e-05
-8.63753e-05
7.98804e-05
-0.000113834
8.57153e-05
-0.000141853
8.80517e-05
-0.00016957
8.74465e-05
-0.000196231
8.43261e-05
-0.000221151
7.89598e-05
-0.000243681
7.14741e-05
-0.000263178
6.1893e-05
-0.000278995
5.01944e-05
-0.000290485
3.63746e-05
-0.000297026
2.05157e-05
-0.000298065
2.85412e-06
-0.000293168
-1.61921e-05
-0.000282103
-3.59289e-05
-0.00026491
-5.54273e-05
-0.000241981
-7.35288e-05
-0.000214106
-8.89225e-05
-0.000182499
-0.00010027
-0.000148753
-0.000106375
-0.000114749
-0.000106373
-8.24832e-05
-9.99173e-05
-5.3865e-05
-8.73185e-05
-3.04933e-05
-6.96133e-05
-1.34735e-05
-4.85638e-05
-3.31685e-06
-2.65898e-05
-6.77658e-06
-6.29394e-06
1.89292e-05
-2.17769e-05
5.16e-05
-4.38886e-05
7.75252e-05
-7.06037e-05
9.66596e-05
-0.000100285
0.000109562
-0.000131597
0.000117028
-0.000163442
0.000119896
-0.000194898
0.000118902
-0.000225167
0.000114596
-0.000253527
0.000107319
-0.000279282
9.72291e-05
-0.000301736
8.43473e-05
-0.000320176
6.8634e-05
-0.00033387
5.00693e-05
-0.000342096
2.87408e-05
-0.000344176
4.93431e-06
-0.000339547
-2.08206e-05
-0.000327844
-4.76325e-05
-0.000308995
-7.42762e-05
-0.000283325
-9.91985e-05
-0.000251638
-0.00012061
-0.00021526
-0.000136648
-0.000176021
-0.000145613
-0.000136146
-0.000146248
-9.80548e-05
-0.000138008
-6.4099e-05
-0.000121274
-3.6272e-05
-9.74403e-05
-1.59733e-05
-6.88624e-05
-3.88316e-06
-3.868e-05
-1.06597e-05
-7.15246e-06
2.60816e-05
-2.46971e-05
6.91447e-05
-4.9624e-05
0.000102452
-7.9577e-05
0.000126613
-0.000112702
0.000142686
-0.000147533
0.000151859
-0.000182901
0.000155264
-0.00021785
0.000153852
-0.000251568
0.000148314
-0.000283319
0.00013907
-0.000312391
0.000126301
-0.000338058
0.000110014
-0.00035955
9.0126e-05
-0.000376053
6.65721e-05
-0.000386721
3.9409e-05
-0.00039072
8.93346e-06
-0.000387294
-2.42465e-05
-0.00037586
-5.90669e-05
-0.000356137
-9.39986e-05
-0.000328285
-0.000127051
-0.000293031
-0.000155864
-0.000251769
-0.00017791
-0.000206573
-0.00019081
-0.00016009
-0.00019273
-0.000115307
-0.000182791
-7.51906e-05
-0.000161391
-4.22904e-05
-0.000130341
-1.83962e-05
-9.27566e-05
-4.34396e-06
-5.27321e-05
-1.50037e-05
-7.90165e-06
3.39833e-05
-2.72816e-05
8.85246e-05
-5.4751e-05
0.000129921
-8.76638e-05
0.000159525
-0.000123971
0.000178994
-0.000162095
0.000189983
-0.000200814
0.000193983
-0.000239161
0.000192199
-0.000276333
0.000185486
-0.000311614
0.000174351
-0.000344303
0.00015899
-0.000373666
0.000139376
-0.000398895
0.000115355
-0.000419093
8.677e-05
-0.000433275
5.35912e-05
-0.000440404
1.60625e-05
-0.00043946
-2.51907e-05
-0.000429535
-6.89921e-05
-0.00041001
-0.000113524
-0.000380732
-0.000156329
-0.000342223
-0.000194372
-0.000295854
-0.000224279
-0.000243929
-0.000242735
-0.00018961
-0.000247049
-0.000136636
-0.000235766
-8.88449e-05
-0.000209182
-4.95988e-05
-0.000169587
-2.12541e-05
-0.000121101
-4.84628e-06
-6.914e-05
-1.985e-05
-8.57555e-06
4.25588e-05
-2.96255e-05
0.000109575
-5.94334e-05
0.000159729
-9.50986e-05
0.000195191
-0.000134402
0.000218297
-0.000175672
0.000231252
-0.000217655
0.000235967
-0.000259399
0.000233943
-0.000300142
0.000226229
-0.000339216
0.000213425
-0.000375968
0.000195742
-0.000409687
0.000173096
-0.000439553
0.000145221
-0.000464594
0.000111811
-0.000483677
7.26742e-05
-0.00049552
2.79057e-05
-0.000498763
-2.19474e-05
-0.000492044
-7.57117e-05
-0.000474237
-0.000131331
-0.000444682
-0.000185883
-0.000403494
-0.00023556
-0.000351859
-0.000275913
-0.000292247
-0.000302348
-0.000228401
-0.000310894
-0.000165044
-0.000299123
-0.000107238
-0.000266988
-5.95431e-05
-0.000217282
-2.51922e-05
-0.000155452
-5.56427e-06
-8.8768e-05
-2.54142e-05
-9.19848e-06
5.17573e-05
-3.1803e-05
0.000132179
-6.38035e-05
0.00019173
-0.00010207
0.000233458
-0.000144235
0.000260461
-0.000188551
0.000275569
-0.000233758
0.000281174
-0.000278944
0.000279129
-0.00032342
0.000270705
-0.00036661
0.000256615
-0.000407947
0.00023708
-0.00044679
0.000211938
-0.000482341
0.000180771
-0.000513585
0.000143056
-0.000539245
9.83343e-05
-0.000557763
4.64237e-05
-0.000567375
-1.23354e-05
-0.000566107
-7.69803e-05
-0.000552137
-0.000145301
-0.00052404
-0.00021398
-0.000481239
-0.000278361
-0.000424479
-0.000332673
-0.000356225
-0.000370602
-0.000280815
-0.000386304
-0.000204186
-0.000375752
-0.000133079
-0.000338095
-7.38175e-05
-0.000276543
-3.102e-05
-0.00019825
-6.71129e-06
-0.000113077
-3.21255e-05
-9.7869e-06
6.15442e-05
-3.38679e-05
0.00015626
-6.79586e-05
0.00022582
-0.000108715
0.000274214
-0.000153632
0.000305378
-0.000200909
0.000322845
-0.000249298
0.000329563
-0.000297958
0.000327789
-0.000346312
0.00031906
-0.000393919
0.000304221
-0.000440351
0.000283513
-0.000485093
0.00025668
-0.000527428
0.000223107
-0.000566347
0.000181975
-0.000600458
0.000132445
-0.000627917
7.38829e-05
-0.000646498
6.24553e-06
-0.000653487
-6.99912e-05
-0.000646149
-0.000152639
-0.000621991
-0.000238138
-0.000579378
-0.000320974
-0.000518234
-0.000393817
-0.000440713
-0.000448123
-0.000351619
-0.000475399
-0.000258273
-0.000469097
-0.000169614
-0.000426755
-9.45063e-05
-0.00035165
-3.97459e-05
-0.00025301
-8.55284e-06
-0.00014427
-4.06784e-05
-1.03518e-05
7.1896e-05
-3.58587e-05
0.000181767
-7.19671e-05
0.000261929
-0.000115121
0.000317368
-0.000162684
0.000352942
-0.000212812
0.000372973
-0.000264293
0.000381044
-0.000316386
0.000379882
-0.000368664
0.000371338
-0.00042087
0.000356427
-0.000472777
0.00033542
-0.000524063
0.000307965
-0.000574168
0.000273212
-0.000622161
0.000229968
-0.000666593
0.000176878
-0.000705387
0.000112677
-0.000735698
3.65569e-05
-0.000754193
-5.14968e-05
-0.000756884
-0.000149948
-0.000739935
-0.000255087
-0.000700247
-0.000360662
-0.000636431
-0.000457634
-0.000549834
-0.000534719
-0.000445369
-0.000579864
-0.00033172
-0.000582746
-0.000220494
-0.00053798
-0.000124071
-0.000448073
-5.25959e-05
-0.000324485
-1.14162e-05
-0.000185449
-5.20946e-05
-1.09019e-05
8.27978e-05
-3.78067e-05
0.000208672
-7.58815e-05
0.000300004
-0.000121344
0.000362831
-0.000171424
0.000403021
-0.000224235
0.000425785
-0.000278619
0.000435428
-0.000333962
0.000435224
-0.000390023
0.000427399
-0.000446778
0.000413181
-0.000504261
0.000392904
-0.000562416
0.000366119
-0.000620923
0.000331719
-0.000679019
0.000288063
-0.000735287
0.000233146
-0.000787459
0.000164849
-0.000832239
8.13368e-05
-0.000865439
-1.82967e-05
-0.000881829
-0.000133558
-0.000875991
-0.000260925
-0.000842974
-0.000393679
-0.000779527
-0.000521081
-0.00068551
-0.000628736
-0.000565256
-0.000700118
-0.000428395
-0.000719607
-0.000289415
-0.000676961
-0.000165245
-0.000572242
-7.10106e-05
-0.00041872
-1.56984e-05
-0.000240762
-6.7793e-05
-1.14482e-05
9.4246e-05
-3.97492e-05
0.000236973
-7.97594e-05
0.000340014
-0.000127439
0.000410511
-0.000179861
0.000455443
-0.000235098
0.000481021
-0.000292048
0.000492378
-0.000350246
0.000493422
-0.000409667
0.00048682
-0.000470556
0.000474071
-0.000533262
0.000455609
-0.000598056
0.000430913
-0.000664941
0.000398605
-0.000733415
0.000356538
-0.000802202
0.000301932
-0.000868968
0.000231615
-0.000930083
0.000142451
-0.000980495
3.21152e-05
-0.00101396
-0.000100091
-0.00102332
-0.000251565
-0.00100157
-0.000415434
-0.000943096
-0.000579552
-0.000845472
-0.00072636
-0.000711388
-0.000834203
-0.000550393
-0.000880602
-0.000379435
-0.000847918
-0.000220795
-0.000730882
-9.66145e-05
-0.000542901
-2.18767e-05
-0.000315499
-8.96697e-05
-1.201e-05
0.000106256
-4.17462e-05
0.000266709
-8.36929e-05
0.00038196
-0.000133494
0.000460312
-0.00018803
0.000509978
-0.000245313
0.000538305
-0.000304302
0.000551368
-0.000364684
0.000553804
-0.000426665
0.000548801
-0.000490781
0.000538187
-0.000557716
0.000522544
-0.000628112
0.00050131
-0.000702349
0.000472842
-0.000780268
0.000434457
-0.000860846
0.000382511
-0.000941843
0.000312611
-0.00101948
0.000220089
-0.0010882
0.000100835
-0.00114085
-4.74364e-05
-0.00116889
-0.000223527
-0.0011633
-0.000421023
-0.00111588
-0.000626978
-0.00102111
-0.000821129
-0.000878675
-0.000976636
-0.000696283
-0.00106299
-0.000491879
-0.00105232
-0.000293061
-0.0009297
-0.000131136
-0.000704826
-3.05245e-05
-0.000416111
-0.000120194
-1.26229e-05
0.000118879
-4.39043e-05
0.00029799
-8.78457e-05
0.000425902
-0.000139682
0.000512149
-0.000196045
0.000566341
-0.000254859
0.000597119
-0.000315132
0.00061164
-0.000376699
0.00061537
-0.000439988
0.00061209
-0.000505816
0.000604014
-0.000575193
0.000591921
-0.000649129
0.000575246
-0.00072839
0.000552104
-0.000813209
0.000519276
-0.000902919
0.00047222
-0.000995556
0.000405249
-0.00108749
0.000312019
-0.00117313
0.000186478
-0.00124487
2.43069e-05
-0.00129343
-0.000174967
-0.00130829
-0.000406167
-0.00127879
-0.000656475
-0.00119588
-0.00090404
-0.00105481
-0.00111771
-0.000859046
-0.00125876
-0.000624738
-0.00128663
-0.000383153
-0.00117129
-0.000176218
-0.000911761
-4.23246e-05
-0.000550005
-0.000162519
-1.33501e-05
0.000132229
-4.64063e-05
0.000331047
-9.25014e-05
0.000471997
-0.000146322
0.000565969
-0.000204172
0.000624191
-0.000263856
0.000656803
-0.00032441
0.000672195
-0.000385802
0.000676762
-0.000448654
0.000674942
-0.000514018
0.000669379
-0.00058318
0.000661083
-0.000657456
0.000649522
-0.000737963
0.000632611
-0.000825321
0.000606633
-0.000919294
0.000566193
-0.00101839
0.000504349
-0.00111949
0.000413118
-0.00121752
0.000284507
-0.00130528
0.000112067
-0.00137343
-0.000106819
-0.00141115
-0.000368447
-0.00140598
-0.000661647
-0.0013454
-0.000964616
-0.00121926
-0.00124385
-0.00102426
-0.00145376
-0.000770746
-0.00154015
-0.000489687
-0.00145234
-0.000233019
-0.00116843
-5.8058e-05
-0.000724965
-0.000220577
-1.42981e-05
0.000146527
-4.9553e-05
0.000366302
-9.81238e-05
0.000520568
-0.000153947
0.000621793
-0.000212903
0.000683147
-0.000272643
0.000716542
-0.000332222
0.000731774
-0.000391719
0.000736258
-0.000451904
0.000735128
-0.000513997
0.000731472
-0.000579462
0.000726548
-0.000649823
0.000719883
-0.000726452
0.00070924
-0.000810311
0.000690492
-0.000901637
0.000657519
-0.000999596
0.000602308
-0.00110194
0.000515461
-0.00120471
0.000387282
-0.0013021
0.000209458
-0.00138548
-2.34401e-05
-0.00144544
-0.00030849
-0.00146871
-0.000638381
-0.0014403
-0.000993021
-0.00134462
-0.00133953
-0.00116973
-0.00162865
-0.000915791
-0.00179408
-0.000607198
-0.00176094
-0.00030152
-0.00147411
-7.85487e-05
-0.000947937
-0.000299125
-1.56426e-05
0.00016217
-5.38222e-05
0.000404481
-0.000105434
0.00057218
-0.000163383
0.000679742
-0.000223026
0.000742789
-0.00028185
0.000775366
-0.000338943
0.000788867
-0.000394486
0.000791802
-0.000449358
0.00079
-0.000504862
0.000786976
-0.000562529
0.000784214
-0.000623962
0.000781316
-0.000690672
0.000775951
-0.000763886
0.000763707
-0.00084432
0.000737952
-0.000931928
0.000689916
-0.00102566
0.000609191
-0.0011232
0.000484823
-0.00122069
0.000306945
-0.00131254
6.84085e-05
-0.00138999
-0.00023104
-0.00144185
-0.000586518
-0.00145218
-0.000982687
-0.00140115
-0.00139056
-0.00126788
-0.00176192
-0.00103898
-0.00202298
-0.000724777
-0.00207514
-0.00037956
-0.00181932
-0.000104556
-0.00122294
-0.000403681
-1.76716e-05
0.000179841
-5.99575e-05
0.000446767
-0.000115511
0.000627733
-0.000175833
0.000740063
-0.000235674
0.000802631
-0.000292411
0.000832103
-0.000345234
0.00084169
-0.00039446
0.000841028
-0.000441058
0.000836598
-0.000486346
0.000832264
-0.000531823
0.000829692
-0.000579056
0.000828549
-0.000629586
0.00082648
-0.000684827
0.000818948
-0.000745964
0.000799089
-0.000813827
0.000757779
-0.000888759
0.000684123
-0.000970432
0.000566495
-0.00105756
0.000394073
-0.00114766
0.000158506
-0.00123492
-0.000143781
-0.00131094
-0.00051049
-0.00136115
-0.000932484
-0.00136395
-0.00138776
-0.00129137
-0.0018345
-0.00111549
-0.00219886
-0.00082613
-0.0023645
-0.000461904
-0.00218355
-0.00013663
-0.00154822
-0.000540311
-2.08657e-05
0.000200707
-6.91105e-05
0.000495012
-0.000129925
0.000688548
-0.000192944
0.000803081
-0.000252318
0.000862006
-0.000305484
0.000885268
-0.000351902
0.000888108
-0.000392133
0.00088126
-0.000427268
0.000871732
-0.000458621
0.000863617
-0.000487603
0.000858674
-0.000515671
0.000856617
-0.000544325
0.000855133
-0.00057512
0.000849743
-0.000609688
0.000833658
-0.00064975
0.00079784
-0.000697091
0.000731465
-0.000753451
0.000622855
-0.00082025
0.000460871
-0.000898141
0.000236397
-0.000985301
-5.66206e-05
-0.00107691
-0.00041888
-0.00116182
-0.000847575
-0.00121994
-0.00132965
-0.00121996
-0.00183447
-0.00112182
-0.002297
-0.000891754
-0.00259457
-0.000539862
-0.00253544
-0.000174911
-0.00191317
-0.000715222
-2.60556e-05
0.000226763
-8.30756e-05
0.000552032
-0.000150909
0.000756381
-0.000216836
0.000869008
-0.000274622
0.000919792
-0.000322143
0.00093279
-0.000359456
0.000925421
-0.000387573
0.000909376
-0.000407816
0.000891975
-0.000421544
0.000877345
-0.000430086
0.000867216
-0.000434782
0.000861313
-0.000437076
0.000857426
-0.000438638
0.000851305
-0.000441511
0.000836531
-0.000448239
0.000804569
-0.000461944
0.00074517
-0.000486247
0.000647159
-0.000525016
0.00049964
-0.000581777
0.000293157
-0.000658835
2.04381e-05
-0.000754971
-0.000322745
-0.000864156
-0.000738389
-0.000970846
-0.00122296
-0.00104539
-0.00175993
-0.00104113
-0.00230126
-0.000902541
-0.00273316
-0.000601795
-0.00283619
-0.000218755
-0.00229621
-0.000933977
-3.47348e-05
0.000261498
-0.000104669
0.000621966
-0.000181526
0.000833238
-0.000249944
0.000937427
-0.000303949
0.000973797
-0.000342586
0.000971426
-0.000367036
0.000949871
-0.000379098
0.000921438
-0.000380528
0.000893405
-0.000372849
0.000869666
-0.000357388
0.000851755
-0.000335416
0.000839341
-0.000308338
0.000830349
-0.000277926
0.000820893
-0.000246554
0.000805159
-0.000217427
0.000775442
-0.000194773
0.000722515
-0.00018369
0.000636076
-0.000189969
0.00050592
-0.000219515
0.000322703
-0.000277621
7.85442e-05
-0.000367181
-0.000233185
-0.000487481
-0.000618089
-0.000629694
-0.00108074
-0.000770797
-0.00161883
-0.000865248
-0.00220681
-0.000842601
-0.0027558
-0.000634071
-0.00304472
-0.000265965
-0.00266431
-0.00119994
-4.96723e-05
0.00031117
-0.000138278
0.000710571
-0.000225649
0.000920609
-0.000294282
0.00100606
-0.000339956
0.00101947
-0.000364125
0.000995595
-0.000369889
0.000955635
-0.000360303
0.000911852
-0.000337839
0.000870941
-0.00030437
0.000836197
-0.000261338
0.000808724
-0.000210026
0.000788029
-0.000151817
0.00077214
-8.85271e-05
0.000757603
-2.27345e-05
0.000739367
4.19327e-05
0.000710774
0.000100732
0.000663716
0.000147511
0.000589296
0.000175161
0.00047827
0.00017603
0.000321834
0.000142598
0.000111977
6.85406e-05
-0.000159128
-4.97332e-05
-0.000499815
-0.000211445
-0.000919032
-0.000404204
-0.00142607
-0.000591484
-0.00201953
-0.000698984
-0.0026483
-0.000621107
-0.0031226
-0.000311239
-0.00297418
-0.00151118
-7.60479e-05
0.000387218
-0.000190363
0.000824887
-0.000286912
0.00101716
-0.000348803
0.00106795
-0.000376589
0.00104726
-0.000376082
0.000995088
-0.000353386
0.000932939
-0.000313387
0.000871853
-0.000259596
0.000817151
-0.000194425
0.000771026
-0.000119506
0.000733805
-3.61782e-05
0.000704701
5.42382e-05
0.000681724
0.000150033
0.000661808
0.000248726
0.000640673
0.000346711
0.000612789
0.000438966
0.000571462
0.00051908
0.000509182
0.000579322
0.000418028
0.000611038
0.000290119
0.000605158
0.000117856
0.000552773
-0.000106742
0.00044585
-0.000392893
0.000278565
-0.000751747
5.1879e-05
-0.00119938
-0.000214813
-0.00175283
-0.000457184
-0.00240593
-0.000543193
-0.00303659
-0.000343694
-0.00317368
-0.00185488
-0.000123336
0.000510554
-0.000268589
0.00097014
-0.000363551
0.00111212
-0.000400625
0.00110502
-0.000390657
0.00103729
-0.000346622
0.000951053
-0.00027887
0.000865187
-0.000194616
0.000787599
-9.85276e-05
0.000721062
6.51784e-06
0.000665981
0.000118677
0.000621646
0.000236866
0.000586512
0.000360043
0.000558547
0.000486866
0.000534985
0.000615269
0.00051227
0.000742079
0.000485979
0.000862706
0.000450835
0.000970999
0.000400888
0.00105927
0.000329758
0.00111848
0.000230908
0.00113851
9.7829e-05
0.00110853
-7.67627e-05
0.00101736
-0.000301724
0.00085322
-0.000587608
0.000605999
-0.000952164
0.000277789
-0.00142462
-8.88875e-05
-0.00203926
-0.000371118
-0.00275436
-0.000348046
-0.00319675
-0.00220292
-0.000207738
0.000718292
-0.000372281
0.00113468
-0.000427269
0.00116711
-0.000396609
0.00107436
-0.000310036
0.000950716
-0.000190504
0.000831521
-5.28323e-05
0.000727515
9.40743e-05
0.000640693
0.000245242
0.000569895
0.000398142
0.00051308
0.000551703
0.000468084
0.000705501
0.000432715
0.000859325
0.000404723
0.00101268
0.00038163
0.00116437
0.000360583
0.0013121
0.00033825
0.00145216
0.000310776
0.00157919
0.000273849
0.00168614
0.000222814
0.00176417
0.000152877
0.00180254
5.94611e-05
0.00178928
-6.35001e-05
0.0017107
-0.000223148
0.00155082
-0.000427725
0.00129156
-0.000692904
0.000916643
-0.00104971
0.000433133
-0.00155575
-5.28989e-05
-0.00226832
-0.000284104
-0.00296554
-0.00248703
-0.000341404
0.0010597
-0.000431396
0.00122467
-0.000342067
0.00107778
-0.00015861
0.000890908
6.38401e-05
0.000728266
0.000297002
0.000598359
0.000526805
0.000497712
0.000747166
0.000420332
0.000956199
0.000360862
0.00115413
0.000315152
0.00134215
0.000280065
0.00152175
0.000253109
0.00169431
0.000232167
0.00186068
0.000215259
0.0020209
0.000200367
0.00217383
0.000185316
0.00231689
0.000167713
0.00244579
0.000144952
0.00255438
0.000114222
0.0026347
7.25597e-05
0.00267631
1.78526e-05
0.00266717
-5.43688e-05
0.00259166
-0.000147638
0.00243167
-0.000267727
0.00216418
-0.000425415
0.00176046
-0.000645994
0.00119156
-0.000986845
0.000503895
-0.00158066
-3.1171e-05
-0.00243048
-0.0025182
-0.0003013
0.001361
-4.68392e-05
0.000970214
0.00038397
0.00064697
0.000805471
0.000469406
0.00118685
0.00034689
0.00152406
0.000261151
0.00181976
0.000202009
0.00207926
0.000160832
0.00230855
0.000131574
0.00251324
0.000110455
0.00269824
9.50691e-05
0.00286759
8.37602e-05
0.00302447
7.52896e-05
0.00317109
6.86386e-05
0.00330858
6.28784e-05
0.0034368
5.70881e-05
0.0035542
5.03138e-05
0.00365759
4.15674e-05
0.00374194
2.98721e-05
0.0038001
1.43935e-05
0.00382423
-6.27649e-06
0.00380374
-3.38732e-05
0.00372338
-6.72783e-05
0.0035663
-0.000110648
0.00330854
-0.000167657
0.00291425
-0.000251708
0.00232541
-0.000398002
0.00148817
-0.000743421
0.000505321
-0.00144763
-0.00201288
0.001361
0.00233121
0.00297818
0.00344759
0.00379448
0.00405563
0.00425764
0.00441847
0.00455004
0.0046605
0.00475556
0.00483932
0.00491461
0.00498325
0.00504613
0.00510322
0.00515353
0.0051951
0.00522497
0.00523937
0.00523309
0.00519922
0.00513194
0.00502129
0.00485363
0.00460193
0.00420392
0.0034605
0.00201288
)
;

boundaryField
{
    movingWall
    {
        type            calculated;
        value           uniform 0;
    }
    fixedWalls
    {
        type            calculated;
        value           uniform 0;
    }
    frontAndBack
    {
        type            empty;
        value           nonuniform 0();
    }
}


// ************************************************************************* //
