/*--------------------------------*- C++ -*----------------------------------*\
  =========                 |
  \\      /  F ield         | OpenFOAM: The Open Source CFD Toolbox
   \\    /   O peration     | Website:  https://openfoam.org
    \\  /    A nd           | Version:  7
     \\/     M anipulation  |
\*---------------------------------------------------------------------------*/
FoamFile
{
    version     2.0;
    format      ascii;
    class       volVectorField;
    location    "1.58";
    object      U;
}
// * * * * * * * * * * * * * * * * * * * * * * * * * * * * * * * * * * * * * //

dimensions      [0 1 -1 0 0 0 0];

internalField   nonuniform List<vector> 
1936
(
(-18.2865 2.52194 0)
(-55.4852 214.584 0)
(13.6023 406.355 0)
(19.8653 350.49 0)
(3.618 272.963 0)
(-1.24257 236.68 0)
(-19.0417 222.845 0)
(-26.4933 252.442 0)
(-35.6481 377.899 0)
(3.51376 465.967 0)
(39.7079 357.321 0)
(28.41 229.268 0)
(19.9663 197.59 0)
(2.03869 197.694 0)
(-13.8995 240.742 0)
(-25.9 359.514 0)
(-0.667936 437.223 0)
(26.5005 348.798 0)
(14.0098 225.965 0)
(-3.71702 187.293 0)
(-20.1213 188.551 0)
(-31.08 230.332 0)
(-36.9532 373.312 0)
(7.62422 464.32 0)
(40.4599 350.983 0)
(29.3379 218.305 0)
(20.9037 183.131 0)
(2.5305 183.859 0)
(-13.4019 224.797 0)
(-27.3631 344.096 0)
(-6.97936 438.722 0)
(26.4038 360.571 0)
(16.4897 226.622 0)
(-3.97855 183.966 0)
(-18.7525 186.535 0)
(-32.707 239.482 0)
(-34.8947 396.614 0)
(17.1501 458.46 0)
(41.0467 313.921 0)
(25.2668 193.848 0)
(13.8884 175.206 0)
(-2.64467 181.826 0)
(-25.3517 268.506 0)
(-22.1718 417.07 0)
(-18.1312 6.32377 0)
(-64.3179 -3.18466 0)
(10.3067 -5.07404 0)
(22.3969 -0.19474 0)
(3.6325 1.69355 0)
(-3.06439 2.46216 0)
(-14.7372 2.597 0)
(-21.7288 0.611665 0)
(-35.9297 -3.1103 0)
(3.28952 -5.35742 0)
(39.1523 -2.8179 0)
(22.5064 0.940344 0)
(15.528 2.95871 0)
(4.19052 3.40413 0)
(-12.2876 1.9032 0)
(-27.2313 -1.37547 0)
(-0.691784 -3.65604 0)
(27.3278 -1.55634 0)
(11.8276 2.02227 0)
(-5.37544 3.54421 0)
(-14.976 2.9765 0)
(-25.4191 0.447261 0)
(-36.8578 -3.81057 0)
(7.96372 -5.57052 0)
(40.6405 -2.52404 0)
(23.7772 0.974438 0)
(15.703 2.9656 0)
(4.55208 3.50941 0)
(-11.7051 2.16432 0)
(-29.0151 -0.914575 0)
(-7.44562 -3.74823 0)
(27.1429 -2.16067 0)
(13.9941 1.82774 0)
(-5.79921 3.68136 0)
(-13.2441 3.05101 0)
(-27.4773 0.120202 0)
(-35.2681 -4.37907 0)
(18.1723 -5.38105 0)
(40.5191 -1.68424 0)
(18.7691 1.85594 0)
(11.0908 3.41324 0)
(1.07348 3.44716 0)
(-24.578 0.623774 0)
(-23.8718 -3.34856 0)
(-5.51531 13.4462 0)
(-65.2002 -5.49384 0)
(-1.63339 -11.5152 0)
(20.5943 -1.16777 0)
(10.2482 3.40484 0)
(4.14711 4.7096 0)
(-5.65261 5.17413 0)
(-17.5139 2.07177 0)
(-35.6414 -5.95919 0)
(3.87586 -11.4324 0)
(39.6173 -5.24989 0)
(18.8042 2.70369 0)
(7.41164 5.81507 0)
(-3.23913 6.56495 0)
(-16.988 4.03917 0)
(-29.1447 -3.00445 0)
(0.442569 -8.18188 0)
(30.1742 -3.24152 0)
(16.2892 4.30089 0)
(1.82698 6.77548 0)
(-7.33889 5.89807 0)
(-21.7281 1.80433 0)
(-38.2036 -7.34722 0)
(6.16032 -11.9405 0)
(40.5339 -4.75913 0)
(21.0659 2.81959 0)
(7.61343 5.9133 0)
(-3.07647 6.7559 0)
(-16.9526 4.56611 0)
(-30.9293 -2.04271 0)
(-5.35911 -8.41685 0)
(30.5825 -4.49665 0)
(18.1126 3.97541 0)
(1.10743 7.0334 0)
(-6.17645 6.09463 0)
(-24.4131 1.20557 0)
(-37.0313 -8.73326 0)
(16.9317 -11.5672 0)
(40.7732 -2.81058 0)
(15.6931 4.41069 0)
(3.99342 6.59115 0)
(-5.50478 6.89686 0)
(-28.6956 1.59537 0)
(-25.55 -7.4696 0)
(7.40944 18.9336 0)
(-55.8828 -5.4065 0)
(-10.9553 -16.7671 0)
(10.4392 -3.60893 0)
(7.75535 3.8995 0)
(4.94364 6.19731 0)
(2.17122 7.41319 0)
(-6.74291 3.91452 0)
(-25.9967 -7.9164 0)
(3.17135 -16.261 0)
(28.7031 -6.79545 0)
(7.18512 4.83715 0)
(-1.65459 8.42798 0)
(-6.06754 8.80225 0)
(-12.8709 5.27433 0)
(-22.2891 -4.79492 0)
(1.124 -12.2129 0)
(23.4341 -4.88312 0)
(12.0591 5.73551 0)
(5.15215 9.07845 0)
(2.03247 8.53426 0)
(-8.99072 3.63852 0)
(-28.3924 -9.69169 0)
(3.47789 -17.1087 0)
(29.2903 -6.41097 0)
(10.0929 4.98714 0)
(-1.72204 8.72098 0)
(-5.96461 9.13184 0)
(-13.3394 6.01054 0)
(-23.4845 -3.54671 0)
(-2.75875 -12.6078 0)
(24.1976 -6.55529 0)
(12.8392 5.36334 0)
(4.09536 9.43177 0)
(3.04193 8.83278 0)
(-11.3219 2.79449 0)
(-28.3517 -11.8163 0)
(12.1648 -16.6067 0)
(29.1107 -3.49529 0)
(5.4447 7.07492 0)
(-2.72626 9.44906 0)
(-5.59459 9.38266 0)
(-21.0624 1.93164 0)
(-20.5875 -11.2068 0)
(15.5255 22.8023 0)
(-45.1343 -3.36675 0)
(-18.7113 -20.003 0)
(-0.139544 -6.79154 0)
(3.15776 3.1895 0)
(1.88047 6.72585 0)
(4.04148 8.78585 0)
(-0.219817 5.39371 0)
(-17.6951 -8.93722 0)
(2.30272 -19.2 0)
(18.8702 -7.43109 0)
(-0.649936 6.74154 0)
(-6.34109 10.3993 0)
(-6.23482 10.0317 0)
(-9.53643 5.57997 0)
(-16.0343 -6.41653 0)
(1.74846 -15.0945 0)
(17.3555 -6.24133 0)
(8.87645 6.24549 0)
(5.7116 10.36 0)
(7.00504 10.4655 0)
(-0.223989 5.3599 0)
(-19.3361 -10.7191 0)
(1.03601 -20.3329 0)
(19.221 -7.37999 0)
(2.45227 6.90488 0)
(-6.64458 10.9244 0)
(-5.77311 10.5469 0)
(-10.3162 6.48927 0)
(-16.7088 -5.10553 0)
(-0.440622 -15.6231 0)
(18.2713 -8.05561 0)
(8.82208 5.89527 0)
(4.37289 10.7196 0)
(7.88793 10.7721 0)
(-2.08984 4.33628 0)
(-20.2241 -13.3377 0)
(7.56366 -19.7537 0)
(19.0589 -3.76655 0)
(-1.57214 9.24467 0)
(-5.8466 11.5762 0)
(-4.32999 10.7089 0)
(-14.7124 1.66498 0)
(-15.9624 -13.8771 0)
(19.2801 25.0563 0)
(-32.5061 0.120742 0)
(-22.2747 -20.7013 0)
(-8.97879 -10.0313 0)
(-3.20336 1.53925 0)
(-3.87403 6.39829 0)
(1.74738 9.00908 0)
(2.63094 5.98406 0)
(-11.1723 -9.20994 0)
(1.22514 -20.2107 0)
(10.4535 -7.30077 0)
(-5.34756 8.00822 0)
(-7.33808 11.4942 0)
(-3.22525 10.4251 0)
(-5.74425 5.25938 0)
(-10.3118 -7.73826 0)
(2.16659 -16.7323 0)
(11.8587 -7.21509 0)
(5.33814 6.14974 0)
(3.18996 10.8202 0)
(8.27809 11.4789 0)
(4.90967 6.59069 0)
(-11.5284 -10.5537 0)
(-0.75693 -21.4813 0)
(10.704 -7.72976 0)
(-2.62585 8.15793 0)
(-7.88693 12.2167 0)
(-2.55101 11.1455 0)
(-6.50592 6.3082 0)
(-10.5135 -6.55008 0)
(1.25605 -17.3407 0)
(12.7726 -8.9247 0)
(4.78946 5.87605 0)
(1.8321 11.1111 0)
(9.08753 11.6939 0)
(3.52303 5.47693 0)
(-13.0381 -13.3946 0)
(3.66835 -20.9063 0)
(10.7466 -3.71701 0)
(-6.06928 10.5456 0)
(-6.03972 12.7341 0)
(-0.446369 11.0692 0)
(-8.9882 1.12753 0)
(-11.688 -15.3989 0)
(19.6493 25.6395 0)
(-19.9352 4.22618 0)
(-20.9064 -18.7332 0)
(-14.1512 -12.3424 0)
(-9.17457 -0.616619 0)
(-8.86169 5.32238 0)
(-1.58211 7.96754 0)
(3.15892 5.43922 0)
(-6.41337 -8.99016 0)
(-0.0896396 -19.432 0)
(3.5046 -6.63836 0)
(-7.84607 8.31967 0)
(-6.22068 11.4835 0)
(0.545419 10.086 0)
(-1.45733 4.6322 0)
(-5.18781 -8.54061 0)
(2.23099 -17.0267 0)
(6.8969 -7.56495 0)
(1.16928 5.75111 0)
(-0.0886984 10.5522 0)
(7.30528 11.41 0)
(7.39086 7.04122 0)
(-5.14859 -9.47674 0)
(-1.65004 -20.6085 0)
(3.89931 -7.52809 0)
(-5.79766 8.4387 0)
(-6.81288 12.3454 0)
(1.1081 10.9829 0)
(-1.90879 5.75989 0)
(-5.03412 -7.576 0)
(2.11224 -17.6462 0)
(7.70967 -8.99678 0)
(0.464883 5.56201 0)
(-1.1552 10.7409 0)
(7.97068 11.4766 0)
(6.40676 5.92094 0)
(-6.87884 -12.2685 0)
(0.870241 -20.1064 0)
(4.21109 -3.46472 0)
(-8.40889 10.7392 0)
(-4.4782 12.7041 0)
(3.82455 10.6051 0)
(-4.01365 0.693953 0)
(-7.71698 -15.6731 0)
(17.798 24.6037 0)
(-8.77548 8.02992 0)
(-15.413 -14.5926 0)
(-14.721 -12.9347 0)
(-12.411 -2.73163 0)
(-10.7376 3.54112 0)
(-3.51523 5.92517 0)
(2.65607 3.95595 0)
(-3.19477 -8.43144 0)
(-1.53788 -17.1718 0)
(-1.88429 -5.72545 0)
(-8.92823 7.6028 0)
(-4.51711 10.3335 0)
(3.07146 9.12119 0)
(2.60063 3.79749 0)
(-1.03241 -8.61299 0)
(1.85756 -15.9392 0)
(2.63782 -7.17512 0)
(-2.93502 5.13662 0)
(-2.37399 9.64995 0)
(5.52302 10.3018 0)
(8.23539 6.64765 0)
(-0.285444 -7.84976 0)
(-1.67377 -17.9777 0)
(-0.982966 -6.80715 0)
(-7.46319 7.73582 0)
(-4.96682 11.2676 0)
(3.46597 10.1266 0)
(2.63299 4.92527 0)
(-0.669486 -7.87765 0)
(2.1264 -16.502 0)
(3.29531 -8.25093 0)
(-3.52048 5.01141 0)
(-2.99732 9.71711 0)
(6.0377 10.2157 0)
(7.55506 5.58776 0)
(-1.89478 -10.3344 0)
(-0.743232 -17.5982 0)
(-0.505806 -3.07336 0)
(-9.04876 9.8472 0)
(-2.55284 11.5373 0)
(6.24618 9.5397 0)
(-0.022411 0.395067 0)
(-4.11427 -14.6836 0)
(14.3389 22.1225 0)
(0.174021 10.6803 0)
(-7.65347 -9.27431 0)
(-11.039 -11.5856 0)
(-11.5637 -4.30688 0)
(-9.44267 1.34762 0)
(-3.52905 3.45376 0)
(1.92194 2.00023 0)
(-1.1898 -7.52366 0)
(-2.74926 -13.9191 0)
(-5.33876 -4.7345 0)
(-8.92871 5.99595 0)
(-3.27885 8.29823 0)
(3.87114 7.53668 0)
(5.29503 2.76226 0)
(1.6731 -7.83015 0)
(1.12238 -13.6169 0)
(-0.64254 -6.12699 0)
(-5.73936 4.29474 0)
(-3.24296 8.16441 0)
(3.91719 8.43511 0)
(7.96033 5.50992 0)
(2.79602 -5.94998 0)
(-1.18953 -14.1042 0)
(-3.79525 -5.57059 0)
(-7.826 6.23173 0)
(-3.42926 9.27887 0)
(4.2436 8.58505 0)
(5.79982 3.81556 0)
(2.16911 -7.26094 0)
(1.58328 -14.0586 0)
(-0.0655641 -6.87052 0)
(-6.01176 4.1891 0)
(-3.41914 8.12249 0)
(4.3589 8.24259 0)
(7.53759 4.56577 0)
(1.50908 -7.9322 0)
(-1.39119 -13.8707 0)
(-3.33054 -2.50098 0)
(-8.4375 8.12495 0)
(-1.28445 9.5313 0)
(6.63069 8.02668 0)
(2.92638 0.111849 0)
(-1.14952 -12.5769 0)
(10.0249 18.5546 0)
(6.08243 11.6529 0)
(-0.11162 -4.03051 0)
(-4.95278 -8.73616 0)
(-7.43664 -4.89596 0)
(-6.44584 -0.630293 0)
(-2.52853 1.17103 0)
(1.35122 0.113242 0)
(-0.0423484 -6.32031 0)
(-3.18398 -10.3102 0)
(-6.53411 -3.77404 0)
(-7.86845 3.89678 0)
(-2.53591 5.82542 0)
(3.43176 5.45266 0)
(5.90586 1.65886 0)
(2.77413 -6.35198 0)
(0.248728 -10.4679 0)
(-2.74041 -4.66473 0)
(-6.51455 3.24327 0)
(-3.09027 6.1993 0)
(2.68476 6.23384 0)
(6.69567 3.95818 0)
(3.9186 -4.03737 0)
(-0.678636 -9.7425 0)
(-4.60808 -3.9983 0)
(-6.89894 4.36074 0)
(-2.35061 6.84695 0)
(3.88657 6.47985 0)
(6.71538 2.61817 0)
(3.4497 -5.86841 0)
(0.853675 -10.7503 0)
(-2.15625 -5.14431 0)
(-6.43651 3.12683 0)
(-2.99237 6.0813 0)
(3.05245 6.01608 0)
(6.4905 3.1822 0)
(3.01877 -5.44195 0)
(-1.39662 -9.62809 0)
(-4.35017 -1.76203 0)
(-6.85703 5.97569 0)
(-0.620369 7.13397 0)
(5.88343 6.12612 0)
(4.59911 -0.155717 0)
(0.746089 -9.67125 0)
(5.90702 14.5119 0)
(7.91177 10.9239 0)
(4.73743 -0.00753653 0)
(0.923311 -5.29913 0)
(-2.31493 -4.3179 0)
(-3.00135 -1.78214 0)
(-1.08392 -0.517194 0)
(1.21522 -1.27214 0)
(0.543556 -4.97548 0)
(-2.7444 -6.97645 0)
(-5.77716 -2.93497 0)
(-5.97997 1.85549 0)
(-1.91427 3.37734 0)
(2.48021 3.26128 0)
(4.81437 0.679051 0)
(2.64304 -4.56688 0)
(-0.449048 -7.11053 0)
(-3.55346 -3.16949 0)
(-5.61081 2.09094 0)
(-2.5328 4.09603 0)
(1.62373 4.09012 0)
(4.73798 2.46381 0)
(3.44473 -2.35601 0)
(-0.366059 -5.74638 0)
(-3.95737 -2.41853 0)
(-5.07206 2.64072 0)
(-1.47023 4.42648 0)
(3.03522 4.22869 0)
(5.70607 1.52503 0)
(3.44728 -4.11963 0)
(0.250663 -7.22351 0)
(-2.93678 -3.43752 0)
(-5.31402 1.9866 0)
(-2.32418 3.96036 0)
(1.91255 3.88854 0)
(4.6826 1.8831 0)
(2.89414 -3.23518 0)
(-1.06335 -5.69158 0)
(-3.90108 -0.98679 0)
(-4.748 3.86095 0)
(-0.209373 4.77052 0)
(4.58446 4.07937 0)
(4.77136 -0.320019 0)
(1.52814 -6.49577 0)
(3.16976 10.6479 0)
(6.70379 9.02328 0)
(6.35808 2.27777 0)
(4.36871 -2.28316 0)
(1.58713 -2.93333 0)
(0.126082 -1.99762 0)
(0.54338 -1.46689 0)
(1.44954 -1.97343 0)
(0.810167 -3.67932 0)
(-1.75934 -4.37999 0)
(-3.93293 -2.25801 0)
(-3.8325 0.295729 0)
(-1.28257 1.35067 0)
(1.52411 1.39731 0)
(3.10083 -0.0420348 0)
(1.85437 -2.90548 0)
(-0.73404 -4.19254 0)
(-3.15916 -1.93598 0)
(-3.98063 1.05609 0)
(-1.89863 2.27354 0)
(0.727617 2.31275 0)
(2.69735 1.33111 0)
(2.18449 -1.09671 0)
(-0.261416 -2.75225 0)
(-2.65964 -1.16907 0)
(-3.06216 1.35585 0)
(-0.74693 2.416 0)
(2.08152 2.30698 0)
(3.86652 0.687463 0)
(2.60909 -2.4779 0)
(-0.0732731 -4.14502 0)
(-2.60821 -2.02611 0)
(-3.64067 1.0059 0)
(-1.67294 2.18015 0)
(0.936821 2.13419 0)
(2.70842 0.932928 0)
(1.8822 -1.58455 0)
(-0.728594 -2.71295 0)
(-2.69877 -0.356021 0)
(-2.73634 2.17783 0)
(0.0594845 2.75848 0)
(3.09645 2.28244 0)
(3.68524 -0.328881 0)
(1.45121 -3.67651 0)
(1.81022 7.54509 0)
(4.43318 6.76808 0)
(5.39502 2.96441 0)
(4.75496 -0.265476 0)
(3.10368 -1.46107 0)
(1.92215 -1.60831 0)
(1.65523 -1.69064 0)
(1.63113 -2.01261 0)
(0.892893 -2.57725 0)
(-0.726342 -2.66526 0)
(-2.00896 -1.75218 0)
(-1.98836 -0.63854 0)
(-0.707742 -0.0175702 0)
(0.801323 0.129905 0)
(1.63742 -0.461199 0)
(0.990682 -1.66323 0)
(-0.645588 -2.13652 0)
(-2.12436 -1.08029 0)
(-2.41761 0.33735 0)
(-1.29395 0.992328 0)
(0.138657 1.06208 0)
(1.16778 0.624889 0)
(0.996494 -0.325456 0)
(-0.216027 -0.959065 0)
(-1.41443 -0.403769 0)
(-1.50014 0.55472 0)
(-0.281228 1.03207 0)
(1.22673 0.9836 0)
(2.14037 0.194094 0)
(1.50078 -1.24404 0)
(-0.184572 -1.9628 0)
(-1.74289 -1.02921 0)
(-2.15216 0.3553 0)
(-1.11398 0.952792 0)
(0.264297 0.931029 0)
(1.17378 0.381388 0)
(0.827243 -0.568789 0)
(-0.478168 -0.923702 0)
(-1.46818 0.0206531 0)
(-1.2972 1.06219 0)
(0.156187 1.32705 0)
(1.76805 1.03128 0)
(2.17979 -0.220742 0)
(0.957639 -1.66331 0)
(1.071 5.37567 0)
(2.54552 4.84803 0)
(3.5185 2.72405 0)
(3.50099 0.741891 0)
(2.80301 -0.422404 0)
(2.13626 -1.02702 0)
(1.7461 -1.39618 0)
(1.39605 -1.62811 0)
(0.800932 -1.75137 0)
(-0.0255264 -1.69361 0)
(-0.647714 -1.40763 0)
(-0.706363 -1.05177 0)
(-0.221993 -0.760017 0)
(0.394312 -0.567266 0)
(0.705373 -0.630839 0)
(0.38246 -0.91098 0)
(-0.42343 -0.974498 0)
(-1.13995 -0.56813 0)
(-1.26664 -0.0311535 0)
(-0.778628 0.261967 0)
(-0.123273 0.339461 0)
(0.327548 0.252349 0)
(0.298089 0.0255792 0)
(-0.141389 -0.146631 0)
(-0.572656 -0.0548891 0)
(-0.561781 0.146544 0)
(-0.0452268 0.271584 0)
(0.605715 0.259385 0)
(0.95749 -0.00908829 0)
(0.639424 -0.495429 0)
(-0.183369 -0.732206 0)
(-0.937744 -0.433278 0)
(-1.11673 0.0399287 0)
(-0.680603 0.272462 0)
(-0.0777776 0.276728 0)
(0.298154 0.126234 0)
(0.179784 -0.0849518 0)
(-0.2917 -0.121244 0)
(-0.630003 0.161798 0)
(-0.486134 0.446566 0)
(0.144417 0.498936 0)
(0.840822 0.357322 0)
(0.998101 -0.0843246 0)
(0.472481 -0.536759 0)
(0.652491 3.85365 0)
(1.52592 3.53797 0)
(2.12863 2.29467 0)
(2.24915 1.07614 0)
(1.99197 0.139943 0)
(1.62525 -0.516168 0)
(1.29416 -0.94348 0)
(0.970071 -1.15353 0)
(0.617235 -1.21143 0)
(0.264946 -1.20816 0)
(0.00905326 -1.19056 0)
(-0.0678007 -1.14324 0)
(0.0315781 -1.03054 0)
(0.18283 -0.839765 0)
(0.224111 -0.652349 0)
(0.0591616 -0.541771 0)
(-0.249831 -0.445212 0)
(-0.510275 -0.302952 0)
(-0.561611 -0.160797 0)
(-0.399211 -0.0650304 0)
(-0.160427 0.00727015 0)
(0.0100788 0.0733103 0)
(0.0345089 0.106187 0)
(-0.0560943 0.0855682 0)
(-0.145081 0.038198 0)
(-0.115096 -0.0194489 0)
(0.0494183 -0.0432122 0)
(0.246555 -0.0315716 0)
(0.325167 -0.0443771 0)
(0.180798 -0.116213 0)
(-0.127357 -0.16707 0)
(-0.410387 -0.124838 0)
(-0.488426 -0.0506593 0)
(-0.357494 -0.0135216 0)
(-0.166015 0.000122977 0)
(-0.0468191 0.0228779 0)
(-0.0636132 0.0617235 0)
(-0.159201 0.109849 0)
(-0.206394 0.161498 0)
(-0.116837 0.166563 0)
(0.102192 0.130995 0)
(0.321568 0.0927005 0)
(0.340505 0.022435 0)
(0.175476 -0.0423477 0)
(0.412503 2.75321 0)
(1.02268 2.6402 0)
(1.41473 1.90105 0)
(1.52519 1.12756 0)
(1.42571 0.430335 0)
(1.20263 -0.132651 0)
(0.942688 -0.527353 0)
(0.700598 -0.759212 0)
(0.489738 -0.876562 0)
(0.317727 -0.956554 0)
(0.190126 -1.03123 0)
(0.10299 -1.06658 0)
(0.0527973 -1.00706 0)
(0.0234557 -0.835566 0)
(-0.017691 -0.607608 0)
(-0.0854764 -0.40526 0)
(-0.163829 -0.272542 0)
(-0.217029 -0.211498 0)
(-0.220052 -0.193855 0)
(-0.178865 -0.173043 0)
(-0.118071 -0.11233 0)
(-0.0595989 -0.0160956 0)
(-0.0207967 0.0652156 0)
(-0.000695924 0.0788288 0)
(0.0125582 0.0225576 0)
(0.0345326 -0.0651742 0)
(0.0670547 -0.114613 0)
(0.0911378 -0.0885567 0)
(0.0843252 -0.0219931 0)
(0.0289287 0.0307591 0)
(-0.056482 0.0364113 0)
(-0.130537 0.00285359 0)
(-0.160335 -0.0483186 0)
(-0.147897 -0.0875839 0)
(-0.120993 -0.0805631 0)
(-0.097954 -0.0175904 0)
(-0.0840212 0.0613524 0)
(-0.0676993 0.112375 0)
(-0.0389245 0.106931 0)
(0.00542583 0.061999 0)
(0.0555703 0.0227826 0)
(0.0913064 0.0344769 0)
(0.0779953 0.0831699 0)
(0.0505887 0.117358 0)
(0.259009 1.93906 0)
(0.692949 1.95939 0)
(1.00151 1.53968 0)
(1.13173 1.0571 0)
(1.11659 0.575158 0)
(1.00618 0.139131 0)
(0.837737 -0.205191 0)
(0.651997 -0.45257 0)
(0.485111 -0.626868 0)
(0.341528 -0.759179 0)
(0.216474 -0.85922 0)
(0.104238 -0.905184 0)
(0.00607172 -0.865208 0)
(-0.0707263 -0.73426 0)
(-0.121033 -0.551919 0)
(-0.143902 -0.380613 0)
(-0.143884 -0.266801 0)
(-0.130081 -0.219528 0)
(-0.112101 -0.210023 0)
(-0.0958914 -0.195245 0)
(-0.0805957 -0.145258 0)
(-0.0594554 -0.0692277 0)
(-0.0281804 -0.00489215 0)
(0.00929889 0.0147885 0)
(0.0384793 -0.0154974 0)
(0.0509554 -0.065053 0)
(0.0474169 -0.0894633 0)
(0.0324816 -0.0622697 0)
(0.0175293 -0.00125554 0)
(0.00698922 0.0511123 0)
(-0.000786687 0.0632266 0)
(-0.0074084 0.028436 0)
(-0.0150975 -0.0286019 0)
(-0.0271918 -0.0707141 0)
(-0.0404258 -0.0684107 0)
(-0.0458513 -0.0259557 0)
(-0.0393678 0.0278464 0)
(-0.0194325 0.0597634 0)
(0.00488578 0.0568162 0)
(0.0196949 0.0333453 0)
(0.0219567 0.0206426 0)
(0.0163221 0.0477687 0)
(0.00365149 0.101171 0)
(0.00987155 0.128377 0)
(0.158494 1.3434 0)
(0.449482 1.41761 0)
(0.689273 1.19348 0)
(0.833428 0.909218 0)
(0.884219 0.599429 0)
(0.857092 0.295413 0)
(0.777339 0.0183963 0)
(0.662941 -0.211539 0)
(0.531068 -0.397971 0)
(0.396473 -0.545123 0)
(0.264436 -0.649787 0)
(0.139545 -0.699719 0)
(0.0297162 -0.683593 0)
(-0.055489 -0.60567 0)
(-0.10867 -0.491425 0)
(-0.129007 -0.378613 0)
(-0.12463 -0.295774 0)
(-0.10879 -0.24976 0)
(-0.0929628 -0.225394 0)
(-0.0818765 -0.199616 0)
(-0.0729542 -0.158288 0)
(-0.0598066 -0.1066 0)
(-0.0383448 -0.0630095 0)
(-0.0116502 -0.0432358 0)
(0.00937437 -0.0482628 0)
(0.0172302 -0.0613165 0)
(0.0134359 -0.0611213 0)
(0.00489919 -0.0362601 0)
(0.00124733 0.00362404 0)
(0.00729599 0.0361052 0)
(0.0192095 0.0432352 0)
(0.027816 0.0227823 0)
(0.02825 -0.010952 0)
(0.0194979 -0.036061 0)
(0.00501455 -0.0378467 0)
(-0.00624018 -0.0185588 0)
(-0.00862434 0.00755888 0)
(-0.00221036 0.0270444 0)
(0.00593925 0.0336212 0)
(0.00773344 0.0339729 0)
(0.00192367 0.0417991 0)
(-0.00586202 0.0660076 0)
(-0.0117005 0.0989358 0)
(-0.000417299 0.108936 0)
(0.095135 0.916291 0)
(0.280692 0.995615 0)
(0.449238 0.879638 0)
(0.572933 0.720335 0)
(0.647074 0.533107 0)
(0.670355 0.334705 0)
(0.650478 0.139618 0)
(0.596876 -0.042319 0)
(0.517642 -0.201549 0)
(0.420947 -0.333677 0)
(0.315448 -0.431277 0)
(0.209751 -0.487 0)
(0.112997 -0.497569 0)
(0.0340748 -0.468516 0)
(-0.0218654 -0.4141 0)
(-0.0545571 -0.353435 0)
(-0.0683571 -0.301305 0)
(-0.0712463 -0.262607 0)
(-0.0702304 -0.232386 0)
(-0.0684942 -0.20223 0)
(-0.0654159 -0.16749 0)
(-0.0588424 -0.130836 0)
(-0.0480169 -0.0995408 0)
(-0.0350682 -0.0792932 0)
(-0.0239004 -0.0691023 0)
(-0.0181403 -0.0621185 0)
(-0.0171772 -0.0501455 0)
(-0.0166292 -0.0297664 0)
(-0.0129155 -0.00559733 0)
(-0.00434467 0.0128776 0)
(0.00713205 0.0182788 0)
(0.0161266 0.0103865 0)
(0.0188475 -0.00316201 0)
(0.014814 -0.0136262 0)
(0.00662566 -0.0145594 0)
(-0.00133143 -0.00599779 0)
(-0.00614739 0.00695137 0)
(-0.00734659 0.0193982 0)
(-0.00725102 0.0294657 0)
(-0.0085885 0.039292 0)
(-0.0114666 0.0525251 0)
(-0.0130877 0.070483 0)
(-0.0125751 0.0891256 0)
(-0.0018608 0.0889028 0)
(0.0562935 0.614989 0)
(0.1713 0.68034 0)
(0.280602 0.619927 0)
(0.369801 0.53254 0)
(0.435346 0.424142 0)
(0.47295 0.302536 0)
(0.483089 0.175521 0)
(0.468314 0.0500803 0)
(0.431585 -0.0666559 0)
(0.378032 -0.168164 0)
(0.31375 -0.24881 0)
(0.244266 -0.303796 0)
(0.176146 -0.33147 0)
(0.115389 -0.334589 0)
(0.0659765 -0.320228 0)
(0.0291512 -0.296222 0)
(0.00340412 -0.269762 0)
(-0.0142315 -0.24422 0)
(-0.0265697 -0.219356 0)
(-0.0353284 -0.19355 0)
(-0.0408544 -0.16627 0)
(-0.0430049 -0.139103 0)
(-0.0421552 -0.114766 0)
(-0.039516 -0.0950571 0)
(-0.0366003 -0.0794664 0)
(-0.0344434 -0.0655883 0)
(-0.0328095 -0.0508932 0)
(-0.0303826 -0.0347255 0)
(-0.0260564 -0.0190304 0)
(-0.0199344 -0.00688859 0)
(-0.0134885 -0.00068129 0)
(-0.00853887 -0.000115635 0)
(-0.00629788 -0.00216027 0)
(-0.00713891 -0.00331513 0)
(-0.0102952 -0.00104428 0)
(-0.0141522 0.0046368 0)
(-0.0172631 0.0126201 0)
(-0.0190655 0.021591 0)
(-0.0197865 0.0310546 0)
(-0.0197525 0.0413138 0)
(-0.0187684 0.0526975 0)
(-0.0157688 0.0645667 0)
(-0.0116556 0.0748396 0)
(-0.00214469 0.070605 0)
(0.0330939 0.404551 0)
(0.103752 0.452344 0)
(0.171876 0.420128 0)
(0.230965 0.372239 0)
(0.278904 0.310938 0)
(0.312506 0.239712 0)
(0.330768 0.16245 0)
(0.333733 0.0832849 0)
(0.323147 0.00602128 0)
(0.300324 -0.0641276 0)
(0.267538 -0.123949 0)
(0.228863 -0.170347 0)
(0.187923 -0.201957 0)
(0.148051 -0.219413 0)
(0.111776 -0.225059 0)
(0.0804595 -0.222047 0)
(0.0543285 -0.213349 0)
(0.0328713 -0.200932 0)
(0.0153602 -0.185789 0)
(0.00125138 -0.168439 0)
(-0.00970488 -0.149575 0)
(-0.0177417 -0.130264 0)
(-0.0232726 -0.111851 0)
(-0.0269052 -0.0950885 0)
(-0.0292896 -0.0800048 0)
(-0.0308221 -0.0660574 0)
(-0.0315329 -0.0526718 0)
(-0.0312217 -0.0398148 0)
(-0.0297703 -0.0281363 0)
(-0.0274372 -0.0185517 0)
(-0.024864 -0.0115399 0)
(-0.0227849 -0.00673746 0)
(-0.0217438 -0.0031638 0)
(-0.0218365 0.000374866 0)
(-0.0227044 0.00466968 0)
(-0.0237899 0.0100409 0)
(-0.0245648 0.0162992 0)
(-0.0246833 0.0231689 0)
(-0.0239488 0.0305007 0)
(-0.0222082 0.0381862 0)
(-0.0192724 0.0459447 0)
(-0.0147512 0.0531605 0)
(-0.00967555 0.0588403 0)
(-0.00205643 0.0538978 0)
(0.0196572 0.257659 0)
(0.0634755 0.289867 0)
(0.105725 0.272382 0)
(0.143875 0.246147 0)
(0.176709 0.212085 0)
(0.202243 0.171764 0)
(0.219704 0.127036 0)
(0.228702 0.0800354 0)
(0.229381 0.0330566 0)
(0.222217 -0.0119351 0)
(0.208464 -0.0522342 0)
(0.189841 -0.0862814 0)
(0.167951 -0.11302 0)
(0.144519 -0.132179 0)
(0.121037 -0.144215 0)
(0.0985848 -0.150053 0)
(0.0778235 -0.150768 0)
(0.0590813 -0.147342 0)
(0.0424855 -0.140596 0)
(0.0280975 -0.131255 0)
(0.0159662 -0.120062 0)
(0.00588231 -0.107804 0)
(-0.00232409 -0.095225 0)
(-0.00878919 -0.0828681 0)
(-0.0138612 -0.0710103 0)
(-0.0177776 -0.0597283 0)
(-0.0206631 -0.049027 0)
(-0.0225979 -0.0389917 0)
(-0.0236877 -0.0298249 0)
(-0.0241186 -0.0217471 0)
(-0.0241516 -0.0148392 0)
(-0.0240584 -0.00895349 0)
(-0.0240269 -0.00375892 0)
(-0.0240845 0.0011243 0)
(-0.0241278 0.00598085 0)
(-0.0239977 0.010951 0)
(-0.0235206 0.0160437 0)
(-0.0225439 0.0212094 0)
(-0.0209461 0.026383 0)
(-0.0186305 0.0314543 0)
(-0.0155172 0.0362193 0)
(-0.0114824 0.0403708 0)
(-0.00714117 0.0434808 0)
(-0.00175953 0.0391573 0)
(0.0124414 0.157891 0)
(0.0412992 0.178081 0)
(0.0689037 0.168459 0)
(0.0945044 0.154036 0)
(0.117385 0.135237 0)
(0.136299 0.112794 0)
(0.150739 0.0875897 0)
(0.160326 0.0606651 0)
(0.164981 0.0331567 0)
(0.165107 0.00620443 0)
(0.160901 -0.0189202 0)
(0.15277 -0.0413344 0)
(0.141728 -0.060309 0)
(0.12865 -0.0754264 0)
(0.114339 -0.0865808 0)
(0.0995107 -0.0939161 0)
(0.0847451 -0.0977414 0)
(0.0704886 -0.0984541 0)
(0.0570737 -0.0964965 0)
(0.0447371 -0.0923384 0)
(0.0336361 -0.0864752 0)
(0.023835 -0.0794583 0)
(0.0153255 -0.071654 0)
(0.0080163 -0.0634993 0)
(0.00185727 -0.0552838 0)
(-0.00324146 -0.0472024 0)
(-0.00743547 -0.039393 0)
(-0.0107987 -0.0319684 0)
(-0.0134203 -0.0250295 0)
(-0.0154103 -0.018652 0)
(-0.016884 -0.0128597 0)
(-0.017954 -0.0076099 0)
(-0.0186935 -0.00281145 0)
(-0.019119 0.00164838 0)
(-0.019218 0.00586356 0)
(-0.0189632 0.00989043 0)
(-0.0183155 0.0137476 0)
(-0.0172351 0.0174249 0)
(-0.0156915 0.0208914 0)
(-0.0136683 0.0240899 0)
(-0.0111577 0.0269284 0)
(-0.00814369 0.0292832 0)
(-0.00492753 0.0309847 0)
(-0.00136228 0.0276117 0)
(0.00878828 0.0944515 0)
(0.0299259 0.106489 0)
(0.0498833 0.100995 0)
(0.0687456 0.0928049 0)
(0.0860361 0.0821413 0)
(0.100895 0.0693743 0)
(0.112986 0.0549593 0)
(0.122045 0.0394353 0)
(0.127933 0.023407 0)
(0.130666 0.00750524 0)
(0.130388 -0.00779892 0)
(0.127373 -0.0218197 0)
(0.122012 -0.034117 0)
(0.114747 -0.0443793 0)
(0.106042 -0.05243 0)
(0.0963523 -0.0582235 0)
(0.0860979 -0.0618238 0)
(0.0756468 -0.0633794 0)
(0.0653099 -0.0631021 0)
(0.0553389 -0.0612496 0)
(0.0459265 -0.0581092 0)
(0.0372061 -0.0539798 0)
(0.0292577 -0.0491465 0)
(0.0221169 -0.0438715 0)
(0.0157777 -0.0383759 0)
(0.0102049 -0.0328237 0)
(0.00534716 -0.0273553 0)
(0.00122223 -0.0220747 0)
(-0.00221647 -0.0170598 0)
(-0.00508135 -0.0123641 0)
(-0.00741217 -0.00801585 0)
(-0.00925703 -0.0040065 0)
(-0.0106497 -0.000314959 0)
(-0.0116136 0.00308841 0)
(-0.0121727 0.00623662 0)
(-0.0123358 0.00915425 0)
(-0.0121058 0.0118541 0)
(-0.0114871 0.0143367 0)
(-0.0104894 0.0165906 0)
(-0.00913094 0.0185922 0)
(-0.00743366 0.0203047 0)
(-0.00542409 0.0216798 0)
(-0.00324853 0.0226482 0)
(-0.00097053 0.0200544 0)
(0.00679767 0.0535817 0)
(0.0237057 0.0602345 0)
(0.0393901 0.0570108 0)
(0.0544375 0.0522565 0)
(0.0684866 0.046093 0)
(0.0808526 0.0387144 0)
(0.0912897 0.0303709 0)
(0.0996064 0.0213656 0)
(0.105675 0.0120291 0)
(0.109417 0.0026632 0)
(0.110928 -0.00636227 0)
(0.110387 -0.0147274 0)
(0.107959 -0.0221593 0)
(0.103879 -0.0284484 0)
(0.0984288 -0.0334566 0)
(0.0919067 -0.0371179 0)
(0.0846084 -0.0394332 0)
(0.0768131 -0.040461 0)
(0.0687728 -0.0403066 0)
(0.0607067 -0.0391132 0)
(0.052799 -0.0370482 0)
(0.0451973 -0.0342918 0)
(0.0380134 -0.0310231 0)
(0.0313247 -0.0274126 0)
(0.025173 -0.0236129 0)
(0.0195818 -0.0197497 0)
(0.0145716 -0.0159292 0)
(0.0101462 -0.0122383 0)
(0.00627661 -0.00871517 0)
(0.00293951 -0.00540539 0)
(0.000147619 -0.00234356 0)
(-0.00212962 0.00045425 0)
(-0.00396894 0.00301166 0)
(-0.00539795 0.005339 0)
(-0.00641262 0.00745341 0)
(-0.00702458 0.00937104 0)
(-0.00725318 0.011105 0)
(-0.00712057 0.012663 0)
(-0.00665229 0.0140463 0)
(-0.00587947 0.0152486 0)
(-0.00483549 0.0162574 0)
(-0.00356527 0.0170537 0)
(-0.00214018 0.0176082 0)
(-0.000677702 0.01552 0)
(0.00537315 0.0255196 0)
(0.0191866 0.0284802 0)
(0.0316344 0.0266414 0)
(0.0437316 0.0239863 0)
(0.0552031 0.0205784 0)
(0.0654247 0.0165159 0)
(0.074183 0.0119371 0)
(0.0813583 0.00700539 0)
(0.086813 0.00189421 0)
(0.0905233 -0.00314421 0)
(0.0925771 -0.00797739 0)
(0.0929823 -0.012425 0)
(0.0918247 -0.0163301 0)
(0.0892509 -0.0195692 0)
(0.085447 -0.0220589 0)
(0.0806231 -0.0237554 0)
(0.0749988 -0.0246536 0)
(0.0687913 -0.0247835 0)
(0.0622057 -0.0242062 0)
(0.05543 -0.0230083 0)
(0.0486316 -0.0212881 0)
(0.0419526 -0.0191575 0)
(0.0355112 -0.0167303 0)
(0.0293978 -0.0141147 0)
(0.0236793 -0.0114112 0)
(0.0184062 -0.00870319 0)
(0.0136379 -0.00605933 0)
(0.00941747 -0.00352877 0)
(0.00570985 -0.0011836 0)
(0.0024881 0.000960206 0)
(-0.000261664 0.00290889 0)
(-0.00255383 0.00466419 0)
(-0.00437536 0.00620823 0)
(-0.00574004 0.00757179 0)
(-0.00667294 0.00877091 0)
(-0.00719706 0.00982275 0)
(-0.00733726 0.0107449 0)
(-0.00712233 0.0115526 0)
(-0.00658569 0.0122562 0)
(-0.00576575 0.0128603 0)
(-0.00470156 0.013364 0)
(-0.00344265 0.0137609 0)
(-0.00203912 0.0140401 0)
(-0.00065129 0.0123336 0)
(0.00390106 0.00632681 0)
(0.0144865 0.00681467 0)
(0.0234353 0.00590988 0)
(0.0322872 0.00467241 0)
(0.0407673 0.00310232 0)
(0.0483068 0.00124344 0)
(0.0548038 -0.000829277 0)
(0.060087 -0.00302985 0)
(0.0640941 -0.0052537 0)
(0.0667431 -0.00736083 0)
(0.0679155 -0.0093091 0)
(0.0676896 -0.0110069 0)
(0.0661767 -0.0123806 0)
(0.0635032 -0.0133746 0)
(0.0598143 -0.0139533 0)
(0.0552749 -0.0141016 0)
(0.0500616 -0.0138244 0)
(0.0443452 -0.0131432 0)
(0.0383067 -0.0121036 0)
(0.0321431 -0.0107919 0)
(0.0260131 -0.00922776 0)
(0.0200363 -0.00748709 0)
(0.0143271 -0.00564391 0)
(0.00898199 -0.00376849 0)
(0.00407046 -0.00191951 0)
(-0.000363911 -0.000147436 0)
(-0.00431835 0.00150902 0)
(-0.00779458 0.0030244 0)
(-0.0107419 0.00435503 0)
(-0.0131069 0.00549795 0)
(-0.0148854 0.00646656 0)
(-0.0161642 0.00727649 0)
(-0.0169599 0.00792993 0)
(-0.0172409 0.00844602 0)
(-0.01706 0.00884692 0)
(-0.0164555 0.00915609 0)
(-0.0154599 0.00939592 0)
(-0.0141086 0.00958651 0)
(-0.0124402 0.00974398 0)
(-0.0104975 0.00987946 0)
(-0.00832226 0.00999831 0)
(-0.00595805 0.0100998 0)
(-0.00346128 0.0101808 0)
(-0.00108331 0.00892128 0)
(0.00212827 -0.00485635 0)
(0.00894882 -0.00571534 0)
(0.0138668 -0.006053 0)
(0.01886 -0.00639209 0)
(0.0236094 -0.00676088 0)
(0.0275906 -0.00714407 0)
(0.0306805 -0.00750719 0)
(0.0327557 -0.00781535 0)
(0.0337609 -0.0080208 0)
(0.0336563 -0.00815553 0)
(0.0324204 -0.00814387 0)
(0.030099 -0.00797316 0)
(0.0267947 -0.0076336 0)
(0.0226478 -0.00711988 0)
(0.0177965 -0.00643209 0)
(0.0123813 -0.00557787 0)
(0.00656684 -0.00457277 0)
(0.000442898 -0.00344245 0)
(-0.0058262 -0.00226238 0)
(-0.0119385 -0.00096788 0)
(-0.0177442 0.000327264 0)
(-0.0231933 0.00158676 0)
(-0.0282083 0.00277534 0)
(-0.0327033 0.0038591 0)
(-0.0365987 0.00481163 0)
(-0.0398376 0.00561161 0)
(-0.0423908 0.00624354 0)
(-0.044249 0.00669518 0)
(-0.0454044 0.0069988 0)
(-0.0458576 0.00715565 0)
(-0.0456274 0.00716495 0)
(-0.044752 0.00703517 0)
(-0.0432633 0.00682043 0)
(-0.0412058 0.00653314 0)
(-0.0386489 0.00620011 0)
(-0.0356519 0.00584766 0)
(-0.0322737 0.0054977 0)
(-0.0285668 0.00516993 0)
(-0.0245714 0.0048795 0)
(-0.0203299 0.00463857 0)
(-0.0158811 0.00445574 0)
(-0.0112539 0.00433239 0)
(-0.00651448 0.00426833 0)
(-0.00203576 0.00372844 0)
(2.23664e-05 -0.00881107 0)
(0.00215569 -0.0100458 0)
(0.00204702 -0.0100789 0)
(0.00227084 -0.00987267 0)
(0.00234389 -0.00945683 0)
(0.00176018 -0.00884247 0)
(0.000366613 -0.00804464 0)
(-0.00189891 -0.00708117 0)
(-0.00496791 -0.00598484 0)
(-0.00882233 -0.00478879 0)
(-0.0134514 -0.0035118 0)
(-0.0188253 -0.00218233 0)
(-0.02482 -0.000828144 0)
(-0.0312412 0.000526115 0)
(-0.0379473 0.00185773 0)
(-0.044826 0.0031445 0)
(-0.0517444 0.00435812 0)
(-0.0585935 0.00546489 0)
(-0.0651481 0.00649824 0)
(-0.071297 0.0074123 0)
(-0.077015 0.00814159 0)
(-0.0821243 0.0086759 0)
(-0.0865012 0.00900374 0)
(-0.0900669 0.00911928 0)
(-0.0927627 0.00901916 0)
(-0.0945441 0.00870671 0)
(-0.0953827 0.00819234 0)
(-0.0952694 0.00749299 0)
(-0.0942075 0.00663716 0)
(-0.0922101 0.00565269 0)
(-0.0893144 0.00457036 0)
(-0.0855697 0.0034258 0)
(-0.0810051 0.00226169 0)
(-0.0757039 0.00111433 0)
(-0.0697907 1.89127e-05 0)
(-0.0633587 -0.000995938 0)
(-0.0565225 -0.00190665 0)
(-0.0493828 -0.0026984 0)
(-0.0419999 -0.00336311 0)
(-0.0344321 -0.0038987 0)
(-0.0267211 -0.00430558 0)
(-0.0188693 -0.0045897 0)
(-0.0109299 -0.0047549 0)
(-0.00342685 -0.00422021 0)
(-0.00233144 -0.00691464 0)