/*--------------------------------*- C++ -*----------------------------------*\
  =========                 |
  \\      /  F ield         | OpenFOAM: The Open Source CFD Toolbox
   \\    /   O peration     | Website:  https://openfoam.org
    \\  /    A nd           | Version:  7
     \\/     M anipulation  |
\*---------------------------------------------------------------------------*/
FoamFile
{
    version     2.0;
    format      ascii;
    class       volScalarField;
    location    "2.3";
    object      p;
}
// * * * * * * * * * * * * * * * * * * * * * * * * * * * * * * * * * * * * * //

dimensions      [0 2 -2 0 0 0 0];

internalField   nonuniform List<scalar> 
900
(
-1.78505e-08
-0.00012202
-0.000234132
-0.000310149
-0.000324681
-0.000267726
-0.000138516
6.01037e-05
0.000324307
0.000650126
0.0010335
0.00146998
0.00195444
0.00248066
0.00304114
0.0036269
0.00422741
0.00483057
0.00542286
0.00598955
0.00651511
0.00698367
0.00737982
0.00768954
0.0079017
0.00801019
0.00801743
0.0079401
0.00781447
0.00767585
0.000120723
-2.51495e-06
-8.05229e-05
-0.000121107
-0.000112225
-4.47057e-05
8.41308e-05
0.000274023
0.000523415
0.000829922
0.00119046
0.00160115
0.00205722
0.00255271
0.00308041
0.00363167
0.00419632
0.00476288
0.00531849
0.00584934
0.00634104
0.00677929
0.0071507
0.00744388
0.00765082
0.00776845
0.00780103
0.00776381
0.00767745
0.00753876
0.00023587
7.26341e-05
-7.41073e-06
-4.08472e-05
-2.58771e-05
4.43496e-05
0.000171885
0.000356742
0.000598077
0.000894259
0.00124284
0.00164049
0.00208282
0.00256426
0.00307789
0.0036153
0.0041667
0.00472067
0.00526458
0.00578479
0.00626712
0.00669749
0.00706286
0.00735233
0.00755836
0.00767806
0.00771516
0.00768304
0.00759206
0.00741063
0.000316748
0.000107474
1.46462e-05
-2.15269e-05
-7.04079e-06
6.25011e-05
0.00018787
0.000368699
0.000604376
0.000893757
0.00123495
0.00162514
0.00206045
0.00253573
0.00304438
0.00357828
0.00412775
0.00468142
0.00522657
0.0057493
0.00623504
0.00666928
0.00703848
0.00733124
0.00753951
0.0076596
0.00769419
0.00765516
0.0075465
0.00731512
0.000333769
8.4777e-05
-2.23706e-05
-6.48013e-05
-5.3799e-05
1.32556e-05
0.00013598
0.000313554
0.000545468
0.000830961
0.00116864
0.00155624
0.00199039
0.00246639
0.00297801
0.00351738
0.00407486
0.00463897
0.00519662
0.00573328
0.00623354
0.00668184
0.00706348
0.00736593
0.00758003
0.00770107
0.00773083
0.00768076
0.00755184
0.0072765
0.000270998
-1.09695e-05
-0.000132195
-0.000182432
-0.000176407
-0.000112639
7.61861e-06
0.000183178
0.00041361
0.000698502
0.00103695
0.00142724
0.00186655
0.00235066
0.00287374
0.00342812
0.00400418
0.00459015
0.0051723
0.00573511
0.00626181
0.0067352
0.00713876
0.00745816
0.00768271
0.00780649
0.00783077
0.00776766
0.00761762
0.00730365
0.000120928
-0.000189332
-0.000323976
-0.000382455
-0.000381839
-0.000321342
-0.000202837
-2.7764e-05
0.000203578
0.000491147
0.000834565
0.00123271
0.00168336
0.00218286
0.00272583
0.00330484
0.00391021
0.0045298
0.00514899
0.00575091
0.00631691
0.00682747
0.00726354
0.00760829
0.00784893
0.00797824
0.00799734
0.00791998
0.00774779
0.00739706
-0.00012072
-0.0004573
-0.000604974
-0.00067168
-0.000676348
-0.000618649
-0.000500923
-0.000324756
-9.02513e-05
0.000202989
0.000555183
0.000965899
0.00143363
0.00195541
0.00252639
0.00313947
0.003785
0.00445036
0.00511989
0.00577499
0.00639458
0.00695609
0.00743701
0.00781714
0.0080809
0.00821946
0.0082341
0.00814112
0.00794452
0.00755483
-0.000457766
-0.000821205
-0.00098215
-0.0010571
-0.00106682
-0.00101135
-0.000893455
-0.000714816
-0.000475268
-0.000173886
0.00019026
0.000617565
0.00110741
0.00165768
0.00226427
0.00292063
0.00361719
0.00434099
0.0050752
0.00579917
0.0064888
0.00711754
0.00765834
0.00808638
0.00838227
0.00853494
0.00854596
0.00843518
0.00821009
0.00777519
-0.000894883
-0.00128768
-0.0014628
-0.00154629
-0.00156095
-0.00150732
-0.00138859
-0.00120655
-0.000960712
-0.000649518
-0.000271186
0.000175693
0.000691602
0.00127555
0.00192451
0.00263271
0.00339104
0.00418639
0.00500078
0.00581129
0.00659019
0.00730592
0.00792541
0.00841753
0.00875745
0.00893078
0.00893925
0.00880733
0.00854734
0.00805692
-0.00143821
-0.00186432
-0.00205512
-0.00214775
-0.00216755
-0.00211567
-0.00199592
-0.00181021
-0.00155771
-0.00123612
-0.000842645
-0.000374639
0.00016977
0.000791074
0.00148771
0.00225522
0.00308538
0.00396544
0.00487651
0.0057934
0.00668417
0.00751111
0.00823325
0.00881081
0.00921104
0.00941434
0.00942194
0.00926412
0.0089599
0.00839894
-0.00209561
-0.00256017
-0.00276864
-0.00287134
-0.00289677
-0.00284697
-0.00272658
-0.00253776
-0.00227931
-0.00194809
-0.00154013
-0.00105131
-0.000478039
0.000182098
0.000929566
0.00176189
0.00267237
0.00364958
0.00467428
0.00571932
0.00674831
0.00771618
0.00857181
0.00926353
0.00974699
0.00999409
0.010004
0.00981404
0.00945238
0.00879924
-0.00287685
-0.00338607
-0.00361464
-0.00372858
-0.00376036
-0.00371335
-0.0035933
-0.00340282
-0.00314034
-0.00280185
-0.00238204
-0.00187506
-0.00127526
-0.000577829
0.000220417
0.00111978
0.0021161
0.00320079
0.00435524
0.00555134
0.00674848
0.00789332
0.00892212
0.00976709
0.0103668
0.0106792
0.0106981
0.0104683
0.0100307
0.00925353
-0.00379372
-0.00435503
-0.00460649
-0.00473294
-0.00477189
-0.00472857
-0.00461036
-0.00442051
-0.00415723
-0.00381556
-0.00338877
-0.00286911
-0.00224853
-0.00151935
-0.000674995
0.000288684
0.00137181
0.00256936
0.00386653
0.00523561
0.00663311
0.00799741
0.00924988
0.0103015
0.0110658
0.0114781
0.0115198
0.0112425
0.010703
0.00975364
-0.00486037
-0.00548276
-0.00576017
-0.00590023
-0.00594691
-0.00590813
-0.00579347
-0.00560723
-0.00534753
-0.00500857
-0.00458212
-0.00405845
-0.00342692
-0.00267661
-0.00179697
-0.000778736
0.000384418
0.00169181
0.0031374
0.00469631
0.00632514
0.00795603
0.00949459
0.0108251
0.0118259
0.0123949
0.0124882
0.012159
0.0114825
0.0102863
-0.00609382
-0.00678838
-0.00709494
-0.00724912
-0.0073033
-0.00726923
-0.0071596
-0.00698023
-0.00672939
-0.00640058
-0.00598421
-0.00546861
-0.00484057
-0.00408575
-0.00318919
-0.00213594
-0.000912808
0.0004882
0.00207564
0.00382878
0.00571122
0.0076547
0.00955178
0.0112567
0.0125997
0.01342
0.0136236
0.0132506
0.0123924
0.0108336
-0.00751487
-0.00829565
-0.00863437
-0.00880178
-0.00886152
-0.00883083
-0.00872666
-0.00855698
-0.00832059
-0.00801047
-0.00761593
-0.00712367
-0.00651823
-0.00578216
-0.00489607
-0.00383902
-0.00259066
-0.00113792
0.000566734
0.00249388
0.00462938
0.00691672
0.00924563
0.0114434
0.013281
0.0145084
0.0149386
0.0145642
0.0134754
0.0113776
-0.00914965
-0.0100349
-0.0104079
-0.010585
-0.0106451
-0.0106136
-0.010513
-0.0103544
-0.0101373
-0.00985455
-0.00949471
-0.00904343
-0.00848377
-0.00779604
-0.00695735
-0.00594099
-0.00471509
-0.00323973
-0.0015156
0.000517074
0.00285945
0.00548146
0.00829254
0.0111117
0.0136502
0.0155335
0.0164118
0.0161577
0.0148078
0.0119125
-0.0110323
-0.0120461
-0.0124534
-0.0126314
-0.0126812
-0.0126395
-0.0125368
-0.0123875
-0.0121924
-0.0119443
-0.0116315
-0.0112394
-0.0107508
-0.0101458
-0.00940014
-0.00848468
-0.00736314
-0.00599159
-0.00432585
-0.00230309
0.000127954
0.00299484
0.00626863
0.00980781
0.0132938
0.0162035
0.0179264
0.0180784
0.0165153
0.0124711
-0.0132097
-0.0143841
-0.0148204
-0.0149814
-0.0150008
-0.0149317
-0.0148144
-0.0146677
-0.014493
-0.0142832
-0.0140266
-0.0137094
-0.0133157
-0.0128277
-0.0122238
-0.0114767
-0.010551
-0.00939909
-0.00795756
-0.00614096
-0.00384431
-0.000953579
0.00262312
0.00687118
0.0115302
0.0159536
0.019167
0.0203085
0.0187861
0.0131819
-0.0157496
-0.0171265
-0.0175758
-0.0176853
-0.0176387
-0.0175121
-0.0173581
-0.017199
-0.0170363
-0.0168619
-0.0166642
-0.0164306
-0.0161486
-0.0158051
-0.0153856
-0.0148713
-0.0142359
-0.0134391
-0.0124162
-0.0110615
-0.00922317
-0.00669249
-0.00317901
0.00155183
0.00746251
0.0139143
0.0195339
0.0226981
0.021883
0.0143964
-0.0187572
-0.0203882
-0.0208105
-0.0208045
-0.0206307
-0.0203975
-0.02017
-0.0199722
-0.0198027
-0.0196508
-0.0195039
-0.0193508
-0.0191832
-0.0189957
-0.0187851
-0.0185483
-0.0182782
-0.0179561
-0.0175384
-0.0169221
-0.0158892
-0.0142142
-0.0113117
-0.00658368
0.000372444
0.00919727
0.0182769
0.0250039
0.0261904
0.0169597
-0.0224067
-0.0243433
-0.0246489
-0.02441
-0.024007
-0.0235891
-0.023231
-0.022952
-0.0227431
-0.0225871
-0.0224683
-0.0223759
-0.022306
-0.022262
-0.0222551
-0.0223028
-0.0224259
-0.0226406
-0.0229414
-0.0232675
-0.023435
-0.0229394
-0.0211748
-0.0170517
-0.0095187
0.00168328
0.0151094
0.0272404
0.0324105
0.0226875
-0.0270102
-0.0292627
-0.0292566
-0.0285722
-0.0277728
-0.0270502
-0.0264759
-0.0260523
-0.0257539
-0.0255515
-0.0254224
-0.0253538
-0.0253447
-0.0254066
-0.0255648
-0.0258585
-0.0263384
-0.0270586
-0.0280572
-0.0293113
-0.0306419
-0.0315316
-0.031157
-0.0280086
-0.0203467
-0.00703459
0.0111786
0.030413
0.0420783
0.0349576
-0.0331677
-0.0355686
-0.0348342
-0.0333278
-0.0318655
-0.0306595
-0.0297468
-0.0290908
-0.0286355
-0.0283311
-0.0281426
-0.0280514
-0.0280558
-0.0281725
-0.0284375
-0.0289065
-0.0296532
-0.0307604
-0.0322955
-0.0342568
-0.0364756
-0.0384487
-0.0390286
-0.0365395
-0.0286572
-0.0133121
0.009786
0.0373943
0.0583924
0.0589806
-0.0421229
-0.0439018
-0.0415542
-0.038586
-0.0360555
-0.0341139
-0.0327012
-0.0317056
-0.0310201
-0.030561
-0.030273
-0.0301253
-0.0301108
-0.0302456
-0.0305697
-0.0311453
-0.0320556
-0.0333886
-0.0352096
-0.0374961
-0.0400277
-0.0422157
-0.0428146
-0.0398704
-0.0307512
-0.012633
0.0158202
0.0531236
0.0865765
0.101253
-0.0568251
-0.0552027
-0.0493913
-0.0439343
-0.0397633
-0.036768
-0.0346788
-0.0332547
-0.0323058
-0.0316877
-0.0313133
-0.0311301
-0.031118
-0.031286
-0.0316699
-0.0323281
-0.033333
-0.0347521
-0.0366105
-0.0388177
-0.0410489
-0.0425734
-0.0419332
-0.0369491
-0.0246616
-0.0018721
0.0336162
0.082773
0.13219
0.170018
-0.0848206
-0.0703682
-0.0580091
-0.0485191
-0.0419586
-0.0376111
-0.0347624
-0.0329484
-0.0318274
-0.0311688
-0.0308286
-0.0307231
-0.0308141
-0.0310996
-0.0316057
-0.0323775
-0.0334636
-0.034889
-0.0366061
-0.0384136
-0.0398404
-0.039984
-0.0370741
-0.028714
-0.0115268
0.0183519
0.0641885
0.127949
0.199154
0.281421
-0.137211
-0.0854397
-0.0649342
-0.0496762
-0.0402041
-0.0347042
-0.0315613
-0.0298208
-0.0289328
-0.0285716
-0.0285444
-0.0287436
-0.0291205
-0.0296675
-0.0304048
-0.0313653
-0.0325744
-0.0340151
-0.0355701
-0.0369229
-0.0374177
-0.0359051
-0.0307729
-0.0190232
0.00319784
0.04095
0.0995125
0.185005
0.293764
0.465203
-0.309018
-0.0947011
-0.0469513
-0.0304876
-0.0225594
-0.0194119
-0.0188771
-0.0194577
-0.0204461
-0.0215717
-0.0227288
-0.0238789
-0.0250245
-0.0261955
-0.0274367
-0.0287934
-0.0302905
-0.0318983
-0.0334765
-0.0346922
-0.0349078
-0.033013
-0.0270997
-0.0142056
0.00963545
0.0505496
0.117148
0.228738
0.404135
0.749287
)
;

boundaryField
{
    movingWall
    {
        type            zeroGradient;
    }
    fixedWalls
    {
        type            zeroGradient;
    }
    frontAndBack
    {
        type            empty;
    }
}


// ************************************************************************* //
