/*--------------------------------*- C++ -*----------------------------------*\
  =========                 |
  \\      /  F ield         | OpenFOAM: The Open Source CFD Toolbox
   \\    /   O peration     | Website:  https://openfoam.org
    \\  /    A nd           | Version:  7
     \\/     M anipulation  |
\*---------------------------------------------------------------------------*/
FoamFile
{
    version     2.0;
    format      ascii;
    class       volScalarField;
    location    "3.1";
    object      p;
}
// * * * * * * * * * * * * * * * * * * * * * * * * * * * * * * * * * * * * * //

dimensions      [0 2 -2 0 0 0 0];

internalField   nonuniform List<scalar> 
900
(
-5.958e-10
-0.00011521
-0.00023361
-0.000322949
-0.000357032
-0.000323586
-0.000219668
-4.6606e-05
0.000192738
0.00049508
0.000856965
0.00127457
0.00174329
0.00225734
0.0028093
0.00338981
0.00398741
0.00458845
0.00517729
0.00573667
0.00624843
0.00669447
0.00705812
0.00732577
0.00748889
0.00754641
0.00750767
0.00739639
0.00725199
0.00712332
0.000113892
-2.64907e-06
-8.46268e-05
-0.00013525
-0.000140986
-9.15858e-05
1.67768e-05
0.000184811
0.000411766
0.000695989
0.0010351
0.0014259
0.00186419
0.00234442
0.00285944
0.0034003
0.00395604
0.00451392
0.0050594
0.00557673
0.00604965
0.00646242
0.0068011
0.00705514
0.00721896
0.00729357
0.00728828
0.00722312
0.00712349
0.00699518
0.000235692
7.64593e-05
-7.52916e-06
-4.97273e-05
-4.7275e-05
7.21635e-06
0.000116395
0.000280891
0.000500506
0.000774325
0.00110067
0.00147698
0.00189955
0.00236328
0.00286144
0.00338542
0.00392474
0.00446686
0.00499759
0.00550151
0.0059627
0.00636581
0.00669738
0.00694738
0.00711066
0.00718817
0.00718827
0.0071287
0.00702416
0.00685055
0.000330639
0.000121561
2.36554e-05
-2.10974e-05
-1.82595e-05
3.66487e-05
0.000144551
0.000305386
0.000519042
0.000785078
0.00110245
0.00146924
0.00188241
0.00233743
0.00282806
0.00334611
0.00388132
0.00442122
0.00495153
0.00545652
0.00591976
0.00632528
0.006659
0.00691027
0.00707343
0.00714867
0.00714342
0.00707419
0.00694929
0.00672299
0.000367793
0.000113298
-8.98609e-07
-5.2489e-05
-5.31509e-05
-6.13687e-07
0.000104498
0.000261403
0.000469986
0.000730206
0.00104163
0.00140306
0.00181216
0.00226507
0.00275613
0.00327752
0.00381912
0.00436838
0.00491052
0.00542892
0.00590599
0.00632433
0.00666835
0.00692607
0.00709071
0.00716167
0.00714598
0.00706033
0.00691041
0.0066355
0.000327828
3.40452e-05
-9.66694e-05
-0.000157268
-0.000163753
-0.000115378
-1.39707e-05
0.00013912
0.000343804
0.00060045
0.000909264
0.00126981
0.00168053
0.00213836
0.00263822
0.00317273
0.00373186
0.00430272
0.00486968
0.00541473
0.00591837
0.00636093
0.00672445
0.00699479
0.00716365
0.00722965
0.00720013
0.00709352
0.00691584
0.0065968
0.000199716
-0.00012814
-0.000274776
-0.000345248
-0.00035869
-0.000315381
-0.000218026
-6.83559e-05
0.000133665
0.000388881
0.000698211
0.00106207
0.00147982
0.00194927
0.00246608
0.00302336
0.00361116
0.00421615
0.0048215
0.00540729
0.00595137
0.00643086
0.0068244
0.00711486
0.0072918
0.00735313
0.00730721
0.00717576
0.00696742
0.00660589
-2.35113e-05
-0.000382272
-0.000544241
-0.000624844
-0.000645708
-0.000607839
-0.00051459
-0.000367914
-0.000167536
8.79702e-05
0.000400353
0.000771023
0.00120044
0.00168745
0.00222871
0.00281795
0.00344541
0.00409733
0.00475543
0.00539739
0.00599756
0.0065288
0.0069651
0.0072851
0.00747543
0.0075331
0.00746824
0.00730738
0.00706382
0.00665708
-0.000347307
-0.000736076
-0.000913304
-0.00100425
-0.00103284
-0.00100066
-0.00091163
-0.000767813
-0.0005686
-0.000311863
5.12455e-06
0.000384967
0.000829443
0.00133878
0.00191089
0.00254047
0.00321823
0.00393016
0.00465643
0.00537186
0.00604649
0.00664755
0.00714276
0.0075048
0.00771601
0.00777195
0.00768506
0.00748848
0.00720224
0.0067423
-0.000777016
-0.00119688
-0.00138996
-0.00149173
-0.00152849
-0.00150248
-0.00141815
-0.00127769
-0.00108009
-0.000822393
-0.000500728
-0.000111063
0.000350022
0.000884517
0.00149207
0.0021689
0.0029066
0.00369155
0.00450238
0.00531084
0.00608179
0.00677531
0.00735063
0.007772
0.00801519
0.008073
0.00796042
0.00771925
0.00737886
0.00685137
-0.00131867
-0.00177233
-0.00198249
-0.00209592
-0.00214165
-0.00212271
-0.00204424
-0.00190859
-0.00171433
-0.00145762
-0.00113325
-0.000735491
-0.000258927
0.000300702
0.000945444
0.0016737
0.00247859
0.00334875
0.00426094
0.00518411
0.00607738
0.00689196
0.00757581
0.00808112
0.00837343
0.0084401
0.00829818
0.00800046
0.00758905
0.00697118
-0.0019794
-0.00247085
-0.0026999
-0.00282622
-0.00288212
-0.0028717
-0.00280105
-0.00267286
-0.00248531
-0.00223361
-0.00191111
-0.00151015
-0.00102289
-0.000442225
0.000237057
0.00101641
0.00189076
0.0028564
0.00388551
0.00494613
0.00599177
0.00696327
0.00779396
0.00841891
0.00878758
0.00887687
0.0087037
0.00833423
0.00782775
0.00708428
-0.00276771
-0.00330211
-0.00355233
-0.00369306
-0.00376066
-0.00376073
-0.00370072
-0.0035839
-0.00340823
-0.00316804
-0.00285514
-0.00245978
-0.00197135
-0.00137934
-0.000674419
0.000150301
0.00109768
0.00215459
0.00331003
0.00452895
0.00575953
0.00693152
0.00796018
0.00875684
0.00924587
0.00938457
0.00918412
0.00872541
0.0080905
0.0071677
-0.0036936
-0.00427732
-0.00455136
-0.00470815
-0.00478907
-0.00480191
-0.00475601
-0.00465566
-0.00449888
-0.00427927
-0.00398726
-0.00361095
-0.00313685
-0.0025506
-0.00183802
-0.000986435
1.28004e-05
0.00115805
0.0024415
0.00383253
0.00527869
0.00670059
0.00799331
0.00903688
0.00971739
0.00995662
0.00974752
0.00918367
0.00837577
0.00719259
-0.00476886
-0.00540973
-0.00571046
-0.00588472
-0.00598026
-0.00600796
-0.00597986
-0.00590186
-0.0057725
-0.00558503
-0.0053288
-0.00499008
-0.00455263
-0.00399822
-0.00330733
-0.00246031
-0.00143994
-0.000236564
0.00115549
0.00271408
0.00439407
0.00611376
0.00775027
0.00914585
0.0101309
0.0105653
0.0103984
0.00972536
0.00868926
0.00712601
-0.00600748
-0.0067153
-0.0070456
-0.0072379
-0.00734825
-0.00739188
-0.00738466
-0.00733492
-0.00724235
-0.00710044
-0.00689809
-0.00662041
-0.00624913
-0.00576276
-0.00513682
-0.0043444
-0.00335737
-0.00214957
-0.000707039
0.00097825
0.00287876
0.0049251
0.00698824
0.00887302
0.010335
0.0111326
0.0111232
0.0103728
0.00905021
0.00693571
-0.00742652
-0.00821389
-0.0085762
-0.00878531
-0.0089083
-0.00896662
-0.00898144
-0.0089646
-0.00891773
-0.00883539
-0.00870697
-0.0085176
-0.0082484
-0.00787627
-0.00737348
-0.00670731
-0.00583983
-0.0047293
-0.00333665
-0.00162271
0.000423572
0.00277355
0.00532139
0.00785223
0.0100356
0.0114759
0.011857
0.011145
0.00949923
0.00659988
-0.00904759
-0.0099311
-0.0103266
-0.0105479
-0.0106771
-0.0107445
-0.0107787
-0.0107962
-0.0108016
-0.0107913
-0.0107564
-0.0106839
-0.0105563
-0.0103519
-0.0100431
-0.00959529
-0.00896455
-0.00809543
-0.00691925
-0.00535992
-0.00334383
-0.000813514
0.00220047
0.00551298
0.00872329
0.011231
0.0124246
0.0120335
0.010107
0.00612608
-0.0108996
-0.0119015
-0.0123286
-0.0125511
-0.0126727
-0.0127366
-0.012781
-0.0128286
-0.0128874
-0.0129571
-0.0130315
-0.0131012
-0.0131533
-0.0131711
-0.0131327
-0.0130082
-0.0127555
-0.0123138
-0.0115918
-0.0104549
-0.00877679
-0.00633677
-0.00302018
0.00111009
0.00565394
0.00979121
0.0124732
0.0129648
0.0109867
0.00559275
-0.0130231
-0.0141736
-0.0146248
-0.0148267
-0.0149151
-0.0149515
-0.014987
-0.0150511
-0.0151563
-0.0153053
-0.0154959
-0.0157242
-0.0159845
-0.0162699
-0.0165707
-0.0168708
-0.0171412
-0.0173292
-0.0173401
-0.0170093
-0.0160291
-0.0141019
-0.0108431
-0.00605439
7.77005e-06
0.00637702
0.0114687
0.0137866
0.012323
0.00524351
-0.0154794
-0.0168186
-0.0172741
-0.0174145
-0.017425
-0.0173932
-0.017386
-0.0174405
-0.0175725
-0.0177873
-0.0180872
-0.0184742
-0.0189527
-0.0195295
-0.020213
-0.0210098
-0.0219164
-0.0229027
-0.0238819
-0.0246495
-0.0248099
-0.0239196
-0.021234
-0.0161694
-0.0086557
0.000390015
0.00890201
0.0143624
0.0144452
0.00567777
-0.0183656
-0.0199443
-0.0203592
-0.0203641
-0.0202218
-0.0200566
-0.0199532
-0.0199549
-0.0200782
-0.0203293
-0.0207131
-0.0212378
-0.0219184
-0.0227773
-0.0238451
-0.0251573
-0.0267445
-0.0286099
-0.0306873
-0.0327783
-0.0344585
-0.0349221
-0.0332697
-0.0284178
-0.0197832
-0.00795543
0.00479426
0.0148777
0.0179898
0.00816856
-0.0218476
-0.0237182
-0.0239955
-0.0237328
-0.0233161
-0.0229177
-0.0226394
-0.0225248
-0.0225861
-0.0228261
-0.0232494
-0.0238685
-0.0247071
-0.0258029
-0.0272083
-0.0289876
-0.0312061
-0.0339022
-0.0370351
-0.0404026
-0.0435196
-0.0454835
-0.0450706
-0.0407646
-0.0314097
-0.0170313
0.000336178
0.0163413
0.0242164
0.0150679
-0.0262287
-0.0284056
-0.0283402
-0.0275773
-0.0266934
-0.0259159
-0.0253527
-0.0250364
-0.0249656
-0.0251327
-0.0255373
-0.0261917
-0.0271252
-0.0283868
-0.0300458
-0.0321885
-0.0349053
-0.0382581
-0.0422189
-0.0465747
-0.0507748
-0.0538412
-0.0543617
-0.0504516
-0.0404547
-0.0237608
-0.00176475
0.0210642
0.0354917
0.0301347
-0.0321023
-0.0344263
-0.0335893
-0.0319249
-0.0302792
-0.0289179
-0.0279266
-0.0273044
-0.0270211
-0.027049
-0.0273753
-0.0280071
-0.0289732
-0.0303274
-0.032147
-0.0345278
-0.0375672
-0.0413249
-0.045753
-0.0506311
-0.0552868
-0.058666
-0.0593748
-0.0550567
-0.0438199
-0.024529
0.00226377
0.032721
0.0556971
0.058471
-0.040716
-0.0424298
-0.0399243
-0.0366955
-0.0338604
-0.0316469
-0.030057
-0.0290188
-0.0284506
-0.0282895
-0.0285011
-0.0290792
-0.0300441
-0.0314469
-0.0333611
-0.0358762
-0.039075
-0.04299
-0.0475305
-0.0523745
-0.0568094
-0.0596727
-0.0592355
-0.0532845
-0.0395975
-0.0166302
0.0159745
0.0554861
0.0897776
0.105943
-0.0550561
-0.0534029
-0.047373
-0.041544
-0.0369424
-0.0335612
-0.0312064
-0.0296771
-0.0288045
-0.0284645
-0.0285875
-0.0291422
-0.0301336
-0.0315981
-0.033595
-0.0361916
-0.039435
-0.0433028
-0.0476255
-0.0519782
-0.0555525
-0.057069
-0.0544935
-0.0455763
-0.0278165
0.000791108
0.0409788
0.0919553
0.141579
0.180079
-0.0827776
-0.0683727
-0.0557266
-0.0457674
-0.0386643
-0.0338366
-0.0306561
-0.0286924
-0.0276236
-0.0272344
-0.0273962
-0.0280434
-0.0291583
-0.030758
-0.03288
-0.03556
-0.0387975
-0.0424995
-0.0463994
-0.0499495
-0.0522078
-0.0517191
-0.0465329
-0.0338628
-0.0108596
0.025189
0.0759797
0.142078
0.213131
0.295733
-0.135131
-0.0835466
-0.0626078
-0.0468279
-0.0367349
-0.0306823
-0.0271501
-0.02522
-0.0243586
-0.0242521
-0.0247207
-0.025672
-0.0270727
-0.0289271
-0.0312557
-0.0340677
-0.0373219
-0.0408688
-0.0443694
-0.0471841
-0.0482513
-0.0459806
-0.0383723
-0.0224395
0.00530257
0.0489128
0.112305
0.200573
0.309702
0.480456
-0.307221
-0.0929689
-0.0448776
-0.0278152
-0.0192025
-0.0154377
-0.0144458
-0.0147717
-0.0157272
-0.0170542
-0.0186594
-0.0205171
-0.0226422
-0.025072
-0.027846
-0.0309801
-0.0344283
-0.0380291
-0.0414327
-0.0440109
-0.0447671
-0.0422195
-0.0340796
-0.0174257
0.0113169
0.057554
0.128757
0.242929
0.418888
0.763527
)
;

boundaryField
{
    movingWall
    {
        type            zeroGradient;
    }
    fixedWalls
    {
        type            zeroGradient;
    }
    frontAndBack
    {
        type            empty;
    }
}


// ************************************************************************* //
