/*--------------------------------*- C++ -*----------------------------------*\
  =========                 |
  \\      /  F ield         | OpenFOAM: The Open Source CFD Toolbox
   \\    /   O peration     | Website:  https://openfoam.org
    \\  /    A nd           | Version:  7
     \\/     M anipulation  |
\*---------------------------------------------------------------------------*/
FoamFile
{
    version     2.0;
    format      ascii;
    class       volVectorField;
    location    "3.1";
    object      U;
}
// * * * * * * * * * * * * * * * * * * * * * * * * * * * * * * * * * * * * * //

dimensions      [0 1 -1 0 0 0 0];

internalField   nonuniform List<vector> 
900
(
(5.78098e-05 -5.71367e-05 0)
(1.69782e-05 1.62674e-05 0)
(-0.000290509 9.91448e-05 0)
(-0.000787006 0.000156078 0)
(-0.00140957 0.000187707 0)
(-0.00210005 0.000200627 0)
(-0.00281311 0.000201555 0)
(-0.00351744 0.000195363 0)
(-0.00419212 0.000184881 0)
(-0.00482236 0.00017142 0)
(-0.00539645 0.000155338 0)
(-0.00590367 0.000136479 0)
(-0.00633325 0.000114476 0)
(-0.00667391 8.89496e-05 0)
(-0.006914 5.96317e-05 0)
(-0.00704185 2.64609e-05 0)
(-0.00704653 -1.03379e-05 0)
(-0.0069187 -5.02308e-05 0)
(-0.00665183 -9.22105e-05 0)
(-0.00624363 -0.000134774 0)
(-0.00569758 -0.000175844 0)
(-0.00502477 -0.000212716 0)
(-0.00424568 -0.000242014 0)
(-0.00339199 -0.000259683 0)
(-0.00250804 -0.000260967 0)
(-0.00165163 -0.000240506 0)
(-0.00089291 -0.000193117 0)
(-0.000307501 -0.000116144 0)
(3.47344e-05 -1.52685e-05 0)
(6.85137e-05 6.7101e-05 0)
(-1.46621e-05 -1.8212e-05 0)
(-0.000376016 0.000374386 0)
(-0.00128952 0.000767691 0)
(-0.0025835 0.00105587 0)
(-0.00414083 0.00123174 0)
(-0.00585001 0.00131403 0)
(-0.00761426 0.00132716 0)
(-0.00935977 0.00129195 0)
(-0.0110324 0.00122279 0)
(-0.0125914 0.00112805 0)
(-0.0140041 0.00101168 0)
(-0.0152414 0.000874832 0)
(-0.0162763 0.000717306 0)
(-0.0170818 0.000538552 0)
(-0.0176314 0.000338447 0)
(-0.0179 0.000117844 0)
(-0.0178648 -0.000120997 0)
(-0.0175078 -0.000373795 0)
(-0.016818 -0.000634005 0)
(-0.0157943 -0.000892363 0)
(-0.0144495 -0.00113654 0)
(-0.0128133 -0.00135097 0)
(-0.0109363 -0.00151693 0)
(-0.00889337 -0.00161297 0)
(-0.00678477 -0.00161604 0)
(-0.00473623 -0.00150372 0)
(-0.00289286 -0.00125934 0)
(-0.00140036 -0.000881853 0)
(-0.000386647 -0.000404359 0)
(-7.05208e-06 3.62858e-05 0)
(-0.000101434 0.000291661 0)
(-0.000797276 0.0012946 0)
(-0.00227535 0.00221225 0)
(-0.00424607 0.00289302 0)
(-0.00655167 0.00332014 0)
(-0.00905044 0.00352633 0)
(-0.0116153 0.00355968 0)
(-0.0141456 0.00346494 0)
(-0.0165648 0.00327566 0)
(-0.0188136 0.00301327 0)
(-0.0208435 0.0026894 0)
(-0.0226124 0.00230912 0)
(-0.0240812 0.001874 0)
(-0.0252122 0.00138452 0)
(-0.0259695 0.000841976 0)
(-0.0263194 0.000249925 0)
(-0.0262324 -0.000384625 0)
(-0.0256858 -0.00104991 0)
(-0.024667 -0.00172861 0)
(-0.0231774 -0.00239674 0)
(-0.0212372 -0.00302298 0)
(-0.01889 -0.00356837 0)
(-0.0162075 -0.00398686 0)
(-0.013293 -0.00422709 0)
(-0.0102827 -0.0042362 0)
(-0.00734397 -0.00396667 0)
(-0.00466593 -0.00338853 0)
(-0.00243389 -0.00250869 0)
(-0.000819732 -0.00140007 0)
(-9.41951e-05 -0.000280274 0)
(-0.000168838 0.000815756 0)
(-0.00115015 0.00265178 0)
(-0.00311887 0.00421695 0)
(-0.00566098 0.00536102 0)
(-0.00857766 0.0060766 0)
(-0.0117037 0.00641851 0)
(-0.0148918 0.00646271 0)
(-0.0180247 0.00628084 0)
(-0.0210118 0.00592817 0)
(-0.023782 0.00544144 0)
(-0.0262763 0.00484187 0)
(-0.0284437 0.0041399 0)
(-0.0302367 0.00334 0)
(-0.0316105 0.00244467 0)
(-0.0325222 0.00145763 0)
(-0.0329323 0.000386261 0)
(-0.0328061 -0.0007561 0)
(-0.0321168 -0.00194833 0)
(-0.0308501 -0.00315952 0)
(-0.0290083 -0.00434739 0)
(-0.0266161 -0.0054571 0)
(-0.023726 -0.00642104 0)
(-0.0204245 -0.00716012 0)
(-0.0168347 -0.00758757 0)
(-0.0131184 -0.00761603 0)
(-0.00947281 -0.00716969 0)
(-0.00611967 -0.00620302 0)
(-0.00327663 -0.00472709 0)
(-0.00115925 -0.00284303 0)
(-0.000155142 -0.000808133 0)
(-0.000216753 0.00151093 0)
(-0.00142685 0.00437641 0)
(-0.00380487 0.00669378 0)
(-0.00682391 0.00835186 0)
(-0.0102449 0.00937481 0)
(-0.0138808 0.00985116 0)
(-0.0175684 0.00989065 0)
(-0.0211793 0.00959478 0)
(-0.0246145 0.00904235 0)
(-0.0277957 0.00828666 0)
(-0.0306579 0.0073594 0)
(-0.0331441 0.00627709 0)
(-0.0352014 0.00504762 0)
(-0.0367796 0.00367589 0)
(-0.0378304 0.00216834 0)
(-0.0383082 0.000536658 0)
(-0.038173 -0.00119898 0)
(-0.0373929 -0.00300687 0)
(-0.0359491 -0.00484077 0)
(-0.0338416 -0.00663748 0)
(-0.0310958 -0.00831511 0)
(-0.0277694 -0.00977292 0)
(-0.0239588 -0.0108938 0)
(-0.0198039 -0.0115504 0)
(-0.0154884 -0.0116164 0)
(-0.0112376 -0.0109839 0)
(-0.00730509 -0.00958768 0)
(-0.00394254 -0.0074367 0)
(-0.00140887 -0.00464692 0)
(-0.000192107 -0.00149131 0)
(-0.000250442 0.00233734 0)
(-0.00164225 0.00640319 0)
(-0.00435978 0.00956972 0)
(-0.00778046 0.0117882 0)
(-0.0116277 0.0131333 0)
(-0.0156931 0.0137398 0)
(-0.0197997 0.0137585 0)
(-0.0238107 0.0133248 0)
(-0.0276218 0.0125429 0)
(-0.031151 0.0114837 0)
(-0.0343302 0.0101898 0)
(-0.0370987 0.00868367 0)
(-0.0394002 0.00697654 0)
(-0.0411795 0.00507526 0)
(-0.042383 0.0029885 0)
(-0.0429588 0.000731703 0)
(-0.0428591 -0.00166836 0)
(-0.042044 -0.00416916 0)
(-0.0404866 -0.0067081 0)
(-0.0381803 -0.00919882 0)
(-0.0351464 -0.0115287 0)
(-0.0314438 -0.0135589 0)
(-0.0271766 -0.015128 0)
(-0.0225003 -0.0160612 0)
(-0.0176229 -0.0161868 0)
(-0.0128016 -0.0153588 0)
(-0.00832787 -0.0134878 0)
(-0.00449264 -0.0105757 0)
(-0.00159802 -0.00674686 0)
(-0.00021344 -0.00228593 0)
(-0.000275671 0.00326557 0)
(-0.00181749 0.00867846 0)
(-0.00482552 0.0127831 0)
(-0.00859659 0.0156065 0)
(-0.0128199 0.0172888 0)
(-0.0172664 0.0180224 0)
(-0.0217465 0.0180071 0)
(-0.0261163 0.0174166 0)
(-0.0302687 0.0163831 0)
(-0.0341199 0.014996 0)
(-0.0376005 0.0133087 0)
(-0.0406482 0.0113493 0)
(-0.0432039 0.00913122 0)
(-0.0452083 0.00666216 0)
(-0.0466016 0.0039515 0)
(-0.0473237 0.00101693 0)
(-0.0473167 -0.00210953 0)
(-0.0465284 -0.00537537 0)
(-0.0449188 -0.00870127 0)
(-0.0424688 -0.0119757 0)
(-0.0391906 -0.0150514 0)
(-0.0351392 -0.0177447 0)
(-0.0304245 -0.0198413 0)
(-0.0252186 -0.0211095 0)
(-0.0197588 -0.0213221 0)
(-0.0143428 -0.0202875 0)
(-0.00931022 -0.0178873 0)
(-0.00500004 -0.0141146 0)
(-0.00175971 -0.00910513 0)
(-0.000226874 -0.00316566 0)
(-0.000297069 0.00427887 0)
(-0.00197255 0.0111694 0)
(-0.00524481 0.0162957 0)
(-0.00933959 0.0197686 0)
(-0.0139144 0.0218052 0)
(-0.0187206 0.0226663 0)
(-0.0235563 0.0226079 0)
(-0.0282721 0.0218475 0)
(-0.032759 0.0205477 0)
(-0.0369333 0.0188174 0)
(-0.0407258 0.0167207 0)
(-0.0440741 0.0142904 0)
(-0.0469169 0.0115406 0)
(-0.049191 0.00847759 0)
(-0.0508299 0.00510916 0)
(-0.0517633 0.00145244 0)
(-0.0519197 -0.00245792 0)
(-0.0512298 -0.00656149 0)
(-0.0496344 -0.0107628 0)
(-0.0470946 -0.0149237 0)
(-0.0436059 -0.0188572 0)
(-0.0392137 -0.0223266 0)
(-0.0340297 -0.025053 0)
(-0.0282443 -0.0267333 0)
(-0.0221309 -0.0270712 0)
(-0.01604 -0.0258182 0)
(-0.0103748 -0.0228217 0)
(-0.00553574 -0.0180693 0)
(-0.00192265 -0.0117191 0)
(-0.000237688 -0.00412207 0)
(-0.000317863 0.00537106 0)
(-0.00212347 0.013863 0)
(-0.0056542 0.0200928 0)
(-0.010068 0.0242611 0)
(-0.0149917 0.0266719 0)
(-0.0201577 0.027664 0)
(-0.0253523 0.0275578 0)
(-0.0304215 0.0266195 0)
(-0.0352557 0.0250454 0)
(-0.0397728 0.0229647 0)
(-0.0439056 0.0204521 0)
(-0.0475926 0.0175439 0)
(-0.050772 0.0142526 0)
(-0.0533769 0.0105806 0)
(-0.0553334 0.0065301 0)
(-0.0565596 0.00211376 0)
(-0.0569669 -0.0026354 0)
(-0.0564636 -0.00765289 0)
(-0.0549634 -0.0128291 0)
(-0.0523988 -0.0179984 0)
(-0.0487381 -0.022929 0)
(-0.0440075 -0.0273209 0)
(-0.0383145 -0.0308143 0)
(-0.0318668 -0.0330149 0)
(-0.0249817 -0.0335361 0)
(-0.0180786 -0.0320564 0)
(-0.0116461 -0.0283825 0)
(-0.00616809 -0.0225037 0)
(-0.00211099 -0.0146206 0)
(-0.000248921 -0.00516088 0)
(-0.000340168 0.00654364 0)
(-0.00228216 0.016762 0)
(-0.00608224 0.0241789 0)
(-0.0108282 0.0290902 0)
(-0.0161156 0.0318971 0)
(-0.0216574 0.0330262 0)
(-0.0272288 0.0328706 0)
(-0.0326721 0.0317508 0)
(-0.0378786 0.0298999 0)
(-0.0427696 0.0274691 0)
(-0.0472818 0.0245432 0)
(-0.0513567 0.0211604 0)
(-0.0549333 0.0173296 0)
(-0.0579427 0.0130451 0)
(-0.0603041 0.00829923 0)
(-0.0619228 0.00309446 0)
(-0.0626904 -0.00254412 0)
(-0.0624872 -0.00855445 0)
(-0.0611911 -0.014817 0)
(-0.058694 -0.0211397 0)
(-0.0549229 -0.027242 0)
(-0.0498696 -0.0327479 0)
(-0.043625 -0.0371963 0)
(-0.0364091 -0.0400731 0)
(-0.0285891 -0.0408709 0)
(-0.0206733 -0.0391693 0)
(-0.0132673 -0.0347234 0)
(-0.00697237 -0.0275343 0)
(-0.00234849 -0.0178758 0)
(-0.000262341 -0.00629928 0)
(-0.000365355 0.0078036 0)
(-0.00245723 0.0198815 0)
(-0.00655031 0.0285732 0)
(-0.0116552 0.0342775 0)
(-0.0173335 0.0375034 0)
(-0.0232781 0.0387763 0)
(-0.0292533 0.0385711 0)
(-0.0350986 0.0372689 0)
(-0.0407083 0.0351435 0)
(-0.0460092 0.0323693 0)
(-0.0509444 0.0290416 0)
(-0.0554614 0.025199 0)
(-0.0595031 0.0208436 0)
(-0.0630007 0.0159579 0)
(-0.0658686 0.0105185 0)
(-0.0679999 0.00451002 0)
(-0.0692656 -0.00205887 0)
(-0.0695124 -0.00913854 0)
(-0.0685727 -0.0166075 0)
(-0.0662837 -0.0242525 0)
(-0.062511 -0.0317421 0)
(-0.0571893 -0.0386124 0)
(-0.0503703 -0.044275 0)
(-0.0422712 -0.0480578 0)
(-0.0333101 -0.0492856 0)
(-0.0241071 -0.0473976 0)
(-0.015429 -0.0420755 0)
(-0.00804847 -0.0333433 0)
(-0.00266557 -0.0215931 0)
(-0.000279674 -0.00756663 0)
(-0.000394366 0.0091618 0)
(-0.00265513 0.0232456 0)
(-0.00707472 0.0333063 0)
(-0.0125755 0.0398553 0)
(-0.0186807 0.0435224 0)
(-0.0250615 0.0449448 0)
(-0.0314714 0.0446892 0)
(-0.0377486 0.0432049 0)
(-0.0437924 0.0408105 0)
(-0.0495382 0.0377061 0)
(-0.0549391 0.0339973 0)
(-0.0599523 0.0297222 0)
(-0.0645289 0.0248735 0)
(-0.0686049 0.0194173 0)
(-0.0720941 0.0133075 0)
(-0.0748803 0.00650143 0)
(-0.0768156 -0.00102145 0)
(-0.07771 -0.00923112 0)
(-0.0773407 -0.0180254 0)
(-0.075474 -0.0271804 0)
(-0.0718881 -0.0363175 0)
(-0.0664259 -0.0448754 0)
(-0.0590621 -0.0521097 0)
(-0.0499798 -0.0571385 0)
(-0.0396357 -0.0590507 0)
(-0.0287836 -0.0570748 0)
(-0.0184112 -0.0507754 0)
(-0.00954658 -0.0402067 0)
(-0.00310927 -0.0259407 0)
(-0.000304111 -0.00900967 0)
(-0.000427998 0.0106321 0)
(-0.00288142 0.0268856 0)
(-0.00766935 0.0384176 0)
(-0.0136108 0.045864 0)
(-0.0201846 0.0499918 0)
(-0.0270379 0.0515653 0)
(-0.0339132 0.0512554 0)
(-0.040649 0.0495882 0)
(-0.0471528 0.0469323 0)
(-0.0533722 0.0435161 0)
(-0.0592744 0.0394566 0)
(-0.0648315 0.0347908 0)
(-0.0700089 0.0294999 0)
(-0.0747545 0.0235294 0)
(-0.0789892 0.0168036 0)
(-0.0825953 0.00924218 0)
(-0.0854046 0.000781162 0)
(-0.0871972 -0.00859304 0)
(-0.0876939 -0.0188155 0)
(-0.0865654 -0.0296744 0)
(-0.0834715 -0.0407599 0)
(-0.0781161 -0.0514133 0)
(-0.0703383 -0.0607065 0)
(-0.0602279 -0.0674836 0)
(-0.048244 -0.0704978 0)
(-0.0352848 -0.0686523 0)
(-0.0226341 -0.061308 0)
(-0.0117002 -0.0485386 0)
(-0.00375625 -0.0311796 0)
(-0.00034225 -0.010704 0)
(-0.000467179 0.0122313 0)
(-0.00314214 0.0308395 0)
(-0.00834859 0.0439536 0)
(-0.0147825 0.0523495 0)
(-0.0218705 0.0569519 0)
(-0.0292324 0.0586709 0)
(-0.0365997 0.0582966 0)
(-0.0438136 0.0564418 0)
(-0.0507928 0.0535317 0)
(-0.0575016 0.0498262 0)
(-0.0639265 0.0454559 0)
(-0.070061 0.0404569 0)
(-0.0758923 0.0347982 0)
(-0.0813896 0.0284015 0)
(-0.0864915 0.0211553 0)
(-0.0910902 0.0129309 0)
(-0.0950142 0.00360359 0)
(-0.098017 -0.00691495 0)
(-0.099758 -0.0186235 0)
(-0.0998035 -0.0313605 0)
(-0.097659 -0.0447202 0)
(-0.0928281 -0.0579647 0)
(-0.0849296 -0.069965 0)
(-0.0738652 -0.0792187 0)
(-0.0600178 -0.0840052 0)
(-0.0444117 -0.0827204 0)
(-0.0287051 -0.0743582 0)
(-0.0148621 -0.0589556 0)
(-0.00472812 -0.0377141 0)
(-0.000406424 -0.012773 0)
(-0.000513257 0.0139798 0)
(-0.00344525 0.0351531 0)
(-0.00913047 0.0499689 0)
(-0.0161163 0.059363 0)
(-0.0237668 0.0644439 0)
(-0.0316707 0.0662911 0)
(-0.0395489 0.0658318 0)
(-0.0472479 0.0637773 0)
(-0.0547019 0.0606168 0)
(-0.0618962 0.0566464 0)
(-0.0688427 0.052013 0)
(-0.075563 0.046754 0)
(-0.0820753 0.040827 0)
(-0.0883818 0.034129 0)
(-0.0944533 0.0265083 0)
(-0.10021 0.0177769 0)
(-0.105494 0.00772907 0)
(-0.110052 -0.00382396 0)
(-0.11349 -0.0169901 0)
(-0.115263 -0.0317187 0)
(-0.114692 -0.0476686 0)
(-0.111012 -0.0640716 0)
(-0.103514 -0.0796061 0)
(-0.0917755 -0.0923544 0)
(-0.0759668 -0.0999478 0)
(-0.0571592 -0.100003 0)
(-0.0374358 -0.090857 0)
(-0.0195337 -0.0723532 0)
(-0.00620667 -0.0461597 0)
(-0.000517209 -0.0154156 0)
(-0.000568391 0.0159029 0)
(-0.0038025 0.0398827 0)
(-0.0100404 0.0565277 0)
(-0.0176467 0.066961 0)
(-0.0259103 0.0725083 0)
(-0.0343847 0.0744486 0)
(-0.0427809 0.0738676 0)
(-0.0509543 0.0715892 0)
(-0.0588592 0.0681745 0)
(-0.066507 0.0639613 0)
(-0.0739402 0.0591166 0)
(-0.0812157 0.0536831 0)
(-0.0883917 0.0476106 0)
(-0.0955159 0.040774 0)
(-0.102608 0.0329805 0)
(-0.109639 0.0239758 0)
(-0.116493 0.0134557 0)
(-0.122927 0.0010974 0)
(-0.128526 -0.0133749 0)
(-0.132647 -0.0300967 0)
(-0.134401 -0.0488866 0)
(-0.132698 -0.0690396 0)
(-0.126391 -0.0890955 0)
(-0.114563 -0.106681 0)
(-0.0969699 -0.118587 0)
(-0.0745545 -0.121284 0)
(-0.0497824 -0.111981 0)
(-0.0263676 -0.0899716 0)
(-0.00844646 -0.0574218 0)
(-0.000706466 -0.0189412 0)
(-0.000636115 0.0180341 0)
(-0.00423184 0.0450992 0)
(-0.0111158 0.0637073 0)
(-0.0194235 0.0752059 0)
(-0.0283523 0.0811835 0)
(-0.0374171 0.0831559 0)
(-0.0463211 0.0823934 0)
(-0.0549336 0.0798481 0)
(-0.0632338 0.0761617 0)
(-0.0712641 0.0717189 0)
(-0.0791021 0.0667119 0)
(-0.0868449 0.0611941 0)
(-0.0945982 0.0551142 0)
(-0.102466 0.0483315 0)
(-0.110533 0.0406171 0)
(-0.118843 0.0316493 0)
(-0.127351 0.021013 0)
(-0.135867 0.00821751 0)
(-0.143989 -0.00724851 0)
(-0.151004 -0.0257946 0)
(-0.155834 -0.0475294 0)
(-0.157041 -0.0719558 0)
(-0.152954 -0.097593 0)
(-0.142001 -0.121636 0)
(-0.123273 -0.139876 0)
(-0.0972835 -0.147212 0)
(-0.0666505 -0.139037 0)
(-0.0361236 -0.113403 0)
(-0.0117855 -0.0727687 0)
(-0.00102337 -0.0238117 0)
(-0.000722303 0.0204187 0)
(-0.00476118 0.0508957 0)
(-0.0124124 0.0716033 0)
(-0.021518 0.084168 0)
(-0.0311642 0.090503 0)
(-0.0408253 0.0924097 0)
(-0.0502017 0.0913739 0)
(-0.0591833 0.0884921 0)
(-0.0677804 0.0844948 0)
(-0.0760698 0.0798179 0)
(-0.0841665 0.0746834 0)
(-0.0922097 0.069162 0)
(-0.100355 0.0632106 0)
(-0.108768 0.0566838 0)
(-0.117609 0.0493277 0)
(-0.12701 0.0407596 0)
(-0.137025 0.0304487 0)
(-0.147561 0.0177105 0)
(-0.158271 0.00174358 0)
(-0.168438 -0.0182466 0)
(-0.176858 -0.0427995 0)
(-0.181795 -0.0718131 0)
(-0.181054 -0.103978 0)
(-0.172314 -0.136187 0)
(-0.153766 -0.163187 0)
(-0.125079 -0.177929 0)
(-0.0885111 -0.173146 0)
(-0.0495426 -0.144459 0)
(-0.0166583 -0.0938684 0)
(-0.00154957 -0.0306942 0)
(-0.000836912 0.0231219 0)
(-0.00543426 0.0573983 0)
(-0.0140136 0.0803361 0)
(-0.0240319 0.0939251 0)
(-0.0344427 0.100491 0)
(-0.0446814 0.102183 0)
(-0.054456 0.100738 0)
(-0.0636875 0.0974143 0)
(-0.0724237 0.0930352 0)
(-0.0807787 0.0880902 0)
(-0.088904 0.0828337 0)
(-0.0969772 0.0773599 0)
(-0.105199 0.0716434 0)
(-0.113793 0.0655486 0)
(-0.122992 0.0588122 0)
(-0.13302 0.0510061 0)
(-0.144045 0.041491 0)
(-0.156098 0.0293799 0)
(-0.168955 0.0135439 0)
(-0.18197 -0.00728409 0)
(-0.193941 -0.0342362 0)
(-0.202987 -0.0677614 0)
(-0.206533 -0.106995 0)
(-0.201568 -0.14879 0)
(-0.185253 -0.187025 0)
(-0.155966 -0.212559 0)
(-0.114806 -0.214654 0)
(-0.0670839 -0.184804 0)
(-0.023606 -0.122741 0)
(-0.00243174 -0.0405321 0)
(-0.000997419 0.0262397 0)
(-0.00632088 0.0647813 0)
(-0.0160435 0.0900584 0)
(-0.0271076 0.10456 0)
(-0.0383123 0.11115 0)
(-0.0490657 0.112408 0)
(-0.0591024 0.110363 0)
(-0.0683904 0.106444 0)
(-0.0770243 0.10157 0)
(-0.0851571 0.0962803 0)
(-0.0929725 0.0908605 0)
(-0.100678 0.0854309 0)
(-0.108506 0.0799921 0)
(-0.11672 0.0744314 0)
(-0.125608 0.0684952 0)
(-0.13547 0.0617318 0)
(-0.146576 0.0534159 0)
(-0.159096 0.042472 0)
(-0.172975 0.0274398 0)
(-0.18777 0.00654498 0)
(-0.202411 -0.0220178 0)
(-0.215139 -0.0594161 0)
(-0.223349 -0.105506 0)
(-0.223594 -0.157496 0)
(-0.212092 -0.208859 0)
(-0.185633 -0.248676 0)
(-0.143217 -0.262324 0)
(-0.0884388 -0.235224 0)
(-0.0332347 -0.161527 0)
(-0.00393382 -0.0546383 0)
(-0.00123602 0.0299201 0)
(-0.0075351 0.0732902 0)
(-0.0186879 0.100961 0)
(-0.0309397 0.116148 0)
(-0.0429207 0.12244 0)
(-0.0540434 0.12295 0)
(-0.0641029 0.120039 0)
(-0.0731394 0.115315 0)
(-0.0813069 0.109782 0)
(-0.0888 0.104018 0)
(-0.095829 0.0983313 0)
(-0.102618 0.0928662 0)
(-0.109413 0.0876513 0)
(-0.116489 0.0826057 0)
(-0.124154 0.0775014 0)
(-0.132747 0.0718893 0)
(-0.142609 0.0649939 0)
(-0.154031 0.0555985 0)
(-0.167161 0.0419667 0)
(-0.18184 0.0218832 0)
(-0.197325 -0.00709603 0)
(-0.212334 -0.0471377 0)
(-0.224656 -0.0988357 0)
(-0.230893 -0.160259 0)
(-0.226727 -0.225262 0)
(-0.207398 -0.28205 0)
(-0.169098 -0.312521 0)
(-0.111813 -0.294527 0)
(-0.0460068 -0.211897 0)
(-0.00648928 -0.0747734 0)
(-0.00161533 0.0344004 0)
(-0.00926955 0.0832738 0)
(-0.0222258 0.113273 0)
(-0.0357835 0.12873 0)
(-0.048417 0.134232 0)
(-0.0596097 0.133555 0)
(-0.0692768 0.129424 0)
(-0.0775689 0.123619 0)
(-0.0847196 0.117205 0)
(-0.0909716 0.110778 0)
(-0.0965594 0.104655 0)
(-0.101713 0.0989908 0)
(-0.106671 0.0938359 0)
(-0.111689 0.0891405 0)
(-0.117058 0.084711 0)
(-0.123102 0.0801233 0)
(-0.130179 0.0745971 0)
(-0.138658 0.0668489 0)
(-0.148856 0.0549741 0)
(-0.160959 0.0364458 0)
(-0.174902 0.00830392 0)
(-0.189979 -0.0323836 0)
(-0.204709 -0.0872311 0)
(-0.216553 -0.155577 0)
(-0.221324 -0.232587 0)
(-0.213258 -0.307045 0)
(-0.185633 -0.358898 0)
(-0.133296 -0.358358 0)
(-0.0617389 -0.27396 0)
(-0.0106949 -0.103102 0)
(-0.00226305 0.0400795 0)
(-0.0118606 0.0952278 0)
(-0.027075 0.12724 0)
(-0.0419503 0.142243 0)
(-0.0548835 0.146218 0)
(-0.0655618 0.143751 0)
(-0.0741175 0.137946 0)
(-0.0808703 0.130717 0)
(-0.0861649 0.12315 0)
(-0.0903082 0.115828 0)
(-0.0935646 0.109049 0)
(-0.0961682 0.102959 0)
(-0.0983374 0.0976147 0)
(-0.10029 0.0929845 0)
(-0.102262 0.0889061 0)
(-0.104522 0.0849951 0)
(-0.10739 0.0805106 0)
(-0.111255 0.0741919 0)
(-0.116572 0.0641109 0)
(-0.123846 0.0476214 0)
(-0.133574 0.0215189 0)
(-0.145957 -0.0174939 0)
(-0.160698 -0.0721764 0)
(-0.176469 -0.143315 0)
(-0.19011 -0.228213 0)
(-0.195935 -0.317976 0)
(-0.185133 -0.393225 0)
(-0.14694 -0.418722 0)
(-0.0788353 -0.344771 0)
(-0.0171282 -0.141838 0)
(-0.00344768 0.0476592 0)
(-0.0159094 0.109841 0)
(-0.033844 0.143043 0)
(-0.0497412 0.156371 0)
(-0.0621489 0.157746 0)
(-0.0712025 0.152691 0)
(-0.0774053 0.144652 0)
(-0.081332 0.135604 0)
(-0.0834866 0.126593 0)
(-0.0842699 0.11814 0)
(-0.0839942 0.110488 0)
(-0.0829069 0.10375 0)
(-0.0812096 0.0979589 0)
(-0.0790759 0.093081 0)
(-0.0766724 0.0889702 0)
(-0.0741859 0.0852839 0)
(-0.071862 0.0813543 0)
(-0.0700547 0.0760273 0)
(-0.0692775 0.0675059 0)
(-0.0702488 0.0532772 0)
(-0.0739245 0.0302156 0)
(-0.0813905 -0.00514516 0)
(-0.0935677 -0.056241 0)
(-0.11063 -0.125181 0)
(-0.131209 -0.211796 0)
(-0.151062 -0.311024 0)
(-0.161061 -0.407427 0)
(-0.145844 -0.464958 0)
(-0.0936253 -0.417108 0)
(-0.0258401 -0.192355 0)
(-0.00573458 0.0584388 0)
(-0.022486 0.128015 0)
(-0.0433196 0.160575 0)
(-0.0591617 0.170231 0)
(-0.0692576 0.167489 0)
(-0.0746162 0.158843 0)
(-0.0763421 0.147946 0)
(-0.0753838 0.136698 0)
(-0.0724699 0.126011 0)
(-0.0681312 0.116279 0)
(-0.0627492 0.107649 0)
(-0.0565967 0.100158 0)
(-0.0498648 0.0937883 0)
(-0.0426863 0.0884724 0)
(-0.0351613 0.0840587 0)
(-0.0273914 0.080237 0)
(-0.019532 0.0764283 0)
(-0.0118666 0.0716443 0)
(-0.0048873 0.064343 0)
(0.000625832 0.0523292 0)
(0.00345889 0.0327721 0)
(0.00182523 0.0023846 0)
(-0.00612508 -0.0423068 0)
(-0.0219412 -0.104288 0)
(-0.046399 -0.185599 0)
(-0.0779328 -0.285666 0)
(-0.109477 -0.395934 0)
(-0.123567 -0.485941 0)
(-0.100388 -0.479418 0)
(-0.0355211 -0.253868 0)
(-0.0102758 0.0749598 0)
(-0.0333883 0.15073 0)
(-0.0560538 0.178878 0)
(-0.0688375 0.181725 0)
(-0.0728945 0.17286 0)
(-0.0707835 0.159515 0)
(-0.0645174 0.145225 0)
(-0.0555441 0.13159 0)
(-0.0448606 0.119241 0)
(-0.0331293 0.108354 0)
(-0.0207831 0.0989196 0)
(-0.00809813 0.0908582 0)
(0.00476479 0.0840645 0)
(0.0177266 0.0784115 0)
(0.0307574 0.0737192 0)
(0.0438394 0.0696957 0)
(0.0569099 0.0658492 0)
(0.0697791 0.0613776 0)
(0.0820238 0.0550509 0)
(0.0928633 0.0451065 0)
(0.101006 0.0292033 0)
(0.104447 0.00453097 0)
(0.10083 -0.0319693 0)
(0.087501 -0.0834781 0)
(0.0618343 -0.1533 0)
(0.0222573 -0.244626 0)
(-0.0284419 -0.357039 0)
(-0.0743891 -0.472486 0)
(-0.092132 -0.517433 0)
(-0.0427719 -0.322646 0)
(-0.0191691 0.101952 0)
(-0.0509139 0.177891 0)
(-0.0699333 0.19469 0)
(-0.0719989 0.186218 0)
(-0.0625926 0.169005 0)
(-0.0466189 0.150209 0)
(-0.0271741 0.132571 0)
(-0.00613774 0.116995 0)
(0.0153663 0.10361 0)
(0.0367012 0.0922573 0)
(0.057529 0.0827029 0)
(0.077689 0.0747122 0)
(0.0971408 0.0680736 0)
(0.115921 0.0625882 0)
(0.134105 0.0580411 0)
(0.151776 0.0541535 0)
(0.168961 0.050517 0)
(0.185562 0.0465114 0)
(0.201248 0.041216 0)
(0.21532 0.0333287 0)
(0.226556 0.0211241 0)
(0.23289 0.00247377 0)
(0.23187 -0.0249059 0)
(0.220261 -0.063878 0)
(0.19422 -0.117872 0)
(0.149863 -0.191978 0)
(0.0846103 -0.292798 0)
(0.00850284 -0.419286 0)
(-0.0609529 -0.517109 0)
(-0.0416834 -0.391052 0)
(-0.0342621 0.14527 0)
(-0.0723579 0.202115 0)
(-0.0678212 0.196657 0)
(-0.0423953 0.172438 0)
(-0.00740223 0.146397 0)
(0.0305395 0.123456 0)
(0.0681743 0.104416 0)
(0.104048 0.0889216 0)
(0.137567 0.0763772 0)
(0.168598 0.0662231 0)
(0.197234 0.0579916 0)
(0.223672 0.0513117 0)
(0.248155 0.0458901 0)
(0.270941 0.0414846 0)
(0.292277 0.0378714 0)
(0.312371 0.0348064 0)
(0.331349 0.0319788 0)
(0.349191 0.0289573 0)
(0.365638 0.0251329 0)
(0.380079 0.0196624 0)
(0.391391 0.0114288 0)
(0.397775 -0.000975998 0)
(0.396781 -0.0189219 0)
(0.384863 -0.0444312 0)
(0.357666 -0.0801741 0)
(0.310205 -0.131026 0)
(0.235628 -0.206941 0)
(0.136384 -0.324427 0)
(0.00608946 -0.464646 0)
(-0.0195941 -0.439211 0)
(-0.0373283 0.236406 0)
(-0.0463765 0.204963 0)
(0.0301815 0.154705 0)
(0.102887 0.118627 0)
(0.170433 0.091508 0)
(0.230552 0.0713508 0)
(0.282879 0.0566129 0)
(0.32816 0.0457595 0)
(0.367416 0.0376266 0)
(0.40163 0.031438 0)
(0.431658 0.0266759 0)
(0.458226 0.0229816 0)
(0.481942 0.0200974 0)
(0.503314 0.0178287 0)
(0.522757 0.0160137 0)
(0.540586 0.0144948 0)
(0.556993 0.0130915 0)
(0.572007 0.0115723 0)
(0.585415 0.00963025 0)
(0.596675 0.006865 0)
(0.604754 0.00277033 0)
(0.608231 -0.0032233 0)
(0.604908 -0.0119255 0)
(0.591557 -0.0242975 0)
(0.563675 -0.0416006 0)
(0.516528 -0.0669186 0)
(0.43965 -0.107742 0)
(0.331413 -0.189928 0)
(0.141612 -0.337449 0)
(0.0599034 -0.413901 0)
(0.231275 0.158508 0)
(0.29176 0.117336 0)
(0.442034 0.0762312 0)
(0.541628 0.0509167 0)
(0.609226 0.0345124 0)
(0.658974 0.0236294 0)
(0.69696 0.0164963 0)
(0.726535 0.0118274 0)
(0.750048 0.00872572 0)
(0.769163 0.00662522 0)
(0.785028 0.0051788 0)
(0.798446 0.00416914 0)
(0.809999 0.003456 0)
(0.820119 0.00294527 0)
(0.829117 0.00256874 0)
(0.837209 0.00226941 0)
(0.844502 0.00198991 0)
(0.850983 0.00166346 0)
(0.856479 0.00120595 0)
(0.86062 0.000520643 0)
(0.862771 -0.000507495 0)
(0.86198 -0.0019266 0)
(0.856746 -0.00400605 0)
(0.845433 -0.00702004 0)
(0.825052 -0.0111573 0)
(0.793285 -0.0173257 0)
(0.73804 -0.0274636 0)
(0.659674 -0.0499106 0)
(0.455943 -0.110937 0)
(0.313615 -0.178089 0)
)
;

boundaryField
{
    movingWall
    {
        type            fixedValue;
        value           uniform (1 0 0);
    }
    fixedWalls
    {
        type            noSlip;
    }
    frontAndBack
    {
        type            empty;
    }
}


// ************************************************************************* //
