/*--------------------------------*- C++ -*----------------------------------*\
  =========                 |
  \\      /  F ield         | OpenFOAM: The Open Source CFD Toolbox
   \\    /   O peration     | Website:  https://openfoam.org
    \\  /    A nd           | Version:  7
     \\/     M anipulation  |
\*---------------------------------------------------------------------------*/
FoamFile
{
    version     2.0;
    format      ascii;
    class       volVectorField;
    location    "0.26";
    object      U;
}
// * * * * * * * * * * * * * * * * * * * * * * * * * * * * * * * * * * * * * //

dimensions      [0 1 -1 0 0 0 0];

internalField   nonuniform List<vector> 
1936
(
(-10.4092 3.22246 0)
(-70.8724 192.156 0)
(-26.7105 440.656 0)
(5.69225 451.834 0)
(-2.14477 410.038 0)
(10.2507 400.396 0)
(17.6541 357.367 0)
(14.9112 302.72 0)
(0.760682 277.175 0)
(-10.6812 278.377 0)
(-25.5681 334.72 0)
(-21.6276 466.654 0)
(24.0616 491.178 0)
(37.0764 351.752 0)
(21.2317 251.808 0)
(9.3633 236.409 0)
(-8.12087 250.63 0)
(-29.2833 354.034 0)
(-17.5986 489.254 0)
(25.4636 448.435 0)
(25.8896 292.225 0)
(0.942586 229.13 0)
(-11.8361 229.92 0)
(-32.9341 292.875 0)
(-32.7362 457.591 0)
(17.2982 497.092 0)
(32.1056 342.595 0)
(8.80264 236.992 0)
(-6.79607 226.332 0)
(-22.0978 254.53 0)
(-41.2825 398.711 0)
(-5.62734 516.2 0)
(37.4268 401.358 0)
(19.9445 255.533 0)
(3.56002 228.453 0)
(-13.4354 247.096 0)
(-35.5795 375.392 0)
(-3.25604 506.299 0)
(38.0486 420.07 0)
(26.4617 268.141 0)
(9.85702 228.27 0)
(-3.75497 231.128 0)
(-28.6835 312.712 0)
(-25.1559 471.531 0)
(-11.8073 7.76503 0)
(-77.2854 0.480946 0)
(-29.8851 -4.73305 0)
(4.28909 -3.22346 0)
(-4.17646 -1.48001 0)
(8.84197 -1.4659 0)
(16.7174 -0.32496 0)
(12.5098 1.43056 0)
(-0.793219 2.6473 0)
(-7.67242 2.50222 0)
(-22.6022 -0.175503 0)
(-22.0552 -4.17678 0)
(25.2949 -4.18948 0)
(36.5484 -0.608494 0)
(15.3153 2.22437 0)
(7.86895 3.48449 0)
(-4.60466 3.09185 0)
(-29.338 0.0171097 0)
(-18.6039 -3.78207 0)
(26.5385 -3.37305 0)
(23.2196 0.953663 0)
(-2.00654 3.79921 0)
(-6.85506 3.53001 0)
(-28.8339 0.481203 0)
(-33.6909 -3.95891 0)
(18.5397 -4.4777 0)
(31.438 -0.369499 0)
(4.35427 3.1896 0)
(-4.60542 3.76882 0)
(-16.9424 2.12412 0)
(-41.7752 -1.99358 0)
(-5.76427 -5.22466 0)
(37.3335 -2.84621 0)
(14.3866 1.98614 0)
(2.55592 4.00117 0)
(-8.68952 2.78385 0)
(-34.9343 -1.71785 0)
(-3.55901 -4.95952 0)
(39.1423 -2.7305 0)
(21.6641 1.34613 0)
(5.84972 3.53879 0)
(0.343236 3.57429 0)
(-26.929 0.510663 0)
(-26.8281 -3.76631 0)
(-3.18213 16.1466 0)
(-71.9126 1.63575 0)
(-32.0418 -10.2534 0)
(2.86969 -6.75811 0)
(-2.91599 -2.94269 0)
(8.52713 -3.1337 0)
(16.4978 -0.669222 0)
(12.8916 2.98589 0)
(0.13838 5.13566 0)
(-6.67908 5.01672 0)
(-22.5907 0.224084 0)
(-25.194 -8.60212 0)
(23.0368 -9.0864 0)
(37.1473 -0.676685 0)
(12.9598 5.00144 0)
(2.17273 6.77113 0)
(-9.75974 6.32251 0)
(-32.1943 0.171171 0)
(-17.4663 -8.45385 0)
(30.0713 -7.14103 0)
(25.941 2.43971 0)
(1.46682 7.44132 0)
(-3.57514 7.05546 0)
(-28.266 1.80451 0)
(-35.4438 -8.20848 0)
(19.1331 -9.81188 0)
(34.2311 -0.345985 0)
(7.2817 6.5668 0)
(-1.95071 7.34329 0)
(-16.9602 4.89492 0)
(-42.5915 -3.85518 0)
(-3.38935 -11.4206 0)
(40.0186 -5.3943 0)
(13.3099 4.58025 0)
(0.603578 7.69719 0)
(-10.3089 5.87888 0)
(-37.5084 -3.14352 0)
(-5.72857 -10.8425 0)
(40.0226 -5.50046 0)
(21.4651 3.48822 0)
(2.34759 6.94264 0)
(-3.43244 7.13914 0)
(-30.2324 1.54124 0)
(-28.3971 -8.26081 0)
(5.34103 22.686 0)
(-59.2386 3.4929 0)
(-27.3847 -14.2318 0)
(-1.881 -10.1503 0)
(-5.67328 -4.56154 0)
(4.17778 -4.55242 0)
(10.4069 -0.983959 0)
(7.47273 4.19461 0)
(-1.03757 7.04213 0)
(-2.39554 7.02027 0)
(-12.9503 0.799211 0)
(-20.4586 -11.9872 0)
(15.7168 -13.2414 0)
(26.7052 -0.636212 0)
(4.44817 7.76751 0)
(-2.34256 9.66455 0)
(-7.49391 8.65941 0)
(-24.0341 -0.245681 0)
(-12.3302 -12.671 0)
(24.5638 -10.2542 0)
(17.5719 3.60344 0)
(0.59949 10.2677 0)
(2.86844 10.0891 0)
(-16.6454 3.28399 0)
(-27.693 -11.5243 0)
(14.8084 -14.3682 0)
(25.0818 -0.532932 0)
(3.22682 9.23752 0)
(1.47624 10.4304 0)
(-8.26357 7.38412 0)
(-31.6493 -5.46702 0)
(-0.97218 -16.5512 0)
(30.4396 -7.1167 0)
(3.84022 6.97079 0)
(-1.37879 10.6297 0)
(-4.06004 8.33869 0)
(-27.9561 -4.25285 0)
(-5.73754 -15.7504 0)
(30.1898 -7.77326 0)
(11.7656 5.57012 0)
(-3.05122 9.93611 0)
(-1.2912 9.92086 0)
(-21.4209 2.15889 0)
(-22.7302 -12.1785 0)
(13.4082 27.6665 0)
(-48.2365 5.78003 0)
(-22.3694 -16.499 0)
(-5.49634 -13.0329 0)
(-8.27032 -6.43196 0)
(-0.53644 -5.76675 0)
(4.20241 -1.25545 0)
(2.52256 4.94625 0)
(-2.12225 8.11117 0)
(0.503463 8.10428 0)
(-5.37505 1.23343 0)
(-15.7758 -13.9077 0)
(8.57517 -15.9975 0)
(17.7035 -0.55659 0)
(-1.40077 9.94946 0)
(-3.90815 11.7586 0)
(-4.62968 9.90599 0)
(-16.8014 -1.03692 0)
(-7.70982 -15.6834 0)
(19.1818 -12.2263 0)
(10.8339 4.32115 0)
(-1.31902 11.8991 0)
(6.72129 12.0825 0)
(-7.89736 4.55572 0)
(-20.3511 -13.4355 0)
(10.7615 -17.3799 0)
(17.308 -0.844696 0)
(-0.641008 10.813 0)
(3.36533 12.5153 0)
(-1.72525 9.1173 0)
(-21.8934 -6.58095 0)
(1.16534 -19.7624 0)
(21.9134 -7.87693 0)
(-2.52292 8.64411 0)
(-2.25634 12.3299 0)
(0.84504 9.76531 0)
(-19.518 -4.9161 0)
(-5.60218 -18.8747 0)
(21.2749 -9.22411 0)
(4.83151 7.17007 0)
(-6.18672 11.983 0)
(1.71817 11.5174 0)
(-14.1949 2.37104 0)
(-17.3879 -14.81 0)
(20.0462 30.9008 0)
(-37.4407 8.38608 0)
(-16.8846 -17.0944 0)
(-7.41429 -15.0695 0)
(-10.3421 -8.26984 0)
(-4.95741 -6.7135 0)
(-1.58809 -1.55308 0)
(-1.97455 5.12812 0)
(-3.25515 8.27069 0)
(2.10323 8.22459 0)
(-0.133166 1.47406 0)
(-11.3651 -14.3255 0)
(2.50548 -17.2231 0)
(10.0093 -0.571764 0)
(-5.21137 11.1717 0)
(-3.2667 12.8423 0)
(0.0762434 10.2023 0)
(-10.2528 -1.8998 0)
(-4.00602 -17.3247 0)
(13.9053 -13.0212 0)
(5.07422 4.72427 0)
(-3.93226 12.4343 0)
(8.19477 12.8812 0)
(-1.61526 5.41183 0)
(-13.6293 -13.9918 0)
(7.24171 -18.7349 0)
(10.7004 -1.09237 0)
(-4.73629 11.3237 0)
(3.76812 13.4298 0)
(3.36452 9.88174 0)
(-13.5645 -7.16196 0)
(2.58662 -20.9659 0)
(14.64 -7.73467 0)
(-6.43354 9.44716 0)
(-2.23271 12.8365 0)
(5.12479 10.1708 0)
(-12.2829 -5.03091 0)
(-5.13567 -20.1164 0)
(13.4679 -9.87557 0)
(-0.260593 8.06239 0)
(-7.16303 12.8997 0)
(5.26508 12.0232 0)
(-8.02733 2.38067 0)
(-12.4743 -16.0899 0)
(23.6864 32.121 0)
(-25.7714 11.0573 0)
(-10.8995 -16.0535 0)
(-7.49297 -15.9446 0)
(-11.2984 -9.71129 0)
(-8.31657 -7.33154 0)
(-6.18341 -1.90212 0)
(-5.55087 4.66029 0)
(-4.15169 7.55906 0)
(2.44152 7.44848 0)
(2.80614 1.45515 0)
(-7.45021 -13.4118 0)
(-1.78533 -16.9023 0)
(3.65979 -0.784128 0)
(-7.23799 11.2076 0)
(-1.63377 12.7038 0)
(4.87068 9.68189 0)
(-4.70723 -2.47726 0)
(-1.3101 -17.4405 0)
(8.80718 -12.6406 0)
(0.214057 4.8428 0)
(-5.52808 12.0265 0)
(7.66996 12.4715 0)
(2.59649 5.62853 0)
(-7.63781 -13.35 0)
(4.3309 -18.4088 0)
(5.35536 -1.12148 0)
(-7.56677 10.9056 0)
(3.07377 13.0458 0)
(6.79909 9.59948 0)
(-6.86809 -7.16211 0)
(3.03972 -20.265 0)
(8.65352 -6.86398 0)
(-8.26525 9.31164 0)
(-1.63136 12.199 0)
(8.02376 9.67339 0)
(-6.40766 -4.56194 0)
(-4.18695 -19.5106 0)
(6.90428 -9.74391 0)
(-3.8863 8.0785 0)
(-6.42698 12.6251 0)
(7.33108 11.5839 0)
(-2.93815 2.27539 0)
(-8.03302 -15.9822 0)
(23.7846 31.0951 0)
(-12.7188 13.3242 0)
(-4.69688 -13.4107 0)
(-5.8418 -15.4107 0)
(-10.6236 -10.417 0)
(-9.9255 -7.55771 0)
(-8.86015 -2.31521 0)
(-7.60861 3.58599 0)
(-4.50569 6.15359 0)
(1.98384 6.00547 0)
(3.90825 1.12526 0)
(-4.19046 -11.5592 0)
(-4.09365 -15.2127 0)
(-1.17471 -1.12933 0)
(-7.9136 10.0764 0)
(-0.240678 11.3817 0)
(7.55276 8.53755 0)
(-0.470318 -2.66126 0)
(0.461754 -16.0386 0)
(4.16566 -11.1974 0)
(-3.56002 4.63254 0)
(-5.55221 10.7852 0)
(6.23777 11.0214 0)
(5.17792 5.15794 0)
(-2.62307 -11.7419 0)
(2.00202 -16.521 0)
(1.3103 -1.00029 0)
(-8.24996 9.7806 0)
(2.14981 11.4974 0)
(8.45709 8.43186 0)
(-1.92609 -6.59718 0)
(2.59344 -17.9381 0)
(3.82761 -5.62014 0)
(-8.53686 8.38386 0)
(-0.829501 10.6048 0)
(8.87069 8.52983 0)
(-1.99781 -3.72112 0)
(-2.75419 -17.2661 0)
(1.79799 -8.86034 0)
(-6.20521 7.26885 0)
(-5.02959 11.2898 0)
(7.38253 10.3514 0)
(1.03065 2.00071 0)
(-4.18505 -14.5617 0)
(19.9073 27.7941 0)
(-0.062644 14.562 0)
(1.39081 -9.3631 0)
(-2.72117 -13.3855 0)
(-8.18921 -10.1481 0)
(-9.45556 -7.33643 0)
(-9.30939 -2.75066 0)
(-7.86498 2.11428 0)
(-4.19013 4.31464 0)
(1.371 4.22426 0)
(3.80603 0.509199 0)
(-1.76843 -9.25383 0)
(-4.75648 -12.487 0)
(-4.27596 -1.41966 0)
(-7.62983 8.06009 0)
(0.202387 9.17247 0)
(7.67342 6.92776 0)
(2.38491 -2.54081 0)
(1.36535 -13.3694 0)
(0.543715 -8.96083 0)
(-5.77353 3.97504 0)
(-4.6092 8.89219 0)
(4.81567 8.91399 0)
(6.3628 4.10105 0)
(0.901969 -9.44111 0)
(0.270754 -13.414 0)
(-1.58374 -0.873362 0)
(-7.31919 8.1144 0)
(1.55027 9.1994 0)
(8.42371 6.69093 0)
(1.245 -5.53257 0)
(1.67467 -14.4374 0)
(0.252754 -4.29328 0)
(-7.7063 6.89183 0)
(-0.298034 8.42291 0)
(8.00953 6.95619 0)
(1.09342 -2.80942 0)
(-1.17055 -13.8286 0)
(-1.54317 -7.28748 0)
(-7.14745 5.79783 0)
(-3.7172 9.21798 0)
(6.29885 8.53723 0)
(3.78968 1.48837 0)
(-1.19307 -12.0824 0)
(13.2835 22.7816 0)
(8.52628 14.2099 0)
(6.46987 -4.67101 0)
(1.17003 -10.0908 0)
(-4.46093 -8.82858 0)
(-7.12649 -6.63434 0)
(-7.78602 -3.08067 0)
(-6.60852 0.567065 0)
(-3.35134 2.37186 0)
(0.888246 2.42245 0)
(3.03634 -0.241716 0)
(-0.309291 -6.90203 0)
(-4.34659 -9.2516 0)
(-5.53511 -1.5199 0)
(-6.5285 5.60441 0)
(0.0385241 6.55696 0)
(6.25196 4.97794 0)
(3.75075 -2.19097 0)
(1.39249 -9.92894 0)
(-1.68246 -6.37474 0)
(-6.11601 2.95115 0)
(-3.43521 6.62627 0)
(3.60148 6.55722 0)
(6.16113 2.7589 0)
(2.57675 -6.80928 0)
(-0.707859 -9.68054 0)
(-3.25288 -0.729076 0)
(-5.72009 6.05601 0)
(1.17841 6.67011 0)
(7.08031 4.71365 0)
(2.83707 -4.15099 0)
(0.860145 -10.3895 0)
(-1.83662 -3.02245 0)
(-6.11206 5.06183 0)
(-0.108029 6.09423 0)
(6.29992 5.11308 0)
(2.88764 -1.98526 0)
(-0.0287083 -9.8426 0)
(-2.96826 -5.28042 0)
(-6.57763 4.02524 0)
(-2.6368 6.80711 0)
(4.94271 6.3499 0)
(5.01917 0.847283 0)
(0.632458 -8.96161 0)
(7.15852 17.1678 0)
(10.8998 12.3242 0)
(8.99831 -0.628207 0)
(4.50533 -6.23002 0)
(-0.509772 -6.65742 0)
(-3.75184 -5.45599 0)
(-5.05453 -3.13459 0)
(-4.51854 -0.696795 0)
(-2.27985 0.67059 0)
(0.57459 0.830497 0)
(2.11449 -0.880234 0)
(0.289893 -4.80638 0)
(-3.34162 -6.15007 0)
(-5.12313 -1.43841 0)
(-4.88004 3.19922 0)
(-0.191545 4.03475 0)
(4.27651 3.00642 0)
(3.61103 -1.69281 0)
(0.899884 -6.40396 0)
(-2.50491 -3.96625 0)
(-5.00481 1.88088 0)
(-2.37675 4.34429 0)
(2.44556 4.25224 0)
(4.82703 1.5482 0)
(2.67815 -4.29263 0)
(-0.976329 -6.03449 0)
(-3.51255 -0.535926 0)
(-3.95033 3.9397 0)
(0.837166 4.31048 0)
(5.0418 2.85165 0)
(3.0647 -2.73388 0)
(0.340661 -6.52188 0)
(-2.46512 -1.91934 0)
(-4.18398 3.21352 0)
(-0.0470367 3.9623 0)
(4.34907 3.27515 0)
(3.28177 -1.27794 0)
(0.456187 -6.04066 0)
(-2.89977 -3.26409 0)
(-4.89374 2.42999 0)
(-1.68089 4.42048 0)
(3.56257 4.0999 0)
(4.67045 0.316192 0)
(1.35297 -5.78907 0)
(3.66765 12.0012 0)
(8.77898 9.63819 0)
(8.63503 1.91753 0)
(5.99209 -2.81806 0)
(2.31372 -4.16075 0)
(-0.589629 -3.94257 0)
(-2.14319 -2.80195 0)
(-2.27027 -1.42903 0)
(-1.12201 -0.525942 0)
(0.522394 -0.345806 0)
(1.41659 -1.2653 0)
(0.386442 -3.15921 0)
(-2.17641 -3.70014 0)
(-3.69975 -1.26839 0)
(-3.15586 1.2961 0)
(-0.312008 1.9606 0)
(2.40772 1.39172 0)
(2.4617 -1.15526 0)
(0.356146 -3.49894 0)
(-2.21838 -2.12132 0)
(-3.33368 0.991671 0)
(-1.50529 2.43582 0)
(1.40024 2.33907 0)
(3.0334 0.693858 0)
(1.89187 -2.29442 0)
(-0.81362 -3.13424 0)
(-2.66023 -0.316802 0)
(-2.33968 2.1618 0)
(0.515198 2.39325 0)
(3.02161 1.42386 0)
(2.34541 -1.55476 0)
(0.105292 -3.45356 0)
(-2.01033 -1.06611 0)
(-2.43066 1.71246 0)
(-0.008206 2.24516 0)
(2.57122 1.77032 0)
(2.51372 -0.7031 0)
(0.456738 -3.06243 0)
(-2.03504 -1.64466 0)
(-2.94808 1.26646 0)
(-0.895576 2.43947 0)
(2.25457 2.20819 0)
(3.30864 0.0114494 0)
(1.26523 -3.1554 0)
(2.13915 8.05615 0)
(5.41252 6.96411 0)
(6.31041 2.85394 0)
(5.27934 -0.470763 0)
(3.21803 -1.98184 0)
(1.27217 -2.42676 0)
(-0.0122181 -2.1842 0)
(-0.424179 -1.6479 0)
(-0.0391797 -1.19329 0)
(0.672653 -1.04724 0)
(1.00749 -1.37281 0)
(0.358871 -2.02044 0)
(-1.12213 -2.1079 0)
(-2.08092 -1.0743 0)
(-1.75249 0.0987042 0)
(-0.326453 0.555443 0)
(1.0566 0.34479 0)
(1.20111 -0.716403 0)
(0.012322 -1.60088 0)
(-1.43583 -0.962861 0)
(-1.85576 0.40278 0)
(-0.853316 1.11085 0)
(0.645242 1.03845 0)
(1.51973 0.22526 0)
(0.983169 -0.998163 0)
(-0.503563 -1.29462 0)
(-1.49961 -0.140442 0)
(-1.1604 0.964024 0)
(0.274153 1.08362 0)
(1.51356 0.540012 0)
(1.32414 -0.752809 0)
(0.0157861 -1.48641 0)
(-1.18473 -0.493869 0)
(-1.21407 0.742472 0)
(-0.00891661 1.06635 0)
(1.26528 0.791801 0)
(1.39019 -0.292385 0)
(0.272519 -1.19472 0)
(-1.07767 -0.613503 0)
(-1.43644 0.568121 0)
(-0.379116 1.09243 0)
(1.21473 0.936754 0)
(1.82537 -0.0890043 0)
(0.809402 -1.39129 0)
(1.28796 5.49531 0)
(2.83951 4.89274 0)
(3.74567 2.73473 0)
(3.55631 0.740577 0)
(2.67556 -0.537931 0)
(1.69316 -1.25067 0)
(0.929962 -1.53357 0)
(0.560683 -1.53899 0)
(0.574494 -1.42988 0)
(0.740962 -1.31476 0)
(0.731026 -1.28624 0)
(0.319137 -1.33764 0)
(-0.384957 -1.25281 0)
(-0.863418 -0.897068 0)
(-0.776237 -0.471882 0)
(-0.229299 -0.213569 0)
(0.322512 -0.195155 0)
(0.392632 -0.44817 0)
(-0.114923 -0.635988 0)
(-0.727604 -0.381091 0)
(-0.866466 0.0926731 0)
(-0.422072 0.358834 0)
(0.225893 0.324085 0)
(0.596366 0.0352316 0)
(0.375889 -0.333748 0)
(-0.244529 -0.392425 0)
(-0.645237 -0.0323947 0)
(-0.466904 0.326836 0)
(0.12424 0.355169 0)
(0.616755 0.118804 0)
(0.543094 -0.30394 0)
(-0.0309037 -0.495298 0)
(-0.550186 -0.173652 0)
(-0.53779 0.252541 0)
(-0.0377573 0.402128 0)
(0.488932 0.294848 0)
(0.568861 -0.0514734 0)
(0.121172 -0.292537 0)
(-0.419028 -0.111321 0)
(-0.541737 0.224192 0)
(-0.107121 0.359243 0)
(0.548094 0.2748 0)
(0.785508 -0.0756837 0)
(0.380734 -0.456462 0)
(0.76633 3.85912 0)
(1.57744 3.56369 0)
(2.12702 2.36322 0)
(2.20245 1.15984 0)
(1.90459 0.189427 0)
(1.44929 -0.525894 0)
(1.04467 -1.01406 0)
(0.775251 -1.27187 0)
(0.645346 -1.33827 0)
(0.572942 -1.26198 0)
(0.451953 -1.12266 0)
(0.234031 -0.987425 0)
(-0.0320501 -0.875199 0)
(-0.219426 -0.768811 0)
(-0.234892 -0.648302 0)
(-0.100998 -0.522359 0)
(0.0443459 -0.402155 0)
(0.0472032 -0.327573 0)
(-0.117697 -0.266953 0)
(-0.298187 -0.160076 0)
(-0.322987 -0.0404859 0)
(-0.16446 0.0240223 0)
(0.0555126 0.0202253 0)
(0.170009 -0.0234845 0)
(0.0982329 -0.0690481 0)
(-0.0813818 -0.055287 0)
(-0.193723 0.0185643 0)
(-0.133214 0.0685176 0)
(0.0506213 0.0496066 0)
(0.192604 -0.019325 0)
(0.151529 -0.098295 0)
(-0.0429692 -0.111827 0)
(-0.213069 -0.0325982 0)
(-0.207749 0.0653381 0)
(-0.0424106 0.110368 0)
(0.134468 0.0994927 0)
(0.171359 0.054119 0)
(0.054759 0.0329464 0)
(-0.0865087 0.0670689 0)
(-0.115348 0.0886161 0)
(0.0159398 0.0601991 0)
(0.208062 0.0227541 0)
(0.255607 -0.0355111 0)
(0.133804 -0.0790398 0)
(0.47486 2.74176 0)
(1.05789 2.6722 0)
(1.44802 1.98597 0)
(1.55067 1.24263 0)
(1.46451 0.514065 0)
(1.24076 -0.120451 0)
(0.963624 -0.617002 0)
(0.71817 -0.94369 0)
(0.525151 -1.08535 0)
(0.372326 -1.06654 0)
(0.242851 -0.952449 0)
(0.135227 -0.823217 0)
(0.0507901 -0.734796 0)
(-0.00824303 -0.690418 0)
(-0.0377077 -0.64668 0)
(-0.0392433 -0.563509 0)
(-0.0342043 -0.433646 0)
(-0.0473051 -0.293812 0)
(-0.0774098 -0.183577 0)
(-0.0963704 -0.11991 0)
(-0.0803003 -0.0974493 0)
(-0.0340171 -0.0900202 0)
(0.0158059 -0.0737637 0)
(0.0395761 -0.038277 0)
(0.0277051 0.00500611 0)
(-0.000253744 0.0293993 0)
(-0.0146354 0.0228566 0)
(0.00159985 -0.00437644 0)
(0.0357208 -0.0283515 0)
(0.0524058 -0.0343688 0)
(0.0303901 -0.0200771 0)
(-0.0177248 -0.00103355 0)
(-0.0537459 0.0106271 0)
(-0.0500521 0.012678 0)
(-0.0132146 0.0170218 0)
(0.0280562 0.0371086 0)
(0.0464046 0.0704396 0)
(0.0416304 0.100996 0)
(0.0322731 0.0966548 0)
(0.0346457 0.0484378 0)
(0.0529222 -0.00861187 0)
(0.0734462 -0.0259271 0)
(0.0619282 -8.6675e-05 0)
(0.0360052 0.0313673 0)
(0.292591 1.91974 0)
(0.732584 1.97848 0)
(1.06978 1.60354 0)
(1.21878 1.14523 0)
(1.22086 0.644683 0)
(1.11702 0.142625 0)
(0.933149 -0.286434 0)
(0.712077 -0.599531 0)
(0.503969 -0.773325 0)
(0.330072 -0.820588 0)
(0.199678 -0.782917 0)
(0.113122 -0.717579 0)
(0.059773 -0.664843 0)
(0.0229571 -0.630623 0)
(-0.00935964 -0.591334 0)
(-0.0377146 -0.520425 0)
(-0.0574881 -0.413812 0)
(-0.0636828 -0.296436 0)
(-0.0541511 -0.202683 0)
(-0.0333674 -0.150694 0)
(-0.0104539 -0.131961 0)
(0.00655198 -0.120814 0)
(0.0154027 -0.0932852 0)
(0.019566 -0.0473108 0)
(0.025176 -0.00252924 0)
(0.0345925 0.0182137 0)
(0.0442214 0.00940006 0)
(0.0495061 -0.0126463 0)
(0.046797 -0.0258555 0)
(0.0371077 -0.0174817 0)
(0.0258901 0.00360232 0)
(0.0176282 0.0179082 0)
(0.0147014 0.0152517 0)
(0.0162799 0.00396604 0)
(0.0193468 0.0019482 0)
(0.0228791 0.0207698 0)
(0.0311545 0.0529962 0)
(0.0443806 0.0775949 0)
(0.0571034 0.0741383 0)
(0.061674 0.0419428 0)
(0.0531899 0.00732544 0)
(0.0370398 0.00216539 0)
(0.0173447 0.0291248 0)
(0.0100527 0.0517487 0)
(0.170953 1.31617 0)
(0.467335 1.41406 0)
(0.728223 1.22145 0)
(0.892634 0.955458 0)
(0.960192 0.635612 0)
(0.939109 0.293517 0)
(0.849331 -0.032984 0)
(0.710639 -0.295294 0)
(0.550978 -0.472965 0)
(0.399967 -0.566353 0)
(0.274098 -0.596668 0)
(0.1781 -0.593127 0)
(0.107362 -0.576908 0)
(0.0529364 -0.554235 0)
(0.00799218 -0.518436 0)
(-0.0279837 -0.461412 0)
(-0.0510088 -0.384972 0)
(-0.0573577 -0.303352 0)
(-0.0481952 -0.23427 0)
(-0.0306284 -0.186789 0)
(-0.0134964 -0.156265 0)
(-0.00214971 -0.129914 0)
(0.00425842 -0.097709 0)
(0.0105923 -0.0601921 0)
(0.0205263 -0.0270845 0)
(0.0338407 -0.00866096 0)
(0.0456922 -0.00592781 0)
(0.0504648 -0.010414 0)
(0.0475909 -0.0114154 0)
(0.0413487 -0.00354986 0)
(0.037039 0.00795367 0)
(0.036655 0.0145737 0)
(0.0378037 0.0127677 0)
(0.0371835 0.0079682 0)
(0.0341114 0.00899722 0)
(0.0310563 0.020896 0)
(0.0322925 0.0395133 0)
(0.0391441 0.0537171 0)
(0.0467409 0.0560899 0)
(0.047322 0.046021 0)
(0.0384853 0.0350143 0)
(0.0243713 0.0360117 0)
(0.00932242 0.04908 0)
(0.00468427 0.0542916 0)
(0.0960831 0.889367 0)
(0.278653 0.979378 0)
(0.452753 0.881286 0)
(0.586009 0.733306 0)
(0.670606 0.542649 0)
(0.700055 0.326442 0)
(0.678163 0.108726 0)
(0.614879 -0.0856669 0)
(0.525861 -0.237438 0)
(0.427329 -0.34283 0)
(0.331346 -0.407135 0)
(0.245031 -0.441117 0)
(0.17057 -0.453959 0)
(0.107347 -0.449983 0)
(0.0545501 -0.429732 0)
(0.0126664 -0.393747 0)
(-0.0169865 -0.346001 0)
(-0.0330451 -0.294125 0)
(-0.037218 -0.245937 0)
(-0.0342749 -0.20535 0)
(-0.028653 -0.171123 0)
(-0.0231593 -0.139338 0)
(-0.0175094 -0.107439 0)
(-0.010313 -0.0765685 0)
(-0.00111154 -0.050502 0)
(0.00923979 -0.0320758 0)
(0.0183369 -0.0211452 0)
(0.0240256 -0.0142838 0)
(0.026174 -0.00764556 0)
(0.0265281 3.87747e-05 0)
(0.0269178 0.00713884 0)
(0.0277826 0.0113105 0)
(0.0283215 0.0123041 0)
(0.0273375 0.0129062 0)
(0.0246067 0.0164194 0)
(0.0218658 0.024246 0)
(0.021012 0.0346089 0)
(0.0223727 0.043902 0)
(0.0242254 0.0493545 0)
(0.0235958 0.0508927 0)
(0.0191455 0.0519779 0)
(0.0124349 0.0557053 0)
(0.00475129 0.062005 0)
(0.00304514 0.0586298 0)
(0.0543496 0.594893 0)
(0.164457 0.663396 0)
(0.27216 0.610912 0)
(0.362767 0.528789 0)
(0.431228 0.419444 0)
(0.470678 0.29095 0)
(0.479996 0.155256 0)
(0.462697 0.0250635 0)
(0.423341 -0.0878163 0)
(0.369725 -0.178294 0)
(0.310558 -0.245847 0)
(0.250326 -0.292427 0)
(0.192296 -0.320698 0)
(0.138698 -0.332725 0)
(0.0911413 -0.330137 0)
(0.051024 -0.315064 0)
(0.0191882 -0.290771 0)
(-0.0042618 -0.261321 0)
(-0.0196265 -0.230383 0)
(-0.0286484 -0.200067 0)
(-0.0335959 -0.170815 0)
(-0.0356065 -0.142332 0)
(-0.0351161 -0.114772 0)
(-0.0322974 -0.0891794 0)
(-0.0275813 -0.0669544 0)
(-0.021816 -0.048864 0)
(-0.0160872 -0.0345396 0)
(-0.0112365 -0.0228568 0)
(-0.00750962 -0.0128181 0)
(-0.00462495 -0.00416858 0)
(-0.00222099 0.00274714 0)
(-0.00033081 0.00781973 0)
(0.000717935 0.0116473 0)
(0.000764246 0.0154128 0)
(0.000121606 0.0202836 0)
(-0.000530145 0.0266683 0)
(-0.000659881 0.033878 0)
(-7.04872e-05 0.0410235 0)
(0.00090574 0.0473272 0)
(0.00149825 0.0526219 0)
(0.00123997 0.0573839 0)
(0.000682563 0.0620203 0)
(-0.000753341 0.0661631 0)
(0.00107572 0.0598901 0)
(0.0314684 0.392303 0)
(0.0986806 0.440269 0)
(0.164091 0.410727 0)
(0.221593 0.364539 0)
(0.268511 0.302738 0)
(0.300716 0.22895 0)
(0.3168 0.148576 0)
(0.317229 0.0678078 0)
(0.304724 -0.00849957 0)
(0.281021 -0.0750673 0)
(0.248704 -0.130328 0)
(0.212033 -0.173493 0)
(0.173667 -0.204596 0)
(0.135602 -0.224112 0)
(0.0995382 -0.232889 0)
(0.0668467 -0.232279 0)
(0.0384552 -0.224154 0)
(0.0147806 -0.210582 0)
(-0.00415241 -0.193459 0)
(-0.0186561 -0.174197 0)
(-0.0294327 -0.153696 0)
(-0.0370555 -0.132633 0)
(-0.0417953 -0.111729 0)
(-0.0440224 -0.0918016 0)
(-0.0442395 -0.0735726 0)
(-0.0430231 -0.0574144 0)
(-0.0409352 -0.0432888 0)
(-0.0384218 -0.0309371 0)
(-0.0357746 -0.0201467 0)
(-0.0331691 -0.010863 0)
(-0.0307577 -0.00307472 0)
(-0.0285882 0.00339884 0)
(-0.0267364 0.00900312 0)
(-0.0252759 0.0143067 0)
(-0.0240372 0.0197723 0)
(-0.0228808 0.0255484 0)
(-0.0214639 0.0315608 0)
(-0.0195009 0.0375864 0)
(-0.0171097 0.0433916 0)
(-0.0144233 0.0488085 0)
(-0.0115264 0.0537141 0)
(-0.00820568 0.0579408 0)
(-0.00529277 0.0611485 0)
(-0.000793551 0.0546578 0)
(0.0185968 0.251791 0)
(0.0602571 0.28361 0)
(0.100257 0.266769 0)
(0.136457 0.240829 0)
(0.167456 0.206355 0)
(0.190946 0.164976 0)
(0.206035 0.119002 0)
(0.212443 0.0711762 0)
(0.210656 0.0241998 0)
(0.201817 -0.0198898 0)
(0.187039 -0.0589125 0)
(0.167546 -0.0918635 0)
(0.144972 -0.11812 0)
(0.120808 -0.137446 0)
(0.0963078 -0.149979 0)
(0.0725272 -0.156212 0)
(0.0503004 -0.156937 0)
(0.0301773 -0.153113 0)
(0.0124195 -0.145706 0)
(-0.00269146 -0.135599 0)
(-0.0151689 -0.123557 0)
(-0.0252614 -0.110263 0)
(-0.0330635 -0.0963499 0)
(-0.0387734 -0.0824196 0)
(-0.0426651 -0.0689663 0)
(-0.0450463 -0.0563161 0)
(-0.0462156 -0.0446255 0)
(-0.0464463 -0.0339449 0)
(-0.0459685 -0.0242918 0)
(-0.0449755 -0.015677 0)
(-0.043654 -0.00807433 0)
(-0.0421151 -0.00137296 0)
(-0.04039 0.00463663 0)
(-0.0385394 0.0101825 0)
(-0.036629 0.0154772 0)
(-0.0345225 0.0206142 0)
(-0.0320438 0.0256662 0)
(-0.029117 0.0305598 0)
(-0.0256843 0.0352134 0)
(-0.0217563 0.0395233 0)
(-0.0173505 0.0433532 0)
(-0.0123877 0.0465415 0)
(-0.00742089 0.0488649 0)
(-0.00192777 0.0434255 0)
(0.0118657 0.156373 0)
(0.0396086 0.176409 0)
(0.0659006 0.166856 0)
(0.0902657 0.152364 0)
(0.111932 0.133268 0)
(0.129536 0.110321 0)
(0.14253 0.0845391 0)
(0.150572 0.0571397 0)
(0.153667 0.0294053 0)
(0.152219 0.00250184 0)
(0.146674 -0.0224526 0)
(0.137517 -0.0446382 0)
(0.125499 -0.0634552 0)
(0.111436 -0.0785358 0)
(0.0961031 -0.0897358 0)
(0.080208 -0.0971208 0)
(0.064365 -0.100938 0)
(0.0490755 -0.101568 0)
(0.0347195 -0.0994627 0)
(0.021575 -0.0950993 0)
(0.00982086 -0.0889561 0)
(-0.00045058 -0.0814946 0)
(-0.00921555 -0.0731544 0)
(-0.0165149 -0.0643402 0)
(-0.0224354 -0.0553974 0)
(-0.027096 -0.0465952 0)
(-0.0306302 -0.0381255 0)
(-0.0331804 -0.0301179 0)
(-0.0348853 -0.0226573 0)
(-0.0358657 -0.0157954 0)
(-0.0362269 -0.00954682 0)
(-0.036082 -0.00387505 0)
(-0.0355361 0.00126732 0)
(-0.0345663 0.00599672 0)
(-0.0331408 0.0103856 0)
(-0.0313341 0.0145163 0)
(-0.0291168 0.0183919 0)
(-0.0264362 0.0220013 0)
(-0.0233021 0.0253216 0)
(-0.0197108 0.0283057 0)
(-0.01568 0.0308846 0)
(-0.011201 0.0329741 0)
(-0.00656275 0.0344585 0)
(-0.00193473 0.0305031 0)
(0.00860001 0.0950217 0)
(0.0294806 0.107142 0)
(0.0490394 0.10161 0)
(0.0675243 0.0933197 0)
(0.0844288 0.0824666 0)
(0.0988372 0.069428 0)
(0.1104 0.0546963 0)
(0.118854 0.0388657 0)
(0.12408 0.0225853 0)
(0.12609 0.00650662 0)
(0.125103 -0.00883967 0)
(0.121459 -0.0228697 0)
(0.115502 -0.0351723 0)
(0.107646 -0.0454558 0)
(0.0983438 -0.0535478 0)
(0.0880434 -0.0593941 0)
(0.0771653 -0.0630469 0)
(0.0660878 -0.0646478 0)
(0.0551339 -0.0644035 0)
(0.0445661 -0.062563 0)
(0.0345922 -0.0593978 0)
(0.0253688 -0.0551881 0)
(0.0169984 -0.0502102 0)
(0.00953299 -0.0447245 0)
(0.00299182 -0.0389635 0)
(-0.00263896 -0.0331235 0)
(-0.0073988 -0.0273625 0)
(-0.0113388 -0.0218002 0)
(-0.014523 -0.0165212 0)
(-0.0170082 -0.0115909 0)
(-0.018842 -0.00703917 0)
(-0.0201491 -0.00287213 0)
(-0.0208995 0.000933595 0)
(-0.0210931 0.00441525 0)
(-0.0208502 0.00759823 0)
(-0.0201634 0.0105086 0)
(-0.0190388 0.0131713 0)
(-0.0174921 0.0155903 0)
(-0.0155394 0.0177586 0)
(-0.0132135 0.0196582 0)
(-0.010554 0.0212608 0)
(-0.00756912 0.0225302 0)
(-0.0044052 0.0234118 0)
(-0.00138635 0.0206645 0)
(0.00682925 0.0545941 0)
(0.0239708 0.0613897 0)
(0.0397816 0.0581321 0)
(0.0549667 0.0533187 0)
(0.0691406 0.0470593 0)
(0.0815859 0.0395467 0)
(0.0920548 0.0310424 0)
(0.10034 0.0218662 0)
(0.106319 0.0123566 0)
(0.109952 0.00287636 0)
(0.111309 -0.00623277 0)
(0.110571 -0.0146564 0)
(0.107945 -0.022133 0)
(0.103654 -0.0284637 0)
(0.0979743 -0.033517 0)
(0.0912005 -0.0372292 0)
(0.0836266 -0.0396008 0)
(0.0755316 -0.0406889 0)
(0.0671696 -0.0405971 0)
(0.0587638 -0.0394634 0)
(0.0505053 -0.0374464 0)
(0.0425536 -0.0347176 0)
(0.0350326 -0.0314509 0)
(0.0280306 -0.0278139 0)
(0.0216076 -0.0239605 0)
(0.0158033 -0.0200257 0)
(0.0106423 -0.0161232 0)
(0.00612526 -0.0123391 0)
(0.00221135 -0.00874481 0)
(-0.00111239 -0.00538495 0)
(-0.00381798 -0.0022895 0)
(-0.0059437 0.000521506 0)
(-0.00757251 0.003078 0)
(-0.00875234 0.00536107 0)
(-0.00949847 0.00740768 0)
(-0.00983138 0.0092402 0)
(-0.00976908 0.0108774 0)
(-0.00932457 0.0123321 0)
(-0.00852711 0.01361 0)
(-0.00741482 0.0147089 0)
(-0.00602304 0.0156206 0)
(-0.0043782 0.0163311 0)
(-0.00255311 0.016817 0)
(-0.000855718 0.0147925 0)
(0.00551002 0.0261492 0)
(0.0197866 0.0291948 0)
(0.0325986 0.0273514 0)
(0.0450706 0.0246928 0)
(0.0569173 0.0212669 0)
(0.0674975 0.0171662 0)
(0.0766052 0.0125315 0)
(0.0840264 0.00753866 0)
(0.0896984 0.00239865 0)
(0.0936179 -0.00270515 0)
(0.0957864 -0.00758488 0)
(0.096275 -0.0120636 0)
(0.0951722 -0.0159901 0)
(0.0926274 -0.0192471 0)
(0.0888294 -0.0217548 0)
(0.0839881 -0.0234721 0)
(0.078321 -0.0243955 0)
(0.0720432 -0.0245558 0)
(0.0653587 -0.0240134 0)
(0.0584559 -0.0228522 0)
(0.0515054 -0.0211726 0)
(0.0446563 -0.0190795 0)
(0.0380334 -0.0166828 0)
(0.0317328 -0.0140909 0)
(0.0258244 -0.0114024 0)
(0.0203695 -0.0087046 0)
(0.0154366 -0.00607201 0)
(0.0110573 -0.0035659 0)
(0.00718864 -0.00123723 0)
(0.00381681 0.000893999 0)
(0.000961153 0.00280977 0)
(-0.00139694 0.00450486 0)
(-0.00328684 0.00598735 0)
(-0.00473261 0.0072634 0)
(-0.00574975 0.00835948 0)
(-0.00636239 0.00929811 0)
(-0.0065991 0.0101013 0)
(-0.00648441 0.0107886 0)
(-0.00604978 0.0113746 0)
(-0.00533434 0.0118676 0)
(-0.00437557 0.0122703 0)
(-0.00320493 0.0125798 0)
(-0.00186766 0.0127897 0)
(-0.000645854 0.0112063 0)
(0.00407934 0.00650531 0)
(0.0152242 0.00701955 0)
(0.0246259 0.00609125 0)
(0.0339439 0.0048303 0)
(0.0429102 0.00324416 0)
(0.0509098 0.00137669 0)
(0.057801 -0.000697055 0)
(0.0634996 -0.00288453 0)
(0.0678472 -0.00507802 0)
(0.0707074 -0.00718889 0)
(0.0721161 -0.0091266 0)
(0.0721402 -0.0108078 0)
(0.0708606 -0.0121607 0)
(0.0683923 -0.0131314 0)
(0.064879 -0.0136868 0)
(0.0604817 -0.0138146 0)
(0.0553767 -0.0135215 0)
(0.0497539 -0.0128296 0)
(0.0437938 -0.0117827 0)
(0.0376605 -0.0104418 0)
(0.0315197 -0.00889071 0)
(0.025511 -0.00716287 0)
(0.0197468 -0.00533278 0)
(0.014322 -0.00346908 0)
(0.00929722 -0.00163368 0)
(0.00471119 0.000121732 0)
(0.000611533 0.00175535 0)
(-0.00300218 0.00323017 0)
(-0.00609532 0.00453031 0)
(-0.00861524 0.00564406 0)
(-0.0105932 0.00656917 0)
(-0.0120562 0.00731241 0)
(-0.0130525 0.00788762 0)
(-0.0135994 0.00831585 0)
(-0.0136928 0.00861878 0)
(-0.0133945 0.00882064 0)
(-0.0127392 0.00894714 0)
(-0.0117337 0.0090221 0)
(-0.010418 0.00906552 0)
(-0.00883834 0.00909157 0)
(-0.0070378 0.00910938 0)
(-0.0050419 0.00912128 0)
(-0.00289733 0.00913023 0)
(-0.000947229 0.00796887 0)
(0.00232488 -0.0053476 0)
(0.00971707 -0.00627805 0)
(0.0150812 -0.00663047 0)
(0.0205548 -0.00697707 0)
(0.0257864 -0.00733792 0)
(0.0302136 -0.00769793 0)
(0.033734 -0.00802552 0)
(0.0362556 -0.00828598 0)
(0.0376827 -0.00846454 0)
(0.0379506 -0.00852216 0)
(0.0370615 -0.00843624 0)
(0.0350715 -0.00819057 0)
(0.0320895 -0.00777452 0)
(0.0282395 -0.0071818 0)
(0.0236451 -0.00641483 0)
(0.018435 -0.00548459 0)
(0.0127624 -0.00441143 0)
(0.00682178 -0.0032262 0)
(0.0007778 -0.00196605 0)
(-0.00524308 -0.000667263 0)
(-0.0110341 0.000680542 0)
(-0.0164578 0.00198099 0)
(-0.02148 0.00320108 0)
(-0.0260172 0.00431236 0)
(-0.0299803 0.00528729 0)
(-0.0333144 0.00610446 0)
(-0.0359896 0.00674977 0)
(-0.037995 0.00721699 0)
(-0.039324 0.00751382 0)
(-0.0399789 0.00764719 0)
(-0.0399841 0.00762996 0)
(-0.0393669 0.00747874 0)
(-0.0381666 0.00721317 0)
(-0.0364399 0.00687326 0)
(-0.0342542 0.00647756 0)
(-0.0316763 0.00605008 0)
(-0.0287505 0.00561521 0)
(-0.0255059 0.00519487 0)
(-0.0219717 0.00480818 0)
(-0.0181951 0.00447138 0)
(-0.0142257 0.00419451 0)
(-0.0100716 0.00398106 0)
(-0.00578205 0.00383771 0)
(-0.00183299 0.00330818 0)
(0.000227962 -0.0101108 0)
(0.00296601 -0.0115341 0)
(0.00332123 -0.0115491 0)
(0.00404365 -0.0112952 0)
(0.0046283 -0.0108188 0)
(0.00451731 -0.0101358 0)
(0.00361716 -0.00926254 0)
(0.00188064 -0.00821954 0)
(-0.000721667 -0.00703343 0)
(-0.00418416 -0.00572867 0)
(-0.00847626 -0.00433321 0)
(-0.0135276 -0.00287615 0)
(-0.019179 -0.00138977 0)
(-0.0252886 9.70486e-05 0)
(-0.0317403 0.00156111 0)
(-0.038399 0.00297812 0)
(-0.0451172 0.00431947 0)
(-0.0517947 0.0055524 0)
(-0.058291 0.00665925 0)
(-0.0643894 0.00763706 0)
(-0.0700231 0.00846545 0)
(-0.0751244 0.0090884 0)
(-0.0795316 0.00949568 0)
(-0.0831591 0.00968134 0)
(-0.0859466 0.00964479 0)
(-0.0878495 0.00939033 0)
(-0.0888396 0.00892766 0)
(-0.0889058 0.00827401 0)
(-0.0880518 0.00745338 0)
(-0.0862903 0.00649469 0)
(-0.0836603 0.00543171 0)
(-0.0801982 0.00429853 0)
(-0.0759365 0.00313079 0)
(-0.0709638 0.00196777 0)
(-0.0654123 0.000843721 0)
(-0.0593978 -0.000210777 0)
(-0.0530036 -0.00117354 0)
(-0.0463091 -0.00202837 0)
(-0.0393977 -0.00276465 0)
(-0.0323239 -0.00337654 0)
(-0.0251077 -0.00386464 0)
(-0.0177309 -0.00423572 0)
(-0.0102379 -0.0044882 0)