/*--------------------------------*- C++ -*----------------------------------*\
  =========                 |
  \\      /  F ield         | OpenFOAM: The Open Source CFD Toolbox
   \\    /   O peration     | Website:  https://openfoam.org
    \\  /    A nd           | Version:  7
     \\/     M anipulation  |
\*---------------------------------------------------------------------------*/
FoamFile
{
    version     2.0;
    format      ascii;
    class       volVectorField;
    location    "0.07";
    object      U;
}
// * * * * * * * * * * * * * * * * * * * * * * * * * * * * * * * * * * * * * //

dimensions      [0 1 -1 0 0 0 0];

internalField   nonuniform List<vector> 
1936
(
(-14.1538 3.52458 0)
(-68.5924 154.456 0)
(-43.5116 395.271 0)
(-10.4469 473.909 0)
(-6.69474 463.491 0)
(4.58728 454.86 0)
(15.7975 422.656 0)
(20.7336 364.605 0)
(16.7873 308.942 0)
(6.01109 280.032 0)
(-7.22226 274.884 0)
(-19.4419 291.819 0)
(-27.265 355.352 0)
(-26.3991 468.182 0)
(3.95604 514.829 0)
(28.1135 412.748 0)
(17.3201 295.153 0)
(0.99665 259.896 0)
(-15.0849 263.553 0)
(-39.303 358.778 0)
(-18.6182 497.831 0)
(20.7249 464.686 0)
(11.3327 335.291 0)
(-4.99884 285.128 0)
(-17.8215 286.809 0)
(-39.9559 375.958 0)
(-14.5853 498.435 0)
(22.9868 451.782 0)
(12.4897 329.192 0)
(-2.55878 287.952 0)
(-15.1673 294.777 0)
(-36.3759 390.508 0)
(-11.537 502.68 0)
(25.4389 438.18 0)
(12.5752 317.628 0)
(-3.10323 285.941 0)
(-17.7689 307.115 0)
(-34.2346 421.65 0)
(1.82621 501.02 0)
(28.5271 399.331 0)
(6.36372 302.322 0)
(-2.98069 289.055 0)
(-24.9868 341.673 0)
(-24.3013 468.154 0)
(-15.4592 8.33266 0)
(-74.1538 1.70071 0)
(-47.1069 -3.84661 0)
(-12.2208 -3.74657 0)
(-7.84991 -2.35833 0)
(3.60187 -2.16803 0)
(15.387 -1.45462 0)
(19.999 -0.0753474 0)
(14.6874 1.3505 0)
(3.87044 2.3644 0)
(-6.394 2.62302 0)
(-16.5458 1.89739 0)
(-26.1378 0.011565 0)
(-27.2885 -2.95029 0)
(4.0256 -4.11906 0)
(28.402 -1.50327 0)
(13.5885 1.86697 0)
(-1.55715 3.71118 0)
(-10.9227 3.2755 0)
(-36.7729 -0.696439 0)
(-18.5474 -4.12575 0)
(22.8331 -2.32093 0)
(10.0838 1.34759 0)
(-7.81542 3.28158 0)
(-14.2799 2.75542 0)
(-37.2702 -1.24122 0)
(-14.2347 -4.37331 0)
(24.6478 -2.2457 0)
(10.5347 1.38272 0)
(-4.51662 3.16728 0)
(-11.4467 2.59065 0)
(-34.7388 -1.12845 0)
(-11.4846 -4.1112 0)
(26.1295 -2.21423 0)
(9.46747 1.69581 0)
(-3.63194 3.39817 0)
(-13.8912 2.01919 0)
(-33.6957 -2.05464 0)
(2.1967 -4.06979 0)
(27.9491 -1.12705 0)
(3.06318 2.48474 0)
(-1.04672 3.25484 0)
(-22.0191 0.641943 0)
(-25.1308 -3.48985 0)
(-6.24927 17.098 0)
(-67.2171 4.22103 0)
(-48.8566 -8.11215 0)
(-14.4341 -7.96394 0)
(-7.57516 -4.87405 0)
(3.43189 -4.53709 0)
(15.0943 -3.06993 0)
(20.1319 -0.0921583 0)
(15.1366 2.88786 0)
(4.26809 4.73878 0)
(-5.8776 5.16255 0)
(-16.541 3.99191 0)
(-26.9236 0.38459 0)
(-27.7548 -6.14241 0)
(4.68789 -8.93275 0)
(30.3751 -2.89203 0)
(15.0666 4.2217 0)
(-1.14484 7.20904 0)
(-9.76811 6.7217 0)
(-37.809 -0.884488 0)
(-21.4865 -8.9165 0)
(23.4352 -5.12605 0)
(14.0693 3.09543 0)
(-3.43458 6.44892 0)
(-9.45023 5.74716 0)
(-36.7446 -1.96004 0)
(-16.7205 -9.31952 0)
(25.0744 -4.78419 0)
(12.9363 3.19498 0)
(-2.8713 6.22536 0)
(-9.57251 5.40353 0)
(-35.0285 -1.93336 0)
(-11.5738 -8.89024 0)
(27.9569 -4.49594 0)
(10.7812 3.78411 0)
(-2.39591 6.648 0)
(-12.659 4.3812 0)
(-34.4634 -4.00876 0)
(2.51021 -8.82464 0)
(29.5496 -2.03799 0)
(3.77678 5.15296 0)
(-0.258239 6.45713 0)
(-22.0309 1.78025 0)
(-26.0453 -7.36202 0)
(2.22654 23.8928 0)
(-53.5873 7.29783 0)
(-41.4353 -10.9521 0)
(-15.5863 -11.8072 0)
(-9.07834 -7.47137 0)
(0.314049 -6.71048 0)
(9.73614 -4.52363 0)
(13.6645 -0.132988 0)
(9.76693 4.20085 0)
(1.71493 6.72894 0)
(-4.33936 7.29812 0)
(-11.2908 5.81623 0)
(-19.0038 0.708679 0)
(-21.1781 -8.89033 0)
(2.87566 -13.0377 0)
(22.0618 -4.02918 0)
(8.33773 6.25474 0)
(-2.838 10.0282 0)
(-3.21339 9.57878 0)
(-26.9929 -0.714171 0)
(-18.4538 -12.8227 0)
(17.389 -7.822 0)
(9.18443 4.18314 0)
(-2.82173 8.82915 0)
(-0.633957 8.36753 0)
(-25.1117 -1.95124 0)
(-14.3869 -13.1927 0)
(18.5652 -7.1045 0)
(7.59872 4.53453 0)
(-3.32158 8.64179 0)
(-2.22676 7.72755 0)
(-25.041 -2.40862 0)
(-8.95734 -12.7663 0)
(21.3714 -6.35737 0)
(4.61959 5.45026 0)
(-1.7732 9.1607 0)
(-4.47965 6.36563 0)
(-25.7318 -5.45059 0)
(2.07667 -12.6725 0)
(21.658 -2.77412 0)
(-0.909593 7.26326 0)
(2.34321 8.96072 0)
(-12.7507 2.7959 0)
(-20.6977 -10.4083 0)
(9.85905 29.0969 0)
(-40.7812 10.6145 0)
(-33.7155 -12.338 0)
(-16.0025 -14.9359 0)
(-10.5356 -10.1518 0)
(-3.12722 -8.73748 0)
(4.02675 -5.78289 0)
(7.2257 -0.229183 0)
(4.91003 5.1669 0)
(-0.454756 8.20644 0)
(-2.99359 8.85907 0)
(-6.82299 7.11448 0)
(-12.1132 0.825479 0)
(-14.8919 -10.8484 0)
(1.14691 -15.8419 0)
(14.5419 -4.81211 0)
(3.57529 7.66048 0)
(-3.88977 11.8229 0)
(1.92873 11.3638 0)
(-17.3257 -0.292056 0)
(-15.1666 -15.1975 0)
(11.8523 -9.83577 0)
(5.95849 4.56826 0)
(-2.78492 10.028 0)
(5.37683 10.0273 0)
(-14.5266 -1.4128 0)
(-11.7925 -15.3721 0)
(12.6299 -8.74141 0)
(3.98507 5.24708 0)
(-3.58043 9.983 0)
(3.46175 9.09243 0)
(-16.2086 -2.50683 0)
(-6.46711 -15.0829 0)
(15.4806 -7.47887 0)
(0.364285 6.41986 0)
(-1.33025 10.479 0)
(1.75959 7.56122 0)
(-17.9051 -6.14231 0)
(1.66728 -14.9478 0)
(14.9048 -3.18299 0)
(-4.18023 8.40056 0)
(4.02404 10.267 0)
(-5.44139 3.48056 0)
(-15.7126 -12.0972 0)
(15.6913 32.3479 0)
(-27.1412 13.9846 0)
(-25.2937 -12.1459 0)
(-14.9346 -17.0061 0)
(-11.4753 -12.6079 0)
(-6.39133 -10.483 0)
(-1.49369 -6.81612 0)
(1.07871 -0.46612 0)
(0.322875 5.67601 0)
(-2.46772 9.02231 0)
(-1.90421 9.70065 0)
(-2.84009 7.7941 0)
(-6.22722 0.763034 0)
(-9.30913 -11.8924 0)
(-0.403598 -17.2119 0)
(7.9353 -5.25759 0)
(-0.107161 8.35183 0)
(-4.39712 12.5431 0)
(5.48947 12.0363 0)
(-8.91509 0.322957 0)
(-11.6559 -15.9656 0)
(6.90696 -11.086 0)
(3.44093 4.35948 0)
(-3.42834 10.1464 0)
(7.98808 10.5954 0)
(-5.57831 -0.589935 0)
(-8.98876 -15.7659 0)
(7.40499 -9.61576 0)
(1.21624 5.32737 0)
(-3.78798 10.2592 0)
(6.96998 9.45826 0)
(-8.78895 -2.28047 0)
(-4.38532 -15.7853 0)
(10.2613 -7.8376 0)
(-2.64635 6.66607 0)
(-1.15814 10.6615 0)
(5.95987 7.90554 0)
(-11.2212 -6.10184 0)
(1.19136 -15.6231 0)
(9.20158 -3.24451 0)
(-6.3806 8.56921 0)
(4.66339 10.4278 0)
(-0.0208019 3.76304 0)
(-11.2134 -12.432 0)
(18.105 33.2359 0)
(-12.5262 16.9522 0)
(-15.7385 -10.2977 0)
(-11.9048 -17.6323 0)
(-11.2574 -14.4016 0)
(-8.8021 -11.7589 0)
(-6.09566 -7.56253 0)
(-4.22921 -0.855776 0)
(-3.75128 5.62743 0)
(-4.10372 9.02327 0)
(-1.19537 9.70066 0)
(0.317585 7.78513 0)
(-1.53124 0.59733 0)
(-4.72769 -11.9612 0)
(-1.68476 -17.106 0)
(2.36699 -5.34557 0)
(-2.97572 8.25099 0)
(-4.19202 12.1766 0)
(6.94641 11.6608 0)
(-2.01734 0.974269 0)
(-8.05398 -15.1578 0)
(2.63678 -11.4386 0)
(1.25774 3.66823 0)
(-3.88237 9.41417 0)
(7.75071 10.0182 0)
(1.06645 0.212569 0)
(-6.11145 -14.5018 0)
(3.04539 -9.6265 0)
(-1.00002 4.81127 0)
(-3.65646 9.58306 0)
(7.96097 8.88317 0)
(-3.0036 -1.85713 0)
(-2.79307 -14.9498 0)
(5.70976 -7.48342 0)
(-4.55255 6.23952 0)
(-1.06309 9.82648 0)
(7.91389 7.47082 0)
(-5.80591 -5.47016 0)
(0.635374 -14.7791 0)
(4.5544 -3.01569 0)
(-7.23706 7.90352 0)
(4.29754 9.55238 0)
(3.48319 3.63031 0)
(-7.24295 -11.5613 0)
(16.7841 31.5865 0)
(0.911985 18.8116 0)
(-5.49365 -6.98345 0)
(-6.98765 -16.5022 0)
(-9.42627 -15.0522 0)
(-9.70365 -12.329 0)
(-9.04652 -7.93486 0)
(-7.99694 -1.36861 0)
(-6.7543 4.93925 0)
(-5.12201 8.22587 0)
(-0.856121 8.90095 0)
(2.31039 7.11566 0)
(1.76426 0.315528 0)
(-1.3619 -11.0867 0)
(-2.59271 -15.6049 0)
(-1.95754 -5.09903 0)
(-5.01203 7.36657 0)
(-3.59775 10.8373 0)
(6.62237 10.3791 0)
(3.07524 1.49468 0)
(-4.65812 -12.9821 0)
(-0.643847 -10.8071 0)
(-0.742801 2.57018 0)
(-3.91599 8.09751 0)
(6.06 8.48706 0)
(4.97942 0.750665 0)
(-3.40263 -11.973 0)
(-0.172363 -8.75069 0)
(-2.63875 3.81457 0)
(-3.23294 8.17699 0)
(7.0679 7.57153 0)
(1.0227 -1.39803 0)
(-1.61516 -12.8316 0)
(1.94496 -6.57413 0)
(-5.35788 5.29469 0)
(-0.955994 8.20449 0)
(7.84984 6.43008 0)
(-1.73439 -4.47324 0)
(0.114426 -12.6767 0)
(1.02314 -2.62799 0)
(-6.77598 6.63683 0)
(3.40495 7.88634 0)
(5.18495 3.13647 0)
(-3.84788 -9.76601 0)
(12.906 27.7365 0)
(10.141 18.935 0)
(3.68599 -2.89389 0)
(-1.11006 -13.6185 0)
(-6.10191 -14.2078 0)
(-8.78546 -11.9769 0)
(-9.89077 -7.84409 0)
(-9.66162 -1.92516 0)
(-8.15255 3.72205 0)
(-5.40005 6.76943 0)
(-0.742486 7.45242 0)
(3.13758 5.89049 0)
(3.56347 -0.045755 0)
(0.687254 -9.42482 0)
(-3.0297 -12.9977 0)
(-4.74133 -4.55069 0)
(-6.09929 5.80726 0)
(-3.08751 8.80525 0)
(5.30864 8.45034 0)
(5.84979 1.70478 0)
(-1.79489 -9.8958 0)
(-2.39346 -9.26086 0)
(-2.35777 1.2856 0)
(-3.63083 6.394 0)
(4.08443 6.42924 0)
(6.10246 0.915082 0)
(-1.21889 -8.784 0)
(-1.94051 -7.14055 0)
(-3.50847 2.54784 0)
(-2.64115 6.33776 0)
(5.38992 5.83226 0)
(3.21252 -1.029 0)
(-0.751634 -9.88418 0)
(-0.667245 -5.27305 0)
(-5.11561 3.97549 0)
(-0.853576 6.18842 0)
(6.48085 4.98905 0)
(0.954611 -3.34307 0)
(-0.216195 -9.78295 0)
(-1.2896 -2.18494 0)
(-5.47291 5.03222 0)
(2.44689 5.83534 0)
(5.34582 2.34822 0)
(-1.25032 -7.41596 0)
(8.45204 22.579 0)
(13.3711 17.2239 0)
(9.48175 0.868664 0)
(4.03984 -9.5517 0)
(-2.07882 -11.8949 0)
(-6.28805 -10.627 0)
(-8.66027 -7.23908 0)
(-9.15824 -2.38121 0)
(-7.85682 2.25972 0)
(-4.96337 4.90861 0)
(-0.698593 5.59037 0)
(3.05412 4.31515 0)
(3.9806 -0.366738 0)
(1.51856 -7.27821 0)
(-2.972 -9.79229 0)
(-5.81955 -3.76655 0)
(-6.13804 3.88912 0)
(-2.74731 6.46066 0)
(3.64395 6.17716 0)
(6.12532 1.5728 0)
(0.337099 -6.57698 0)
(-2.55235 -7.05584 0)
(-3.15644 0.211676 0)
(-3.04748 4.44341 0)
(2.43105 4.3221 0)
(5.19569 0.762983 0)
(0.250445 -5.65467 0)
(-2.26701 -5.1433 0)
(-3.45115 1.3454 0)
(-1.93385 4.35409 0)
(3.70065 3.9759 0)
(3.6562 -0.750671 0)
(-0.1573 -6.72836 0)
(-1.86374 -3.81268 0)
(-4.0833 2.52334 0)
(-0.699836 4.17901 0)
(4.62294 3.38763 0)
(2.22485 -2.25674 0)
(-0.273866 -6.67452 0)
(-2.26332 -1.7008 0)
(-3.87176 3.31892 0)
(1.61845 3.82195 0)
(4.37253 1.44245 0)
(0.291934 -4.97816 0)
(5.18134 17.1784 0)
(11.9386 14.3033 0)
(11.2175 3.39823 0)
(7.12815 -5.38259 0)
(1.50173 -8.62761 0)
(-3.07099 -8.44749 0)
(-6.02566 -6.1386 0)
(-7.09643 -2.58348 0)
(-6.34806 0.888464 0)
(-4.02402 3.00842 0)
(-0.650901 3.63404 0)
(2.40655 2.69853 0)
(3.38726 -0.57349 0)
(1.48256 -5.05634 0)
(-2.48795 -6.60685 0)
(-5.35203 -2.87009 0)
(-5.22836 2.09423 0)
(-2.34667 4.13011 0)
(2.12493 3.92237 0)
(4.67849 1.20732 0)
(1.39579 -3.74456 0)
(-1.8034 -4.6534 0)
(-2.92321 -0.412368 0)
(-2.22586 2.5512 0)
(1.28504 2.50524 0)
(3.48627 0.451222 0)
(0.890936 -3.17255 0)
(-1.68621 -3.20744 0)
(-2.62311 0.47878 0)
(-1.19778 2.55119 0)
(2.30636 2.30944 0)
(2.92351 -0.534799 0)
(0.210169 -3.98727 0)
(-1.81253 -2.46297 0)
(-2.72522 1.26255 0)
(-0.473524 2.44015 0)
(2.87257 1.94012 0)
(2.23889 -1.36443 0)
(-0.150014 -3.94011 0)
(-2.07362 -1.22031 0)
(-2.37074 1.79343 0)
(0.964413 2.13232 0)
(2.91956 0.672583 0)
(0.815264 -2.90354 0)
(3.35407 12.4564 0)
(8.59449 11.0081 0)
(9.72391 4.37753 0)
(7.57032 -1.99236 0)
(3.55562 -5.24214 0)
(-0.314576 -5.86808 0)
(-3.1377 -4.67343 0)
(-4.50901 -2.42917 0)
(-4.36847 -0.111457 0)
(-2.87362 1.39605 0)
(-0.550851 1.89722 0)
(1.59161 1.31418 0)
(2.34375 -0.652284 0)
(1.04011 -3.14883 0)
(-1.7737 -3.97368 0)
(-3.94161 -2.02292 0)
(-3.78776 0.732752 0)
(-1.78421 2.12651 0)
(1.00948 2.08041 0)
(2.77725 0.716035 0)
(1.38219 -1.81497 0)
(-0.95633 -2.58999 0)
(-2.04555 -0.595129 0)
(-1.41481 1.08506 0)
(0.576428 1.14606 0)
(1.9173 0.134472 0)
(0.841658 -1.57332 0)
(-0.898372 -1.71396 0)
(-1.54026 0.00729831 0)
(-0.590768 1.1894 0)
(1.30113 1.07529 0)
(1.83578 -0.376912 0)
(0.342114 -2.05198 0)
(-1.13831 -1.42323 0)
(-1.49529 0.408559 0)
(-0.242076 1.14482 0)
(1.55601 0.870401 0)
(1.57524 -0.756444 0)
(0.0211027 -1.99004 0)
(-1.3072 -0.804548 0)
(-1.23131 0.700866 0)
(0.506406 0.926226 0)
(1.60326 0.161198 0)
(0.689706 -1.46227 0)
(2.17935 8.88267 0)
(5.2623 8.05623 0)
(6.77794 4.22518 0)
(6.05876 0.222994 0)
(3.77697 -2.44117 0)
(1.16276 -3.42683 0)
(-1.01689 -3.10336 0)
(-2.30208 -1.96685 0)
(-2.52867 -0.656041 0)
(-1.75736 0.271831 0)
(-0.373656 0.613594 0)
(0.912556 0.318155 0)
(1.3515 -0.642037 0)
(0.575338 -1.7823 0)
(-1.06468 -2.15969 0)
(-2.38251 -1.34901 0)
(-2.36308 -0.0955679 0)
(-1.24972 0.699887 0)
(0.270878 0.811672 0)
(1.24679 0.283185 0)
(0.783623 -0.767353 0)
(-0.462041 -1.21107 0)
(-1.16767 -0.524697 0)
(-0.828459 0.196895 0)
(0.152661 0.281419 0)
(0.827392 -0.107708 0)
(0.465276 -0.74057 0)
(-0.381252 -0.817696 0)
(-0.718068 -0.183624 0)
(-0.227576 0.348946 0)
(0.650462 0.329027 0)
(0.940405 -0.271739 0)
(0.279524 -0.948407 0)
(-0.494916 -0.761257 0)
(-0.647626 -0.034512 0)
(-0.0833215 0.340174 0)
(0.727521 0.230576 0)
(0.857655 -0.404124 0)
(0.117455 -0.885807 0)
(-0.59346 -0.505205 0)
(-0.529819 0.0890197 0)
(0.231077 0.215021 0)
(0.722973 -0.0986449 0)
(0.382739 -0.659427 0)
(1.33105 6.37074 0)
(2.98489 5.90001 0)
(4.0757 3.68642 0)
(3.97036 1.29091 0)
(2.89226 -0.537585 0)
(1.43163 -1.53256 0)
(0.0536198 -1.73359 0)
(-0.866749 -1.38675 0)
(-1.15431 -0.844614 0)
(-0.850246 -0.403964 0)
(-0.198097 -0.208723 0)
(0.431578 -0.284354 0)
(0.636224 -0.59896 0)
(0.238269 -0.974124 0)
(-0.555704 -1.11653 0)
(-1.22064 -0.887393 0)
(-1.29923 -0.466181 0)
(-0.835549 -0.0981125 0)
(-0.144333 0.0740108 0)
(0.311886 -0.016591 0)
(0.195703 -0.326366 0)
(-0.294994 -0.519619 0)
(-0.613382 -0.405473 0)
(-0.4892 -0.221346 0)
(-0.0935918 -0.170163 0)
(0.190169 -0.254431 0)
(0.096253 -0.403795 0)
(-0.199643 -0.41987 0)
(-0.310009 -0.248635 0)
(-0.093701 -0.0667565 0)
(0.253869 -0.0459275 0)
(0.365638 -0.224682 0)
(0.128252 -0.446833 0)
(-0.156416 -0.421993 0)
(-0.212808 -0.206903 0)
(-0.0174067 -0.0620207 0)
(0.285157 -0.0760303 0)
(0.369068 -0.236472 0)
(0.103628 -0.385381 0)
(-0.189369 -0.321368 0)
(-0.179519 -0.165007 0)
(0.0900353 -0.115401 0)
(0.258117 -0.193706 0)
(0.151658 -0.300498 0)
(0.79947 4.65467 0)
(1.77584 4.4689 0)
(2.41535 3.15808 0)
(2.46679 1.72916 0)
(2.00193 0.52299 0)
(1.24713 -0.307631 0)
(0.490502 -0.742066 0)
(-0.0702421 -0.855811 0)
(-0.32432 -0.798568 0)
(-0.286077 -0.707308 0)
(-0.0689822 -0.623852 0)
(0.154147 -0.563436 0)
(0.211644 -0.557065 0)
(0.0379514 -0.589581 0)
(-0.281451 -0.618646 0)
(-0.56642 -0.612415 0)
(-0.65524 -0.551359 0)
(-0.528126 -0.42958 0)
(-0.296043 -0.281017 0)
(-0.129795 -0.1947 0)
(-0.134849 -0.208011 0)
(-0.261801 -0.277377 0)
(-0.350004 -0.334389 0)
(-0.308881 -0.362556 0)
(-0.190586 -0.35564 0)
(-0.110961 -0.331412 0)
(-0.12661 -0.318049 0)
(-0.181628 -0.308247 0)
(-0.175446 -0.282845 0)
(-0.0836306 -0.24054 0)
(0.0232591 -0.208929 0)
(0.0509445 -0.227928 0)
(-0.00752653 -0.277602 0)
(-0.0596208 -0.291271 0)
(-0.0603166 -0.255894 0)
(-0.0158481 -0.215712 0)
(0.071056 -0.193574 0)
(0.116055 -0.194196 0)
(0.052149 -0.211965 0)
(-0.0408538 -0.230504 0)
(-0.049743 -0.231424 0)
(0.0224151 -0.222763 0)
(0.0679132 -0.214979 0)
(0.0451812 -0.181555 0)
(0.483234 3.45488 0)
(1.15987 3.48434 0)
(1.59883 2.73173 0)
(1.68805 1.88328 0)
(1.52618 1.06293 0)
(1.17788 0.391365 0)
(0.762066 -0.0988868 0)
(0.409763 -0.417785 0)
(0.172364 -0.602316 0)
(0.0595449 -0.686855 0)
(0.0401094 -0.685365 0)
(0.0535835 -0.611604 0)
(0.038562 -0.514442 0)
(-0.0341326 -0.441765 0)
(-0.148187 -0.427643 0)
(-0.259688 -0.468653 0)
(-0.323607 -0.511058 0)
(-0.322305 -0.493685 0)
(-0.278607 -0.403913 0)
(-0.236255 -0.287464 0)
(-0.224481 -0.224306 0)
(-0.232239 -0.243686 0)
(-0.230454 -0.315 0)
(-0.210693 -0.38109 0)
(-0.186722 -0.398468 0)
(-0.177708 -0.365702 0)
(-0.181754 -0.325496 0)
(-0.175986 -0.310805 0)
(-0.143764 -0.312174 0)
(-0.0997392 -0.302953 0)
(-0.0738485 -0.274302 0)
(-0.0739596 -0.251614 0)
(-0.0763993 -0.253171 0)
(-0.0580863 -0.265232 0)
(-0.0383432 -0.267964 0)
(-0.0330942 -0.256624 0)
(-0.0175441 -0.230146 0)
(0.00527994 -0.199129 0)
(0.00705187 -0.186592 0)
(-0.0103175 -0.206018 0)
(-0.0173679 -0.23277 0)
(-0.00529132 -0.237181 0)
(0.00458872 -0.217656 0)
(0.00651268 -0.169142 0)
(0.287311 2.58617 0)
(0.772521 2.73344 0)
(1.12307 2.32512 0)
(1.27967 1.82143 0)
(1.27785 1.28595 0)
(1.16163 0.762932 0)
(0.965041 0.309835 0)
(0.733341 -0.054896 0)
(0.515705 -0.323105 0)
(0.337462 -0.489711 0)
(0.212799 -0.552542 0)
(0.129308 -0.525976 0)
(0.0670196 -0.449272 0)
(0.0140901 -0.380171 0)
(-0.0394107 -0.359529 0)
(-0.0923559 -0.391657 0)
(-0.137113 -0.437459 0)
(-0.166522 -0.446556 0)
(-0.179853 -0.399447 0)
(-0.181289 -0.324196 0)
(-0.175924 -0.273219 0)
(-0.163702 -0.276894 0)
(-0.145877 -0.323301 0)
(-0.131221 -0.37096 0)
(-0.127161 -0.387055 0)
(-0.133334 -0.370571 0)
(-0.13952 -0.346751 0)
(-0.132464 -0.335885 0)
(-0.10998 -0.333433 0)
(-0.0879182 -0.322171 0)
(-0.0819671 -0.298317 0)
(-0.0865438 -0.276463 0)
(-0.0822324 -0.270975 0)
(-0.060651 -0.275062 0)
(-0.0413558 -0.274916 0)
(-0.0395257 -0.264551 0)
(-0.0390788 -0.242602 0)
(-0.0280754 -0.215902 0)
(-0.0149321 -0.200712 0)
(-0.0106066 -0.207857 0)
(-0.0118746 -0.224607 0)
(-0.0109985 -0.230279 0)
(-0.00807945 -0.219666 0)
(-0.00284401 -0.179891 0)
(0.166187 1.95089 0)
(0.502175 2.13186 0)
(0.769856 1.91737 0)
(0.951994 1.62351 0)
(1.04267 1.27757 0)
(1.04967 0.910052 0)
(0.986335 0.548455 0)
(0.866043 0.227084 0)
(0.711405 -0.0360453 0)
(0.551533 -0.224853 0)
(0.409899 -0.330558 0)
(0.299392 -0.36272 0)
(0.214839 -0.343904 0)
(0.148944 -0.314313 0)
(0.0966297 -0.307249 0)
(0.0509609 -0.329552 0)
(0.0104199 -0.361753 0)
(-0.0242395 -0.375811 0)
(-0.0506608 -0.359194 0)
(-0.066761 -0.325752 0)
(-0.0723742 -0.303082 0)
(-0.0688442 -0.307974 0)
(-0.0601506 -0.334101 0)
(-0.0530659 -0.360267 0)
(-0.0527136 -0.370311 0)
(-0.059674 -0.364704 0)
(-0.0682429 -0.355105 0)
(-0.0695611 -0.348998 0)
(-0.0618608 -0.342632 0)
(-0.0526907 -0.328817 0)
(-0.0498525 -0.309057 0)
(-0.0531987 -0.293419 0)
(-0.0538529 -0.287954 0)
(-0.0454082 -0.286642 0)
(-0.0348232 -0.280753 0)
(-0.0314435 -0.268103 0)
(-0.0310936 -0.250444 0)
(-0.0257535 -0.231677 0)
(-0.0162634 -0.218997 0)
(-0.00917513 -0.21754 0)
(-0.00689993 -0.222613 0)
(-0.00625188 -0.225575 0)
(-0.00473635 -0.222348 0)
(-0.00230033 -0.189551 0)
(0.0977564 1.48355 0)
(0.32654 1.65263 0)
(0.516498 1.53608 0)
(0.672819 1.36376 0)
(0.782753 1.14603 0)
(0.841875 0.900048 0)
(0.849424 0.645831 0)
(0.807731 0.402243 0)
(0.727251 0.187883 0)
(0.625828 0.0155808 0)
(0.52239 -0.104912 0)
(0.428877 -0.173686 0)
(0.35021 -0.204751 0)
(0.284117 -0.216865 0)
(0.227627 -0.231439 0)
(0.17992 -0.256189 0)
(0.138239 -0.284381 0)
(0.102188 -0.303563 0)
(0.0727332 -0.307843 0)
(0.0507484 -0.3035 0)
(0.036017 -0.302942 0)
(0.027258 -0.313405 0)
(0.0225307 -0.331288 0)
(0.0189456 -0.346798 0)
(0.0139388 -0.35346 0)
(0.00601988 -0.352595 0)
(-0.00369132 -0.349435 0)
(-0.0112935 -0.346069 0)
(-0.0141165 -0.339619 0)
(-0.0135399 -0.327319 0)
(-0.0138637 -0.312078 0)
(-0.0173688 -0.300327 0)
(-0.0213114 -0.294572 0)
(-0.0216632 -0.290574 0)
(-0.0190326 -0.282969 0)
(-0.0173265 -0.27092 0)
(-0.0165407 -0.256724 0)
(-0.0138392 -0.243035 0)
(-0.00904019 -0.232544 0)
(-0.00451216 -0.227104 0)
(-0.00201656 -0.225682 0)
(-0.000935705 -0.225381 0)
(-0.000346927 -0.224236 0)
(-0.000597052 -0.193699 0)
(0.0602283 1.13307 0)
(0.21497 1.27555 0)
(0.344346 1.20793 0)
(0.460515 1.10464 0)
(0.554232 0.969948 0)
(0.61919 0.812886 0)
(0.651875 0.644915 0)
(0.65268 0.477248 0)
(0.624265 0.320641 0)
(0.574749 0.183739 0)
(0.514621 0.0732587 0)
(0.45226 -0.00794247 0)
(0.395356 -0.063743 0)
(0.344579 -0.104055 0)
(0.298772 -0.137912 0)
(0.257661 -0.171723 0)
(0.220552 -0.204467 0)
(0.187454 -0.231632 0)
(0.159138 -0.250658 0)
(0.136167 -0.264365 0)
(0.117934 -0.277742 0)
(0.102705 -0.293682 0)
(0.0890555 -0.310425 0)
(0.0768202 -0.323671 0)
(0.0661162 -0.330843 0)
(0.0558321 -0.333 0)
(0.0447739 -0.332764 0)
(0.0339638 -0.331044 0)
(0.025678 -0.326409 0)
(0.020384 -0.317773 0)
(0.0161599 -0.307041 0)
(0.0111764 -0.297788 0)
(0.00567899 -0.291549 0)
(0.00144876 -0.286449 0)
(-0.0007943 -0.279521 0)
(-0.00218554 -0.269966 0)
(-0.00314313 -0.259092 0)
(-0.00297103 -0.24861 0)
(-0.00170492 -0.239778 0)
(-0.000212891 -0.233289 0)
(0.000777527 -0.229094 0)
(0.00128792 -0.226504 0)
(0.00141943 -0.224831 0)
(-0.00013149 -0.194054 0)
(0.0384523 0.865353 0)
(0.14368 0.981025 0)
(0.230736 0.940561 0)
(0.312089 0.87832 0)
(0.382295 0.796356 0)
(0.436259 0.699328 0)
(0.471282 0.593221 0)
(0.48707 0.483959 0)
(0.485725 0.376348 0)
(0.469599 0.276004 0)
(0.442648 0.186537 0)
(0.409951 0.110715 0)
(0.374967 0.0485129 0)
(0.341033 -0.00303459 0)
(0.309975 -0.0480448 0)
(0.280963 -0.0895382 0)
(0.253226 -0.12799 0)
(0.227297 -0.16212 0)
(0.203632 -0.190948 0)
(0.182947 -0.215255 0)
(0.16537 -0.236903 0)
(0.149038 -0.257113 0)
(0.132868 -0.275319 0)
(0.117539 -0.289832 0)
(0.104121 -0.299542 0)
(0.0922857 -0.304927 0)
(0.0806607 -0.307303 0)
(0.0689914 -0.307442 0)
(0.0585622 -0.305123 0)
(0.0502356 -0.300115 0)
(0.0433066 -0.293305 0)
(0.0366581 -0.286435 0)
(0.0298586 -0.280657 0)
(0.0235952 -0.275515 0)
(0.0186343 -0.269769 0)
(0.0146213 -0.262771 0)
(0.0112183 -0.254907 0)
(0.00862669 -0.247028 0)
(0.00685276 -0.239859 0)
(0.0055553 -0.23383 0)
(0.00443758 -0.229105 0)
(0.00342952 -0.225642 0)
(0.00274227 -0.223352 0)
(-0.000134453 -0.192162 0)
(0.0241647 0.659954 0)
(0.0965129 0.752466 0)
(0.154887 0.72868 0)
(0.211397 0.691905 0)
(0.262138 0.643048 0)
(0.303787 0.5844 0)
(0.334864 0.518826 0)
(0.355329 0.449188 0)
(0.366159 0.378022 0)
(0.368093 0.307387 0)
(0.362117 0.239903 0)
(0.350092 0.177185 0)
(0.334108 0.120134 0)
(0.316338 0.0685059 0)
(0.298415 0.0212719 0)
(0.280574 -0.0225695 0)
(0.262345 -0.0633162 0)
(0.243821 -0.100581 0)
(0.22582 -0.134054 0)
(0.209272 -0.163481 0)
(0.194141 -0.189459 0)
(0.179426 -0.212444 0)
(0.16443 -0.232353 0)
(0.14968 -0.248668 0)
(0.136093 -0.260975 0)
(0.123802 -0.269408 0)
(0.112134 -0.274566 0)
(0.100662 -0.277046 0)
(0.089835 -0.277161 0)
(0.0802471 -0.27513 0)
(0.0717826 -0.271452 0)
(0.0637169 -0.26694 0)
(0.0557806 -0.26239 0)
(0.0482298 -0.257894 0)
(0.0412144 -0.25318 0)
(0.0347969 -0.247985 0)
(0.0290113 -0.242359 0)
(0.0239154 -0.236623 0)
(0.019453 -0.231157 0)
(0.0154097 -0.22627 0)
(0.0116638 -0.22217 0)
(0.00817446 -0.218983 0)
(0.00542756 -0.216809 0)
(0.000438002 -0.186348 0)
(0.0152118 0.508589 0)
(0.0671395 0.582135 0)
(0.10754 0.568315 0)
(0.148417 0.546534 0)
(0.186118 0.517042 0)
(0.218817 0.48093 0)
(0.24573 0.439534 0)
(0.266722 0.394212 0)
(0.282227 0.346213 0)
(0.293045 0.296658 0)
(0.299135 0.246791 0)
(0.300279 0.197568 0)
(0.297393 0.149865 0)
(0.291866 0.104196 0)
(0.28475 0.0607296 0)
(0.276454 0.0194976 0)
(0.266887 -0.0193894 0)
(0.256 -0.0556479 0)
(0.244408 -0.088936 0)
(0.232746 -0.119017 0)
(0.221208 -0.14585 0)
(0.209508 -0.169483 0)
(0.197248 -0.189899 0)
(0.184611 -0.206971 0)
(0.172223 -0.220604 0)
(0.160464 -0.23084 0)
(0.149123 -0.237959 0)
(0.137879 -0.242349 0)
(0.126828 -0.244385 0)
(0.116318 -0.244416 0)
(0.106443 -0.242843 0)
(0.0969145 -0.240149 0)
(0.0875531 -0.236754 0)
(0.0784127 -0.233008 0)
(0.0695475 -0.229028 0)
(0.0609891 -0.224838 0)
(0.0527028 -0.220498 0)
(0.0446494 -0.216149 0)
(0.0368737 -0.211987 0)
(0.0294717 -0.208215 0)
(0.0224384 -0.205013 0)
(0.0156969 -0.202535 0)
(0.00964886 -0.200879 0)
(0.0019082 -0.172906 0)
(0.0101888 0.405376 0)
(0.0514226 0.464696 0)
(0.0826195 0.45607 0)
(0.116034 0.44192 0)
(0.147181 0.422228 0)
(0.175572 0.397659 0)
(0.20079 0.368951 0)
(0.222612 0.336786 0)
(0.241151 0.301875 0)
(0.256572 0.264902 0)
(0.26881 0.226427 0)
(0.277778 0.187273 0)
(0.283709 0.14808 0)
(0.286999 0.109412 0)
(0.288116 0.0717317 0)
(0.287421 0.035401 0)
(0.284892 0.00074525 0)
(0.280495 -0.0319101 0)
(0.274523 -0.0622422 0)
(0.267447 -0.0899795 0)
(0.259547 -0.11494 0)
(0.250764 -0.13703 0)
(0.240942 -0.156198 0)
(0.230163 -0.172403 0)
(0.218817 -0.185624 0)
(0.2073 -0.195911 0)
(0.195694 -0.203422 0)
(0.183897 -0.208411 0)
(0.171933 -0.211176 0)
(0.159993 -0.212037 0)
(0.148216 -0.211337 0)
(0.136586 -0.209436 0)
(0.125015 -0.206673 0)
(0.113465 -0.203373 0)
(0.101972 -0.199759 0)
(0.0905706 -0.195985 0)
(0.0792699 -0.192173 0)
(0.0680808 -0.188451 0)
(0.057028 -0.184959 0)
(0.0461364 -0.18184 0)
(0.0353922 -0.17923 0)
(0.024883 -0.177263 0)
(0.0147997 -0.175997 0)
(0.00384467 -0.151833 0)
(0.00785567 0.333249 0)
(0.0446564 0.38178 0)
(0.0729088 0.375534 0)
(0.104501 0.364887 0)
(0.133741 0.34984 0)
(0.161458 0.33095 0)
(0.187311 0.308644 0)
(0.210857 0.283425 0)
(0.232073 0.25575 0)
(0.251009 0.226084 0)
(0.26757 0.194908 0)
(0.281529 0.162749 0)
(0.292791 0.130131 0)
(0.301497 0.0975647 0)
(0.307852 0.0655209 0)
(0.311921 0.0344178 0)
(0.313778 0.00462159 0)
(0.313494 -0.023539 0)
(0.311156 -0.0497699 0)
(0.307054 -0.0738204 0)
(0.30146 -0.0955027 0)
(0.294454 -0.114698 0)
(0.285991 -0.131348 0)
(0.276122 -0.145432 0)
(0.265103 -0.156962 0)
(0.253261 -0.165992 0)
(0.240798 -0.172641 0)
(0.227795 -0.177079 0)
(0.214343 -0.179539 0)
(0.20059 -0.180297 0)
(0.18668 -0.179629 0)
(0.172673 -0.177825 0)
(0.158576 -0.175188 0)
(0.14441 -0.171993 0)
(0.130226 -0.168478 0)
(0.11607 -0.164828 0)
(0.101966 -0.161196 0)
(0.0879275 -0.157711 0)
(0.0739627 -0.154492 0)
(0.0600803 -0.151647 0)
(0.0462322 -0.14928 0)
(0.0325696 -0.14749 0)
(0.0191472 -0.146325 0)
(0.00541005 -0.126419 0)
(0.00723834 0.276242 0)
(0.0423708 0.315611 0)
(0.0708314 0.310345 0)
(0.102874 0.301314 0)
(0.132058 0.288694 0)
(0.160134 0.273002 0)
(0.186962 0.254545 0)
(0.212078 0.233679 0)
(0.235207 0.210749 0)
(0.256308 0.186136 0)
(0.275247 0.160227 0)
(0.291788 0.133444 0)
(0.305748 0.106216 0)
(0.317099 0.078974 0)
(0.325946 0.0521336 0)
(0.332377 0.0260775 0)
(0.336378 0.00114624 0)
(0.337961 -0.022366 0)
(0.337245 -0.0442033 0)
(0.334434 -0.0641562 0)
(0.329755 -0.0820648 0)
(0.323351 -0.0978275 0)
(0.315271 -0.111399 0)
(0.305571 -0.12278 0)
(0.294425 -0.132002 0)
(0.282097 -0.139131 0)
(0.268843 -0.144268 0)
(0.254822 -0.147569 0)
(0.240125 -0.149217 0)
(0.224931 -0.149424 0)
(0.209442 -0.148413 0)
(0.19378 -0.146426 0)
(0.178007 -0.143711 0)
(0.162158 -0.140506 0)
(0.146277 -0.137026 0)
(0.130411 -0.133453 0)
(0.114591 -0.129939 0)
(0.0988364 -0.126605 0)
(0.0831622 -0.123554 0)
(0.0675786 -0.120869 0)
(0.0520237 -0.118618 0)
(0.0366098 -0.116854 0)
(0.0214815 -0.11563 0)
(0.00612787 -0.0999424 0)
(0.0074259 0.227917 0)
(0.0414826 0.259221 0)
(0.0710065 0.254369 0)
(0.103387 0.246272 0)
(0.132422 0.235312 0)
(0.160615 0.221922 0)
(0.187669 0.20637 0)
(0.213045 0.18884 0)
(0.236483 0.169624 0)
(0.257839 0.149043 0)
(0.276989 0.127441 0)
(0.293783 0.105173 0)
(0.308058 0.0825956 0)
(0.319718 0.0600633 0)
(0.328778 0.0379245 0)
(0.335318 0.016505 0)
(0.33941 -0.00390428 0)
(0.341013 -0.0230562 0)
(0.34018 -0.0407418 0)
(0.337141 -0.0567919 0)
(0.332101 -0.0710791 0)
(0.325232 -0.0835225 0)
(0.316664 -0.0940929 0)
(0.306529 -0.102838 0)
(0.295006 -0.109769 0)
(0.282315 -0.114972 0)
(0.268668 -0.118551 0)
(0.254253 -0.120646 0)
(0.23924 -0.121409 0)
(0.223775 -0.120998 0)
(0.208038 -0.119604 0)
(0.192184 -0.117416 0)
(0.176281 -0.114634 0)
(0.16036 -0.111455 0)
(0.144458 -0.108065 0)
(0.128612 -0.104628 0)
(0.112852 -0.101284 0)
(0.0971959 -0.0981455 0)
(0.0816598 -0.0952983 0)
(0.0662581 -0.092806 0)
(0.0509477 -0.0907141 0)
(0.0357588 -0.0890292 0)
(0.0210587 -0.0877513 0)
(0.00582825 -0.0758381 0)
(0.00773449 0.186376 0)
(0.0401695 0.210783 0)
(0.0701371 0.206309 0)
(0.101535 0.199132 0)
(0.12935 0.189766 0)
(0.156345 0.178482 0)
(0.182079 0.165427 0)
(0.206048 0.150789 0)
(0.228011 0.134808 0)
(0.247774 0.117752 0)
(0.265209 0.0999115 0)
(0.280242 0.0815834 0)
(0.292781 0.0630669 0)
(0.302759 0.0446583 0)
(0.31017 0.0266444 0)
(0.315041 0.00929278 0)
(0.317447 -0.00715913 0)
(0.317491 -0.0225119 0)
(0.315241 -0.0366059 0)
(0.31083 -0.0493092 0)
(0.304485 -0.0605255 0)
(0.296422 -0.0701982 0)
(0.286817 -0.0783481 0)
(0.275936 -0.0849155 0)
(0.264005 -0.0900213 0)
(0.251188 -0.093737 0)
(0.237709 -0.096155 0)
(0.223763 -0.0973731 0)
(0.2095 -0.0975188 0)
(0.195024 -0.0967336 0)
(0.180426 -0.0951644 0)
(0.16584 -0.0929607 0)
(0.151398 -0.0902777 0)
(0.137128 -0.0872731 0)
(0.123018 -0.0841029 0)
(0.109078 -0.0809138 0)
(0.0953141 -0.0778347 0)
(0.0817263 -0.0749724 0)
(0.0683279 -0.0724083 0)
(0.055138 -0.0701948 0)
(0.0421708 -0.0683571 0)
(0.0294603 -0.0668842 0)
(0.0174979 -0.0658133 0)
(0.00452251 -0.0569917 0)
(0.00764948 0.151315 0)
(0.037547 0.170181 0)
(0.0665504 0.166301 0)
(0.0952806 0.160267 0)
(0.120562 0.152598 0)
(0.144909 0.143376 0)
(0.167796 0.132702 0)
(0.188755 0.120735 0)
(0.207595 0.107682 0)
(0.224184 0.093769 0)
(0.238424 0.0792367 0)
(0.250265 0.0643327 0)
(0.259636 0.0493097 0)
(0.266507 0.0344156 0)
(0.270918 0.0198843 0)
(0.272945 0.00593363 0)
(0.272701 -0.00724519 0)
(0.27034 -0.019497 0)
(0.265943 -0.0306982 0)
(0.259605 -0.0407544 0)
(0.251563 -0.0496045 0)
(0.24206 -0.0572256 0)
(0.231446 -0.0635725 0)
(0.219933 -0.0686792 0)
(0.207664 -0.0726302 0)
(0.194925 -0.07548 0)
(0.181936 -0.0772992 0)
(0.168881 -0.0781697 0)
(0.1559 -0.0781858 0)
(0.143094 -0.0774526 0)
(0.130553 -0.0760835 0)
(0.118353 -0.0741978 0)
(0.106546 -0.0719144 0)
(0.0951816 -0.0693542 0)
(0.0842851 -0.0666416 0)
(0.0738419 -0.0638987 0)
(0.0637914 -0.0612432 0)
(0.0540788 -0.0587834 0)
(0.0446872 -0.0566066 0)
(0.035619 -0.054774 0)
(0.0268773 -0.0533158 0)
(0.0184 -0.0522313 0)
(0.0109195 -0.0515595 0)
(0.00231975 -0.0449526 0)
(0.00685036 0.122981 0)
(0.0332383 0.137854 0)
(0.05945 0.13484 0)
(0.0838417 0.130141 0)
(0.105268 0.124195 0)
(0.125584 0.116922 0)
(0.144375 0.108426 0)
(0.161207 0.0988316 0)
(0.175953 0.0883309 0)
(0.1885 0.0771036 0)
(0.19879 0.0653657 0)
(0.206829 0.0533198 0)
(0.212587 0.0411826 0)
(0.216084 0.0291593 0)
(0.217358 0.0174406 0)
(0.216563 0.00620228 0)
(0.213777 -0.00440611 0)
(0.209064 -0.0142564 0)
(0.202609 -0.0232512 0)
(0.194552 -0.0313263 0)
(0.185114 -0.0384469 0)
(0.17457 -0.0446024 0)
(0.163165 -0.0497617 0)
(0.151089 -0.0540351 0)
(0.138608 -0.0574035 0)
(0.12597 -0.0599234 0)
(0.113397 -0.061655 0)
(0.101095 -0.0626605 0)
(0.0892449 -0.0630088 0)
(0.0779901 -0.0627762 0)
(0.0674541 -0.0620441 0)
(0.0577437 -0.0608974 0)
(0.048926 -0.0594206 0)
(0.0410341 -0.057699 0)
(0.03404 -0.0558161 0)