/*--------------------------------*- C++ -*----------------------------------*\
  =========                 |
  \\      /  F ield         | OpenFOAM: The Open Source CFD Toolbox
   \\    /   O peration     | Website:  https://openfoam.org
    \\  /    A nd           | Version:  7
     \\/     M anipulation  |
\*---------------------------------------------------------------------------*/
FoamFile
{
    version     2.0;
    format      ascii;
    class       surfaceScalarField;
    location    "9.4";
    object      phi;
}
// * * * * * * * * * * * * * * * * * * * * * * * * * * * * * * * * * * * * * //

dimensions      [0 3 -1 0 0 0 0];

internalField   nonuniform List<scalar> 
1740
(
6.96211e-07
-6.96889e-07
-3.14723e-07
1.01094e-06
-3.21916e-06
2.90443e-06
-7.65389e-06
4.43473e-06
-1.31405e-05
5.4866e-06
-1.9262e-05
6.12146e-06
-2.57012e-05
6.43926e-06
-3.22212e-05
6.52002e-06
-3.86285e-05
6.40726e-06
-4.47392e-05
6.11072e-06
-5.03547e-05
5.61552e-06
-5.52485e-05
4.89379e-06
-5.91657e-05
3.91716e-06
-6.1835e-05
2.66933e-06
-6.2993e-05
1.158e-06
-6.24172e-05
-5.75867e-07
-5.99641e-05
-2.45305e-06
-5.56144e-05
-4.34971e-06
-4.95046e-05
-6.10976e-06
-4.19454e-05
-7.55922e-06
-3.34165e-05
-8.52889e-06
-2.45341e-05
-8.88242e-06
-1.59905e-05
-8.54358e-06
-8.47322e-06
-7.51731e-06
-2.57319e-06
-5.90003e-06
1.31117e-06
-3.88436e-06
3.04967e-06
-1.7385e-06
2.80814e-06
2.41538e-07
1.31347e-06
1.49467e-06
1.31346e-06
-1.0114e-06
3.14516e-07
-5.85866e-06
5.85819e-06
-1.46843e-05
1.17301e-05
-2.6751e-05
1.65014e-05
-4.11785e-05
1.99141e-05
-5.71251e-05
2.2068e-05
-7.38651e-05
2.31792e-05
-9.07856e-05
2.34406e-05
-0.000107344
2.29652e-05
-0.000123015
2.17818e-05
-0.000137254
1.9855e-05
-0.000149477
1.71169e-05
-0.000159064
1.35044e-05
-0.000165392
8.99689e-06
-0.000167882
3.64827e-06
-0.000166093
-2.36541e-06
-0.000159755
-8.79033e-06
-0.000148903
-1.52024e-05
-0.000133905
-2.11076e-05
-0.000115503
-2.59613e-05
-9.47904e-05
-2.9241e-05
-7.31438e-05
-3.05291e-05
-5.20925e-05
-2.95948e-05
-3.31517e-05
-2.64581e-05
-1.76295e-05
-2.14222e-05
-6.44414e-06
-1.50697e-05
5.1031e-08
-8.23367e-06
2.33529e-06
-2.04272e-06
1.55987e-06
2.27011e-06
2.87333e-06
-3.15562e-06
3.47013e-06
-1.25387e-05
1.52412e-05
-2.73673e-05
2.65587e-05
-4.65538e-05
3.56879e-05
-6.89101e-05
4.22704e-05
-9.33162e-05
4.64741e-05
-0.000118777
4.86403e-05
-0.000144414
4.90771e-05
-0.000169416
4.79672e-05
-0.00019299
4.53556e-05
-0.000214316
4.11814e-05
-0.000232533
3.53343e-05
-0.000246751
2.77218e-05
-0.000256092
1.83377e-05
-0.000259772
7.32896e-06
-0.000257175
-4.96289e-06
-0.000247971
-1.79942e-05
-0.000232221
-3.09527e-05
-0.000210445
-4.28837e-05
-0.000183663
-5.27429e-05
-0.000153376
-5.95277e-05
-0.000121475
-6.24304e-05
-9.00771e-05
-6.09927e-05
-6.13037e-05
-5.52316e-05
-3.70176e-05
-4.57083e-05
-1.85581e-05
-3.35292e-05
-6.499e-06
-2.02928e-05
-5.21725e-07
-8.01999e-06
8.32069e-07
9.16317e-07
3.7054e-06
-5.26921e-06
8.73935e-06
-1.91398e-05
2.91118e-05
-3.98614e-05
4.72804e-05
-6.57955e-05
6.1622e-05
-9.54324e-05
7.19073e-05
-0.000127427
7.84682e-05
-0.000160594
8.1808e-05
-0.000193875
8.23578e-05
-0.000226273
8.03654e-05
-0.0002568
7.58828e-05
-0.000284433
6.88145e-05
-0.0003081
5.90008e-05
-0.000326696
4.63181e-05
-0.00033914
3.07817e-05
-0.000344456
1.26443e-05
-0.000341873
-7.5457e-06
-0.000330944
-2.89229e-05
-0.000311683
-5.02135e-05
-0.000284649
-6.99178e-05
-0.000251006
-8.63859e-05
-0.000212519
-9.80145e-05
-0.000171468
-0.000103482
-0.000130464
-0.000101997
-9.21894e-05
-9.35062e-05
-5.90683e-05
-7.88294e-05
-3.29292e-05
-5.96684e-05
-1.47059e-05
-3.8516e-05
-4.23296e-06
-1.84929e-05
-1.70754e-07
-3.14589e-06
3.53464e-06
-7.19993e-06
1.59393e-05
-2.53231e-05
4.72349e-05
-5.16479e-05
7.36052e-05
-8.3944e-05
9.39182e-05
-0.000120358
0.000108321
-0.000159339
0.00011745
-0.000199566
0.000122034
-0.00023986
0.000122652
-0.00027911
0.000119616
-0.000316203
0.000112975
-0.000349971
0.000102583
-0.000379183
8.8213e-05
-0.000402557
6.96917e-05
-0.000418813
4.70382e-05
-0.000426766
2.05964e-05
-0.000425438
-8.87291e-06
-0.000414166
-4.01952e-05
-0.000392795
-7.15842e-05
-0.000361782
-0.000100931
-0.000322294
-0.000125874
-0.000276246
-0.000144063
-0.000226235
-0.000153493
-0.000175367
-0.000152864
-0.000126951
-0.000141923
-8.40986e-05
-0.000121681
-4.92925e-05
-9.44746e-05
-2.39895e-05
-6.3819e-05
-8.3586e-06
-3.41238e-05
-1.19203e-06
-1.03125e-05
2.34261e-06
-8.93093e-06
2.48702e-05
-3.09812e-05
6.92852e-05
-6.25333e-05
0.000105157
-0.000100782
0.000132167
-0.000143538
0.000151077
-0.000189068
0.000162979
-0.000235948
0.000168915
-0.000282941
0.000169645
-0.00032888
0.000165555
-0.000372586
0.000156681
-0.000412805
0.000142802
-0.000448184
0.000123592
-0.000477279
9.87866e-05
-0.000498601
6.83601e-05
-0.000510701
3.26971e-05
-0.000512322
-7.2518e-06
-0.000502427
-5.00909e-05
-0.000480546
-9.34652e-05
-0.00044686
-0.000134617
-0.000402375
-0.000170358
-0.000349029
-0.00019741
-0.000289682
-0.000212839
-0.000227968
-0.000214579
-0.000167959
-0.000201932
-0.000113678
-0.000175962
-6.85247e-05
-0.000139628
-3.47274e-05
-9.76163e-05
-1.29663e-05
-5.58849e-05
-2.24024e-06
-2.10386e-05
1.02371e-07
-1.04776e-05
3.53478e-05
-3.60986e-05
9.49062e-05
-7.24558e-05
0.000141515
-0.000116224
0.000175936
-0.000164912
0.000199765
-0.000216633
0.0002147
-0.000269908
0.000222189
-0.000323485
0.000223221
-0.000376201
0.000218271
-0.000426868
0.000207348
-0.000474196
0.00019013
-0.000516745
0.000166141
-0.000552918
0.00013496
-0.000580993
9.64349e-05
-0.000599176
5.08798e-05
-0.000605899
-5.28003e-07
-0.000599484
-5.65065e-05
-0.000579043
-0.000113906
-0.000544256
-0.000169404
-0.000495764
-0.000218851
-0.000435359
-0.000257815
-0.000366074
-0.000282124
-0.000292091
-0.000288561
-0.000218408
-0.000275615
-0.000150246
-0.000244123
-9.22884e-05
-0.000197586
-4.78929e-05
-0.000142012
-1.85098e-05
-8.5268e-05
-3.45901e-06
-3.60894e-05
-3.35664e-06
-1.185e-05
4.71978e-05
-4.06685e-05
0.000123725
-8.13735e-05
0.00018222
-0.000130196
0.000224758
-0.000184392
0.000253961
-0.000241966
0.000272275
-0.000301425
0.000281648
-0.000361555
0.000283352
-0.000421251
0.000277967
-0.000479373
0.00026547
-0.00053464
0.000245397
-0.000585563
0.000217063
-0.000630405
0.000179802
-0.000667194
0.000133223
-0.000693792
7.74778e-05
-0.000707873
1.35539e-05
-0.000707536
-5.68435e-05
-0.000690933
-0.000130509
-0.000657071
-0.000203266
-0.000605987
-0.000269934
-0.000539099
-0.000324703
-0.000459438
-0.000361785
-0.000371682
-0.000376317
-0.000281874
-0.000365424
-0.000196748
-0.000329248
-0.000122737
-0.000271597
-6.4827e-05
-0.000199922
-2.56375e-05
-0.000124457
-4.99815e-06
-5.67287e-05
-8.35478e-06
-1.30423e-05
6.02401e-05
-4.46575e-05
0.00015534
-8.92075e-05
0.000226769
-0.000142564
0.000278115
-0.000201791
0.000313187
-0.000264832
0.000335316
-0.000330222
0.000347038
-0.000396836
0.000349965
-0.000463676
0.000344807
-0.000529702
0.000331497
-0.000593696
0.000309391
-0.000654154
0.000277521
-0.000709222
0.000234869
-0.00075667
0.000180672
-0.000793928
0.000114736
-0.000818158
3.77835e-05
-0.000826609
-4.83923e-05
-0.00081662
-0.000140498
-0.000786256
-0.00023363
-0.000734669
-0.000321521
-0.000662589
-0.000396784
-0.000572749
-0.000451625
-0.000470124
-0.000478942
-0.000361792
-0.000473757
-0.000256271
-0.00043477
-0.000162274
-0.000365594
-8.70963e-05
-0.000275099
-3.51333e-05
-0.00017642
-7.0973e-06
-8.47647e-05
-1.54521e-05
-1.40342e-05
7.42743e-05
-4.79994e-05
0.000189305
-9.58259e-05
0.000274596
-0.000153114
0.000335403
-0.000216796
0.000376869
-0.000284797
0.000403318
-0.000355724
0.000417965
-0.000428578
0.000422819
-0.000502516
0.000418746
-0.000576648
0.000405629
-0.000649862
0.000382605
-0.000720686
0.000348346
-0.000787186
0.000301369
-0.000846904
0.000240389
-0.000896863
0.000164696
-0.000933642
7.45618e-05
-0.000953687
-2.83466e-05
-0.000953348
-0.000140838
-0.000929603
-0.000257374
-0.000880447
-0.000370677
-0.000805549
-0.000471682
-0.000706906
-0.000550267
-0.000589369
-0.000596479
-0.000460807
-0.000602319
-0.000331616
-0.000563961
-0.000213319
-0.000483891
-0.000116375
-0.000372043
-4.78573e-05
-0.000244938
-9.99974e-06
-0.000122622
-2.54518e-05
-1.47949e-05
8.90693e-05
-5.06014e-05
0.000225111
-0.00010105
0.000325045
-0.000161556
0.000395909
-0.00022897
0.000444283
-0.000301238
0.000475586
-0.000377065
0.000493791
-0.000455608
0.000501362
-0.000536211
0.000499349
-0.00061817
0.000487587
-0.000700524
0.000464959
-0.000781884
0.000429705
-0.00086029
0.000379775
-0.000933121
0.000313221
-0.000997071
0.000228646
-0.00104819
0.000125681
-0.0010822
5.66493e-06
-0.00109447
-0.000128574
-0.00108083
-0.000271015
-0.0010379
-0.000413604
-0.00096391
-0.000545671
-0.000859552
-0.000654626
-0.000728874
-0.000727157
-0.000579936
-0.000751256
-0.000424758
-0.000719139
-0.000278024
-0.000630625
-0.00015434
-0.000495727
-6.47228e-05
-0.000334555
-1.39688e-05
-0.000173376
-3.94206e-05
-1.52897e-05
0.000104359
-5.23607e-05
0.000262182
-0.000104681
0.000377366
-0.000167557
0.000458784
-0.0002378
0.000514526
-0.000313394
0.00055118
-0.000393154
0.000573551
-0.000476403
0.000584611
-0.000562685
0.000585631
-0.0006515
0.000576403
-0.000742074
0.000555533
-0.000833149
0.000520781
-0.000922817
0.000469443
-0.0010084
0.000398805
-0.0010864
0.000306649
-0.00115257
0.000191844
-0.00120186
5.49536e-05
-0.00122916
-0.000101266
-0.00122908
-0.000271099
-0.00119682
-0.000445866
-0.00112885
-0.00061364
-0.00102394
-0.000759534
-0.000884432
-0.000866665
-0.000717537
-0.000918151
-0.000536095
-0.000900581
-0.000357867
-0.000808853
-0.00020252
-0.000651075
-8.66737e-05
-0.000450401
-1.92969e-05
-0.000240753
-5.87175e-05
-1.54885e-05
0.000119848
-5.31875e-05
0.000299881
-0.000106538
0.000430716
-0.000170799
0.000523046
-0.000242767
0.000586494
-0.000320463
0.000628876
-0.000402798
0.000655886
-0.000489248
0.000671061
-0.000579545
0.000675928
-0.000673395
0.000670253
-0.000770226
0.000652364
-0.000868959
0.000619513
-0.000967822
0.000568307
-0.00106422
0.000495205
-0.00115468
0.000397107
-0.00123485
0.000272009
-0.00129955
0.00011966
-0.00134302
-5.77959e-05
-0.00135929
-0.000254827
-0.00134223
-0.000462927
-0.00128643
-0.000669447
-0.00118819
-0.000857774
-0.00104713
-0.00100773
-0.000868176
-0.0010971
-0.000663497
-0.00110526
-0.000453047
-0.0010193
-0.000262043
-0.000842079
-0.000114629
-0.000597815
-2.63089e-05
-0.000329073
-8.50264e-05
-1.53761e-05
0.000135224
-5.30351e-05
0.00033754
-0.00010651
0.00048419
-0.000171057
0.000587594
-0.000243456
0.000658892
-0.000321739
0.00070716
-0.000404883
0.00073903
-0.000492476
0.000758654
-0.000584404
0.000767856
-0.000680558
0.000766407
-0.000780567
0.000752373
-0.000883569
0.000722515
-0.000988025
0.000672763
-0.00109159
0.00059877
-0.00119105
0.000496566
-0.00128231
0.000363273
-0.00136051
0.000197862
-0.00141954
1.2261e-06
-0.00145369
-0.000220678
-0.00145565
-0.000460967
-0.00141836
-0.000706735
-0.00133544
-0.00094069
-0.00120289
-0.00114027
-0.00102172
-0.00127827
-0.000801251
-0.00132573
-0.000561661
-0.00125889
-0.000333215
-0.00107053
-0.000149363
-0.000781666
-3.53518e-05
-0.000443085
-0.000120378
-1.4964e-05
0.000150188
-5.19343e-05
0.000374511
-0.000104621
0.000536877
-0.000168289
0.000651262
-0.000239675
0.000730278
-0.000316782
0.000784267
-0.000398598
0.000820845
-0.000484767
0.000844824
-0.00057528
0.000858368
-0.000670171
0.000861298
-0.000769261
0.000851463
-0.000871939
0.000825192
-0.000976986
0.00077781
-0.00108247
0.000704258
-0.00118571
0.000599801
-0.00128322
0.000460783
-0.0013707
0.00028534
-0.00144335
7.38768e-05
-0.00149458
-0.00016945
-0.00151768
-0.000437864
-0.0015043
-0.000720114
-0.00144553
-0.00099946
-0.00133329
-0.00125251
-0.00116324
-0.00144832
-0.000939318
-0.00154966
-0.000678823
-0.00151939
-0.00041494
-0.00133441
-0.000191303
-0.0010053
-4.67666e-05
-0.000587621
-0.000167145
-1.43024e-05
0.00016449
-5.00311e-05
0.000410239
-0.000101095
0.000587941
-0.000162736
0.000712902
-0.000231595
0.000799137
-0.000305592
0.000858265
-0.000383667
0.00089892
-0.000465463
0.00092662
-0.000551016
0.000943921
-0.000640467
0.000950749
-0.000733817
0.000944814
-0.000830734
0.000922109
-0.000930411
0.000877487
-0.00103149
0.00080534
-0.00113204
0.000700352
-0.00122954
0.000558276
-0.00132081
0.000376615
-0.00140202
0.000155087
-0.00146775
-0.000103721
-0.00151184
-0.000393777
-0.00152557
-0.000706378
-0.00149826
-0.00102677
-0.00141799
-0.00133278
-0.00127432
-0.00159199
-0.00106348
-0.00176049
-0.000796063
-0.00178681
-0.000504091
-0.00162638
-0.000240257
-0.00126914
-6.08454e-05
-0.000767033
-0.00022799
-1.34941e-05
0.000177984
-4.76263e-05
0.000444371
-9.64256e-05
0.00063674
-0.000155014
0.00077149
-0.000219868
0.000863991
-0.000288767
0.000927164
-0.000360554
0.000970707
-0.000434829
0.00100089
-0.000511636
0.00102073
-0.000591199
0.00103031
-0.000673698
0.00102731
-0.000759117
0.00100753
-0.000847143
0.000965514
-0.000937124
0.000895321
-0.00102806
0.00079129
-0.0011186
0.000648816
-0.00120697
0.000464982
-0.00129085
0.000238967
-0.00136623
-2.83412e-05
-0.00142851
-0.000331493
-0.00146946
-0.000665436
-0.00147776
-0.00101846
-0.00143872
-0.00137183
-0.00133604
-0.00169468
-0.00115694
-0.00193959
-0.000901545
-0.0020422
-0.000595091
-0.00193283
-0.000295144
-0.00156908
-7.77918e-05
-0.000984384
-0.000305782
-1.27093e-05
0.000190693
-4.52192e-05
0.000476881
-9.14416e-05
0.000682963
-0.000146205
0.000826254
-0.000205729
0.000923515
-0.000267613
0.000989047
-0.000330592
0.00103369
-0.000394217
0.00106452
-0.000458542
0.00108505
-0.00052388
0.00109565
-0.00059062
0.00109405
-0.000659114
0.00107602
-0.000729614
0.00103601
-0.000802265
0.000967973
-0.000877109
0.000866135
-0.000954076
0.000725783
-0.00103288
0.00054379
-0.00111279
0.000318868
-0.00119234
5.12126e-05
-0.00126759
-0.000256242
-0.00133252
-0.000600502
-0.00137647
-0.00097452
-0.00138351
-0.00136478
-0.00133298
-0.00174521
-0.00120326
-0.00206931
-0.000981489
-0.00226398
-0.000679991
-0.00223433
-0.000353784
-0.00189529
-9.77164e-05
-0.00124045
-0.000403498
-1.22089e-05
0.000202902
-4.35639e-05
0.000508236
-8.73863e-05
0.000726785
-0.00013793
0.000876798
-0.000191057
0.000976641
-0.00024419
0.00104218
-0.000296006
0.0010855
-0.000346063
0.00111458
-0.000394482
0.00113347
-0.000441723
0.00114289
-0.00048844
0.00114077
-0.000535417
0.001123
-0.00058354
0.00108414
-0.000633807
0.00101824
-0.000687335
0.000919663
-0.000745339
0.000783787
-0.000808982
0.000607433
-0.000879157
0.000389043
-0.000956246
0.000128301
-0.00103838
-0.000174112
-0.00112154
-0.000517335
-0.00119702
-0.000899047
-0.00124965
-0.00131214
-0.00125676
-0.0017381
-0.00118982
-0.00213625
-0.00102253
-0.00243127
-0.000749265
-0.0025076
-0.000412873
-0.00223168
-0.0001207
-0.00153262
-0.000524199
-1.23862e-05
0.000215288
-4.37554e-05
0.000539606
-8.60113e-05
0.000769041
-0.000132421
0.000923208
-0.0001784
0.00102262
-0.00022128
0.00108506
-0.000259818
0.00112404
-0.000293721
0.00114848
-0.000323301
0.00116305
-0.000349266
0.00116886
-0.000372626
0.00116413
-0.000394662
0.00114503
-0.000416942
0.00110642
-0.000441327
0.00104262
-0.000469972
0.000948308
-0.000505303
0.000819118
-0.000549738
0.000651867
-0.000605578
0.000444883
-0.000674633
0.000197356
-0.000757215
-9.153e-05
-0.000851358
-0.000423192
-0.00095106
-0.000799344
-0.00104371
-0.0012195
-0.00110745
-0.00167436
-0.00111018
-0.00213352
-0.00101416
-0.00252728
-0.000793232
-0.00272853
-0.000468188
-0.00255673
-0.000146926
-0.00185389
-0.000671124
-1.38507e-05
0.000229139
-4.73791e-05
0.000573134
-8.97162e-05
0.000811378
-0.000132589
0.000966081
-0.000170953
0.00106098
-0.000202263
0.00111637
-0.000225622
0.0011474
-0.000241127
0.00116398
-0.00024947
0.0011714
-0.000251749
0.00117113
-0.000249426
0.00116181
-0.000244342
0.00113995
-0.000238756
0.00110083
-0.00023535
0.00103922
-0.000237151
0.000950109
-0.000247793
0.000829761
-0.00027054
0.000674615
-0.000308789
0.000483131
-0.000365592
0.000254159
-0.00044276
-1.43626e-05
-0.000540279
-0.000325673
-0.00065514
-0.000684482
-0.000778478
-0.00109616
-0.000891982
-0.00156086
-0.0009641
-0.0020614
-0.00094986
-0.00254152
-0.000803216
-0.00287517
-0.000514856
-0.00284509
-0.000176768
-0.00219197
-0.000847892
-1.76006e-05
0.00024674
-5.67741e-05
0.000612308
-0.000101752
0.000856356
-0.000142085
0.00100641
-0.000172443
0.00109134
-0.000190841
0.00113477
-0.000197162
0.00115372
-0.000192232
0.00115905
-0.000177365
0.00115653
-0.000154209
0.00114798
-0.000124763
0.00113236
-9.14558e-05
0.00110664
-5.72188e-05
0.00106659
-2.55247e-05
0.00100752
-3.56922e-07
0.000924941
1.47562e-05
0.000814648
1.49977e-05
0.000674373
-3.66416e-06
0.000501793
-4.45022e-05
0.000294997
-0.000110948
5.20835e-05
-0.00020466
-0.000231961
-0.000325159
-0.000563984
-0.000467935
-0.000953382
-0.000620189
-0.0014086
-0.000755126
-0.00192646
-0.000826255
-0.00247039
-0.000771636
-0.00292979
-0.000547285
-0.00306944
-0.000210618
-0.00252864
-0.00105851
-2.53674e-05
0.000272107
-7.54689e-05
0.000662409
-0.000126463
0.00090735
-0.000165228
0.00104518
-0.000186754
0.00111287
-0.000190401
0.00113841
-0.000177462
0.00114078
-0.000149926
0.00113152
-0.000109992
0.00111659
-6.00002e-05
0.00109799
-2.53041e-06
0.00107489
5.94608e-05
0.00104465
0.000122535
0.00100352
0.000182751
0.000947308
0.000235761
0.000871932
0.000276626
0.000773782
0.000300827
0.000650173
0.000303785
0.000498835
0.000281192
0.00031759
0.000229684
0.000103591
0.000146165
-0.000148442
2.88428e-05
-0.000446662
-0.000121692
-0.000802847
-0.000299658
-0.00123064
-0.000486456
-0.00173966
-0.000640404
-0.00231644
-0.000690544
-0.00287965
-0.000558188
-0.00320179
-0.000248063
-0.00283877
-0.00130657
-4.02755e-05
0.000312383
-0.000108799
0.000730932
-0.000169341
0.000967892
-0.000206379
0.00108222
-0.000216683
0.00112317
-0.000202248
0.00112398
-0.000166632
0.00110517
-0.00011347
0.00107836
-4.60937e-05
0.00104922
3.23866e-05
0.00101951
0.000118845
0.000988433
0.000209905
0.00095359
0.000301784
0.000911642
0.00039023
0.000858862
0.000470582
0.00079158
0.000537873
0.000706491
0.00058719
0.000600855
0.000613763
0.000472262
0.000613123
0.00031823
0.000581248
0.000135467
0.000514153
-8.13468e-05
0.00040822
-0.000340728
0.00026009
-0.000654718
6.92524e-05
-0.0010398
-0.000156112
-0.0015143
-0.000386015
-0.00208654
-0.000548943
-0.00271673
-0.000536349
-0.00321439
-0.000285936
-0.00308918
-0.00159251
-6.79917e-05
0.000380374
-0.000164391
0.000827331
-0.000235933
0.00103943
-0.000267255
0.00111354
-0.000259904
0.00111582
-0.000220473
0.00108455
-0.000155832
0.00104052
-7.17447e-05
0.000994269
2.71747e-05
0.000950299
0.000137066
0.000909615
0.000254403
0.000871096
0.000375616
0.000832378
0.000496861
0.000790397
0.000613911
0.000741811
0.000722174
0.000683317
0.000816793
0.000611872
0.000892862
0.000524786
0.000945548
0.000419577
0.000970167
0.000293611
0.000962139
0.000143494
0.000916547
-3.57551e-05
0.000828134
-0.000252315
0.000690526
-0.00051711
0.00049731
-0.000846582
0.00024622
-0.00126321
-4.76194e-05
-0.0017927
-0.000328713
-0.00243563
-0.000463067
-0.00308003
-0.000315291
-0.00323696
-0.0019078
-0.000118449
0.000498823
-0.000250916
0.000959799
-0.000326102
0.00111462
-0.000337367
0.0011248
-0.000296499
0.00107495
-0.000217398
0.00100545
-0.000111339
0.000934465
1.35074e-05
0.000869423
0.000151337
0.00081247
0.000297843
0.000763109
0.000449455
0.000719484
0.000602821
0.000679012
0.00075446
0.000638758
0.000900582
0.000595689
0.00103704
0.000546858
0.00115938
0.000489529
0.00126296
0.000421206
0.00134302
0.000339523
0.00139466
0.00024197
0.00141268
0.00012547
0.00139104
-1.41106e-05
0.00132314
-0.000184413
0.00119992
-0.000393889
0.00101047
-0.000657133
0.000743351
-0.000996094
0.000396662
-0.00144601
9.73385e-06
-0.0020487
-0.000306971
-0.00276333
-0.000322752
-0.00322117
-0.00223055
-0.0002076
0.000706423
-0.000367329
0.00111953
-0.000411003
0.00115829
-0.000362953
0.00107675
-0.000253681
0.000965682
-0.000106952
0.000858718
6.1526e-05
0.000765987
0.000242015
0.000688934
0.000428595
0.00062589
0.000617509
0.000574195
0.000806051
0.000530941
0.000991851
0.000493212
0.00117244
0.000458174
0.00134499
0.000423136
0.00150625
0.000385597
0.0016525
0.000343274
0.00177963
0.000294084
0.00188311
0.000236041
0.001958
0.000167075
0.0019986
8.48687e-05
0.0019977
-1.32097e-05
0.00194764
-0.00013435
0.00183711
-0.000283359
0.00165202
-0.000472041
0.00137444
-0.000718513
0.000986057
-0.00105763
0.000489168
-0.00155181
-1.13969e-05
-0.00226277
-0.000265588
-0.00296698
-0.00249614
-0.000345995
0.00105242
-0.00043969
0.00121322
-0.000348271
0.00106688
-0.000157519
0.000886002
7.73932e-05
0.000730769
0.000327652
0.00060846
0.000578715
0.000514924
0.000823856
0.000443793
0.00106039
0.000389355
0.0012875
0.000347089
0.00150499
0.000313452
0.00171263
0.00028557
0.00190978
0.000261024
0.00209518
0.000237732
0.00226689
0.000213885
0.00242227
0.0001879
0.00255797
0.00015838
0.00266998
0.000124031
0.00275355
8.35058e-05
0.00280301
3.54034e-05
0.00281165
-2.18405e-05
0.00276953
-9.22307e-05
0.002665
-0.000178835
0.00248208
-0.000289117
0.0021989
-0.000435333
0.00178628
-0.000645011
0.00121283
-0.000978367
0.000521114
-0.00157105
-2.03373e-05
-0.00242553
-0.00251648
-0.000306755
0.00135917
-5.86494e-05
0.000965117
0.000366459
0.000641768
0.000786594
0.000465868
0.0011713
0.000346058
0.00151645
0.000263315
0.00182436
0.000207011
0.00209986
0.000168291
0.00234826
0.000140956
0.00257426
0.000121092
0.00278155
0.000106163
0.00297272
9.43981e-05
0.00314927
8.44772e-05
0.00331162
7.53764e-05
0.00345923
6.62766e-05
0.00359063
5.6507e-05
0.0037035
4.55112e-05
0.00379473
3.28013e-05
0.00386021
1.80204e-05
0.00389446
1.15546e-06
0.00389365
-2.10286e-05
0.00384715
-4.57361e-05
0.00374473
-7.64143e-05
0.00357123
-0.00011561
0.00330393
-0.000168035
0.00290696
-0.000248045
0.00232043
-0.000391834
0.00148687
-0.00073749
0.000505377
-0.00144404
-0.0020111
0.00135917
0.00232429
0.00296606
0.00343193
0.00377798
0.0040413
0.00424831
0.0044166
0.00455756
0.00467865
0.00478481
0.00487921
0.00496369
0.00503906
0.00510534
0.00516185
0.00520736
0.00524016
0.00525818
0.00525933
0.00523831
0.00519257
0.00511616
0.00500055
0.00483251
0.00458447
0.00419263
0.00345514
0.0020111
)
;

boundaryField
{
    movingWall
    {
        type            calculated;
        value           uniform 0;
    }
    fixedWalls
    {
        type            calculated;
        value           uniform 0;
    }
    frontAndBack
    {
        type            empty;
        value           nonuniform 0();
    }
}


// ************************************************************************* //
