/*--------------------------------*- C++ -*----------------------------------*\
  =========                 |
  \\      /  F ield         | OpenFOAM: The Open Source CFD Toolbox
   \\    /   O peration     | Website:  https://openfoam.org
    \\  /    A nd           | Version:  7
     \\/     M anipulation  |
\*---------------------------------------------------------------------------*/
FoamFile
{
    version     2.0;
    format      ascii;
    class       volScalarField;
    location    "0.43";
    object      p;
}
// * * * * * * * * * * * * * * * * * * * * * * * * * * * * * * * * * * * * * //

dimensions      [0 2 -2 0 0 0 0];

internalField   nonuniform List<scalar> 
1936
(
-0.00020447
-3115.8
-6836.9
-6601.73
-5883.71
-5954.68
-5691.84
-5021.15
-4378.86
-4200.17
-4476.56
-5740.08
-7428.71
-6730.05
-4289.45
-3320.04
-3458.32
-4466.33
-6842.68
-7344.3
-4950.79
-3446.77
-3373.23
-4234.55
-6779.45
-7638.4
-5304.77
-3505.71
-3263.57
-3665.75
-5837.91
-7802.15
-6211.15
-3822.12
-3300.84
-3512.68
-5285.75
-7705.15
-6766.43
-4094.85
-3250.03
-3330.73
-4611.36
-7351.58
-104.024
-3111.3
-6776.45
-6564.24
-5869.48
-5934.29
-5674.95
-5022.38
-4405.9
-4237.46
-4498.98
-5728.35
-7377.62
-6677.88
-4295.23
-3381.38
-3512.58
-4477.45
-6807.23
-7283.06
-4935.68
-3501.1
-3434.08
-4236.87
-6718.56
-7574.09
-5288.52
-3548.7
-3328.33
-3697.75
-5808.82
-7738.15
-6172.46
-3849.78
-3366.49
-3554.93
-5263.55
-7637.67
-6711.91
-4102.47
-3310.4
-3387.25
-4610.5
-7297.08
-426.021
-3109.4
-6558.85
-6461.49
-5839.05
-5872.96
-5627.11
-5027.3
-4475.32
-4328.72
-4571.6
-5714.75
-7215.84
-6524.13
-4333.31
-3534.16
-3650.51
-4540.31
-6698.5
-7087.47
-4916.03
-3643.33
-3580.39
-4271.03
-6546.82
-7368.99
-5267.82
-3672.13
-3479.5
-3803.22
-5744.69
-7527.86
-6072.48
-3945.67
-3520.2
-3674.59
-5229.05
-7421.8
-6556.37
-4153.16
-3455.44
-3531.83
-4640.87
-7124.71
-868.354
-3133.28
-6244.17
-6302.99
-5794.91
-5787.86
-5560.31
-5039
-4575.7
-4455.7
-4676.28
-5689.07
-6964.17
-6304.77
-4406.67
-3750.55
-3843.73
-4630.65
-6518.53
-6793.7
-4900.55
-3841.79
-3783.52
-4341.35
-6304.94
-7056.42
-5239.86
-3852.3
-3689.91
-3961.55
-5652.4
-7204.28
-5927.46
-4089.59
-3732.22
-3851.23
-5188.94
-7095.05
-6330.58
-4243.06
-3660.29
-3734.14
-4689.83
-6858.3
-1374.13
-3193.36
-5888.56
-6099.63
-5728.55
-5688.29
-5485.74
-5058.01
-4691.81
-4596.86
-4790.99
-5647.9
-6661.92
-6059.96
-4505.64
-3994.48
-4060.3
-4729.11
-6293.22
-6453.64
-4890.1
-4058.91
-4007.62
-4437.31
-6038.68
-6689.14
-5205.1
-4059.12
-3925.51
-4144.92
-5545
-6822.72
-5760.17
-4254.46
-3966.25
-4054.96
-5148.26
-6714.04
-6073.84
-4357.7
-3891.58
-3957.57
-4744.15
-6542.15
-1905.02
-3294.89
-5533.75
-5865.71
-5635.89
-5581.63
-5411.44
-5082.63
-4809.31
-4736.49
-4899.69
-5589.57
-6341.71
-5820.2
-4620.21
-4238.64
-4276.83
-4823.74
-6044.23
-6109.13
-4887.55
-4269.52
-4228.01
-4548.1
-5781.05
-6310.03
-5166.31
-4268.01
-4162.48
-4332.7
-5432.67
-6426.54
-5588.37
-4421.46
-4198.11
-4261.49
-5111.92
-6323.2
-5816.04
-4484.66
-4124.4
-4176.96
-4797.51
-6211.27
-2433.04
-3439.06
-5210.84
-5617.07
-5518.62
-5472.65
-5342.08
-5108.33
-4915.89
-4861.6
-4992.24
-5516.52
-6031.87
-5607.22
-4738.77
-4463.31
-4478.12
-4905.11
-5793.7
-5792.15
-4895.27
-4459.45
-4428.88
-4660.98
-5553.22
-5952.86
-5127.13
-4461.65
-4382.45
-4508.47
-5325.04
-6050.65
-5428.02
-4576.25
-4411.04
-4453.68
-5081.78
-5957.41
-5579.64
-4610.9
-4340.92
-4377.7
-4847.22
-5892.96
-2935.93
-3620.58
-4942.25
-5372.26
-5383.18
-5363.84
-5278.76
-5128.98
-5003.32
-4964.07
-5063.85
-5432.58
-5754.39
-5434.21
-4849.13
-4656.17
-4653.82
-4967.89
-5561.93
-5524.29
-4913.56
-4621.88
-4600.5
-4764.86
-5365.3
-5642.04
-5091.61
-4628.56
-4572.52
-4661.7
-5229.35
-5720.57
-5290.99
-4709.95
-4593.84
-4620.16
-5058.3
-5641.04
-5378.86
-4725.63
-4529.5
-4552.08
-4890.71
-5609.03
-3390.29
-3827.9
-4744.83
-5150.89
-5240.15
-5257.34
-5219.57
-5139.58
-5067.04
-5040.5
-5110.97
-5345.29
-5524.31
-5304.4
-4941.89
-4810.28
-4798.84
-5008.95
-5365.47
-5317.24
-4938.71
-4753.22
-4738.28
-4850.87
-5220.21
-5392.92
-5060.81
-4764.25
-4725.51
-4786.55
-5149.16
-5452.77
-5183.01
-4819.07
-4740.37
-4755.57
-5038.37
-5389.12
-5222.12
-4820.3
-4683.75
-4695.94
-4925.42
-5374.23
-3773
-4041.17
-4628.47
-4971.97
-5103.72
-5156.45
-5162.46
-5137.01
-5105.05
-5090.09
-5133.34
-5263.25
-5348.27
-5214.38
-5010.65
-4923.92
-4909.15
-5029.96
-5214.96
-5172.99
-4962.95
-4853.48
-4842.29
-4913.77
-5116.32
-5211.76
-5035.79
-4866.37
-4839.9
-4879.92
-5087.09
-5254.64
-5104.8
-4900.34
-4849.56
-4858.06
-5020.84
-5206.69
-5111.24
-4889.86
-4802.07
-4808.11
-4948.15
-5196.74
-4072.36
-4236.25
-4587.07
-4848.84
-4989.12
-5066.89
-5107.33
-5121.13
-5118.79
-5114.12
-5135.25
-5193.74
-5225.06
-5155.26
-5053.17
-4999.27
-4983.2
-5036.72
-5113.49
-5084.11
-4981.14
-4923.31
-4914.87
-4953.62
-5049.33
-5095.12
-5017.51
-4935.12
-4918.67
-4941.55
-5043.72
-5123.26
-5053.37
-4953.84
-4923.73
-4927.77
-5006.69
-5089.33
-5042.05
-4935.23
-4885.18
-4887.45
-4960.32
-5077.44
-4292.91
-4396.34
-4597.61
-4781.79
-4907.49
-4995.44
-5056.97
-5095.54
-5112.69
-5116.27
-5122.96
-5140.42
-5146.56
-5116.56
-5072.39
-5041.14
-5024.58
-5036.15
-5055.42
-5036.96
-4993.31
-4966.29
-4960.16
-4975.62
-5012.09
-5031.17
-5005.99
-4974.83
-4966.41
-4976.35
-5017
-5047.94
-5022.99
-4983.68
-4968.17
-4968.26
-4997.1
-5024.99
-5005.21
-4961.55
-4936.98
-4936.47
-4965.82
-5008.99
-4447.59
-4517.5
-4635.81
-4757.67
-4860.67
-4946.08
-5015.01
-5065.13
-5093.88
-5103.07
-5102.86
-5102.47
-5100.16
-5090.21
-5074.56
-5057.59
-5041.77
-5033.28
-5028.33
-5016.5
-5000.43
-4989.4
-4984.51
-4986.53
-4995.69
-5002.88
-5000
-4993.43
-4990.48
-4992.3
-5003.09
-5012.18
-5007.18
-4996.69
-4990.31
-4987.48
-4992.13
-4996.69
-4989.55
-4975.2
-4964.99
-4962.35
-4968.57
-4977.8
-4558.75
-4605.05
-4678.86
-4761.08
-4841.42
-4916.55
-4982.59
-5034
-5066.31
-5079.43
-5079.76
-5075.96
-5073.14
-5071.3
-5067.25
-5058.32
-5044.53
-5030.18
-5018.61
-5010.15
-5004.28
-4999.95
-4995.7
-4992.1
-4991.44
-4994.04
-4997.44
-4999.68
-4999.49
-4997.71
-4997.42
-4998.9
-5000.14
-5000.19
-4998.41
-4994.46
-4990.7
-4988.02
-4985.36
-4981.78
-4977.93
-4974.15
-4971.17
-4968.9
-4643.25
-4671.91
-4719.37
-4776.37
-4838.3
-4900.45
-4957.81
-5004.61
-5036.37
-5052.35
-5056.66
-5055.97
-5055.55
-5056.51
-5056.05
-5050.88
-5040.28
-5027.33
-5016.29
-5009.57
-5006.45
-5003.99
-5000.21
-4995.56
-4992.53
-4993.18
-4996.88
-5000.4
-5001.04
-4998.73
-4996.07
-4995.65
-4997.6
-4999.84
-4999.65
-4996.18
-4991.19
-4987.38
-4985.77
-4984.97
-4983.13
-4979.45
-4974.55
-4970.4
-4710.48
-4727.2
-4757.47
-4797.1
-4843.08
-4892
-4938.69
-4978.5
-5007.78
-5025.66
-5034.54
-5038.42
-5040.96
-5043.21
-5043.76
-5040.63
-5033.46
-5024.26
-5016.04
-5010.68
-5007.81
-5005.47
-5002.16
-4998.18
-4995.35
-4995.21
-4997.35
-4999.64
-5000.1
-4998.39
-4996.27
-4995.61
-4996.87
-4998.49
-4998.43
-4995.89
-4992.13
-4989.1
-4987.63
-4986.84
-4985.29
-4982.19
-4978.28
-4975.17
-4764.31
-4774.08
-4793.19
-4820.1
-4852.92
-4888.96
-4925.06
-4957.32
-4983.11
-5001.51
-5013.46
-5021.04
-5026.19
-5029.7
-5031.16
-5029.88
-5025.9
-5020.41
-5015.11
-5011.1
-5008.33
-5005.9
-5003.13
-5000.22
-4998.08
-4997.45
-4998.12
-4999.01
-4999.04
-4998.05
-4996.83
-4996.32
-4996.74
-4997.31
-4996.97
-4995.33
-4992.96
-4990.82
-4989.38
-4988.26
-4986.73
-4984.47
-4981.98
-4980.2
-4807
-4813.06
-4825.29
-4843.24
-4865.87
-4891.41
-4917.73
-4942.58
-4964.06
-4981.25
-4994.24
-5003.8
-5010.74
-5015.58
-5018.34
-5018.98
-5017.74
-5015.28
-5012.47
-5009.91
-5007.73
-5005.69
-5003.58
-5001.55
-4999.97
-4999.14
-4998.95
-4998.95
-4998.68
-4998.06
-4997.35
-4996.9
-4996.8
-4996.7
-4996.19
-4995.08
-4993.58
-4992.1
-4990.81
-4989.64
-4988.32
-4986.8
-4985.35
-4984.38
-4840.65
-4844.63
-4852.65
-4864.59
-4879.86
-4897.42
-4916.03
-4934.37
-4951.24
-4965.94
-4978.18
-4988.05
-4995.79
-5001.61
-5005.63
-5007.98
-5008.9
-5008.75
-5007.98
-5006.92
-5005.75
-5004.49
-5003.17
-5001.9
-5000.82
-5000.05
-4999.56
-4999.2
-4998.79
-4998.3
-4997.79
-4997.35
-4996.99
-4996.61
-4996.04
-4995.21
-4994.21
-4993.15
-4992.12
-4991.13
-4990.13
-4989.15
-4988.31
-4987.79
-4866.98
-4869.66
-4874.99
-4882.94
-4893.15
-4905.05
-4917.94
-4931.07
-4943.84
-4955.61
-4966.11
-4975.18
-4982.8
-4988.99
-4993.81
-4997.36
-4999.79
-5001.3
-5002.11
-5002.43
-5002.39
-5002.11
-5001.66
-5001.12
-5000.59
-5000.12
-4999.72
-4999.36
-4998.98
-4998.59
-4998.18
-4997.77
-4997.35
-4996.9
-4996.36
-4995.73
-4995.01
-4994.25
-4993.5
-4992.76
-4992.07
-4991.45
-4990.97
-4990.68
-4887.24
-4889.05
-4892.6
-4897.89
-4904.72
-4912.76
-4921.64
-4930.96
-4940.31
-4949.4
-4957.91
-4965.68
-4972.59
-4978.58
-4983.65
-4987.81
-4991.14
-4993.72
-4995.67
-4997.09
-4998.09
-4998.75
-4999.14
-4999.34
-4999.41
-4999.39
-4999.3
-4999.17
-4998.98
-4998.75
-4998.48
-4998.17
-4997.83
-4997.45
-4997.02
-4996.55
-4996.04
-4995.52
-4995
-4994.5
-4994.05
-4993.67
-4993.39
-4993.23
-4902.35
-4903.57
-4905.95
-4909.5
-4914.12
-4919.62
-4925.79
-4932.42
-4939.28
-4946.17
-4952.88
-4959.28
-4965.25
-4970.71
-4975.61
-4979.92
-4983.65
-4986.82
-4989.49
-4991.69
-4993.48
-4994.91
-4996.04
-4996.91
-4997.57
-4998.05
-4998.38
-4998.6
-4998.7
-4998.72
-4998.66
-4998.54
-4998.35
-4998.12
-4997.85
-4997.54
-4997.21
-4996.88
-4996.54
-4996.23
-4995.96
-4995.73
-4995.57
-4995.48
-4912.33
-4913.19
-4914.88
-4917.41
-4920.73
-4924.71
-4929.25
-4934.21
-4939.45
-4944.84
-4950.26
-4955.58
-4960.73
-4965.61
-4970.17
-4974.36
-4978.17
-4981.58
-4984.61
-4987.25
-4989.53
-4991.49
-4993.14
-4994.52
-4995.65
-4996.57
-4997.3
-4997.85
-4998.26
-4998.55
-4998.72
-4998.8
-4998.8
-4998.73
-4998.62
-4998.46
-4998.28
-4998.08
-4997.88
-4997.69
-4997.52
-4997.39
-4997.29
-4997.24
-4917.98
-4918.66
-4919.98
-4921.98
-4924.61
-4927.79
-4931.46
-4935.5
-4939.84
-4944.37
-4949.01
-4953.67
-4958.27
-4962.73
-4967.01
-4971.05
-4974.82
-4978.3
-4981.47
-4984.33
-4986.89
-4989.14
-4991.11
-4992.81
-4994.25
-4995.47
-4996.47
-4997.28
-4997.92
-4998.41
-4998.76
-4999
-4999.15
-4999.21
-4999.21
-4999.16
-4999.07
-4998.96
-4998.84
-4998.72
-4998.61
-4998.52
-4998.45
-4998.42
-4920.92
-4921.5
-4922.63
-4924.36
-4926.63
-4929.4
-4932.6
-4936.17
-4940.03
-4944.1
-4948.31
-4952.6
-4956.88
-4961.1
-4965.21
-4969.15
-4972.88
-4976.39
-4979.64
-4982.62
-4985.33
-4987.75
-4989.91
-4991.8
-4993.44
-4994.84
-4996.02
-4997
-4997.79
-4998.41
-4998.88
-4999.23
-4999.46
-4999.61
-4999.68
-4999.69
-4999.65
-4999.59
-4999.51
-4999.42
-4999.34
-4999.27
-4999.22
-4999.2
-4922.28
-4922.81
-4923.85
-4925.42
-4927.51
-4930.07
-4933.03
-4936.35
-4939.96
-4943.8
-4947.79
-4951.88
-4956.01
-4960.11
-4964.13
-4968.03
-4971.76
-4975.29
-4978.6
-4981.67
-4984.47
-4987.02
-4989.29
-4991.31
-4993.08
-4994.6
-4995.89
-4996.97
-4997.85
-4998.56
-4999.1
-4999.51
-4999.8
-4999.99
-5000.09
-5000.13
-5000.12
-5000.08
-5000.02
-4999.95
-4999.87
-4999.81
-4999.77
-4999.75
-4922.72
-4923.23
-4924.21
-4925.72
-4927.72
-4930.16
-4933.01
-4936.21
-4939.71
-4943.43
-4947.33
-4951.35
-4955.41
-4959.47
-4963.48
-4967.37
-4971.13
-4974.7
-4978.07
-4981.2
-4984.08
-4986.71
-4989.07
-4991.17
-4993.02
-4994.62
-4995.98
-4997.12
-4998.06
-4998.81
-4999.4
-4999.83
-5000.15
-5000.35
-5000.47
-5000.52
-5000.51
-5000.47
-5000.41
-5000.34
-5000.27
-5000.21
-5000.16
-5000.14
-4922.66
-4923.15
-4924.11
-4925.59
-4927.55
-4929.95
-4932.76
-4935.91
-4939.37
-4943.07
-4946.94
-4950.94
-4955.01
-4959.07
-4963.1
-4967.03
-4970.82
-4974.44
-4977.86
-4981.05
-4983.99
-4986.67
-4989.1
-4991.25
-4993.15
-4994.79
-4996.19
-4997.37
-4998.33
-4999.1
-4999.7
-5000.14
-5000.46
-5000.66
-5000.78
-5000.82
-5000.81
-5000.76
-5000.69
-5000.61
-5000.53
-5000.46
-5000.41
-5000.39
-4922.38
-4922.87
-4923.82
-4925.28
-4927.23
-4929.63
-4932.43
-4935.59
-4939.06
-4942.77
-4946.66
-4950.69
-4954.78
-4958.88
-4962.95
-4966.92
-4970.75
-4974.42
-4977.88
-4981.11
-4984.1
-4986.82
-4989.27
-4991.46
-4993.38
-4995.04
-4996.45
-4997.63
-4998.59
-4999.36
-4999.95
-5000.38
-5000.68
-5000.87
-5000.97
-5000.99
-5000.96
-5000.9
-5000.81
-5000.72
-5000.63
-5000.55
-5000.5
-5000.47
-4922.07
-4922.55
-4923.5
-4924.96
-4926.93
-4929.34
-4932.17
-4935.36
-4938.85
-4942.6
-4946.54
-4950.6
-4954.74
-4958.89
-4962.99
-4967
-4970.88
-4974.58
-4978.07
-4981.33
-4984.34
-4987.08
-4989.54
-4991.73
-4993.65
-4995.3
-4996.69
-4997.85
-4998.79
-4999.53
-5000.09
-5000.49
-5000.76
-5000.92
-5000.99
-5000.98
-5000.93
-5000.84
-5000.74
-5000.63
-5000.53
-5000.44
-5000.38
-5000.35
-4921.85
-4922.33
-4923.28
-4924.75
-4926.74
-4929.18
-4932.04
-4935.27
-4938.81
-4942.6
-4946.59
-4950.7
-4954.88
-4959.06
-4963.21
-4967.25
-4971.16
-4974.88
-4978.39
-4981.66
-4984.67
-4987.41
-4989.86
-4992.03
-4993.92
-4995.54
-4996.9
-4998.02
-4998.91
-4999.6
-5000.11
-5000.47
-5000.68
-5000.79
-5000.81
-5000.77
-5000.68
-5000.56
-5000.44
-5000.31
-5000.19
-5000.1
-5000.03
-5000
-4921.81
-4922.28
-4923.23
-4924.73
-4926.73
-4929.21
-4932.11
-4935.37
-4938.95
-4942.78
-4946.8
-4950.95
-4955.16
-4959.38
-4963.55
-4967.61
-4971.53
-4975.27
-4978.78
-4982.05
-4985.05
-4987.77
-4990.2
-4992.34
-4994.19
-4995.76
-4997.07
-4998.13
-4998.96
-4999.59
-5000.03
-5000.31
-5000.46
-5000.5
-5000.46
-5000.36
-5000.22
-5000.06
-4999.89
-4999.75
-4999.62
-4999.52
-4999.44
-4999.41
-4922.01
-4922.48
-4923.43
-4924.93
-4926.96
-4929.46
-4932.38
-4935.66
-4939.26
-4943.11
-4947.15
-4951.32
-4955.55
-4959.78
-4963.96
-4968.04
-4971.97
-4975.7
-4979.21
-4982.47
-4985.45
-4988.14
-4990.54
-4992.64
-4994.44
-4995.96
-4997.21
-4998.2
-4998.96
-4999.5
-4999.86
-5000.06
-5000.13
-5000.08
-4999.96
-4999.78
-4999.56
-4999.34
-4999.12
-4998.94
-4998.79
-4998.67
-4998.6
-4998.58
-4922.49
-4922.95
-4923.9
-4925.4
-4927.42
-4929.91
-4932.82
-4936.1
-4939.69
-4943.53
-4947.57
-4951.74
-4955.98
-4960.22
-4964.4
-4968.48
-4972.41
-4976.14
-4979.64
-4982.88
-4985.84
-4988.5
-4990.87
-4992.92
-4994.67
-4996.14
-4997.32
-4998.24
-4998.92
-4999.39
-4999.66
-4999.77
-4999.74
-4999.6
-4999.37
-4999.09
-4998.78
-4998.46
-4998.16
-4997.9
-4997.7
-4997.56
-4997.49
-4997.48
-4923.3
-4923.75
-4924.67
-4926.12
-4928.09
-4930.53
-4933.39
-4936.62
-4940.18
-4944
-4948.02
-4952.18
-4956.41
-4960.65
-4964.83
-4968.91
-4972.83
-4976.56
-4980.05
-4983.27
-4986.21
-4988.85
-4991.17
-4993.19
-4994.89
-4996.3
-4997.42
-4998.28
-4998.88
-4999.27
-4999.45
-4999.47
-4999.34
-4999.09
-4998.76
-4998.36
-4997.92
-4997.48
-4997.06
-4996.68
-4996.39
-4996.18
-4996.1
-4996.09
-4924.52
-4924.91
-4925.74
-4927.05
-4928.92
-4931.25
-4934.02
-4937.18
-4940.68
-4944.46
-4948.45
-4952.6
-4956.81
-4961.04
-4965.23
-4969.3
-4973.22
-4976.94
-4980.42
-4983.63
-4986.55
-4989.16
-4991.45
-4993.43
-4995.09
-4996.45
-4997.52
-4998.31
-4998.85
-4999.16
-4999.27
-4999.19
-4998.97
-4998.62
-4998.17
-4997.64
-4997.07
-4996.47
-4995.89
-4995.35
-4994.9
-4994.53
-4994.39
-4994.35
-4926.24
-4926.43
-4927.09
-4928.14
-4929.82
-4931.99
-4934.64
-4937.71
-4941.14
-4944.87
-4948.83
-4952.96
-4957.16
-4961.39
-4965.57
-4969.64
-4973.56
-4977.27
-4980.74
-4983.94
-4986.84
-4989.44
-4991.71
-4993.65
-4995.28
-4996.6
-4997.61
-4998.35
-4998.83
-4999.08
-4999.11
-4998.96
-4998.65
-4998.2
-4997.64
-4996.99
-4996.28
-4995.52
-4994.75
-4993.99
-4993.32
-4992.66
-4992.37
-4992.16
-4928.61
-4928.27
-4928.63
-4929.28
-4930.72
-4932.69
-4935.21
-4938.17
-4941.53
-4945.21
-4949.14
-4953.25
-4957.45
-4961.67
-4965.84
-4969.92
-4973.83
-4977.55
-4981.01
-4984.21
-4987.1
-4989.68
-4991.93
-4993.85
-4995.44
-4996.73
-4997.71
-4998.4
-4998.83
-4999.02
-4999
-4998.78
-4998.39
-4997.86
-4997.2
-4996.44
-4995.59
-4994.67
-4993.71
-4992.7
-4991.74
-4990.67
-4990.1
-4989.38
-4931.76
-4930.34
-4930.24
-4930.37
-4931.53
-4933.3
-4935.67
-4938.54
-4941.83
-4945.47
-4949.38
-4953.47
-4957.66
-4961.88
-4966.06
-4970.14
-4974.06
-4977.77
-4981.24
-4984.42
-4987.31
-4989.87
-4992.11
-4994.01
-4995.59
-4996.84
-4997.79
-4998.45
-4998.84
-4998.99
-4998.91
-4998.64
-4998.19
-4997.59
-4996.86
-4996
-4995.03
-4993.97
-4992.83
-4991.57
-4990.29
-4988.67
-4987.68
-4985.88
-4935.77
-4932.45
-4931.77
-4931.31
-4932.19
-4933.77
-4936.03
-4938.81
-4942.05
-4945.66
-4949.55
-4953.63
-4957.82
-4962.04
-4966.22
-4970.3
-4974.22
-4977.94
-4981.4
-4984.59
-4987.47
-4990.03
-4992.25
-4994.14
-4995.7
-4996.94
-4997.86
-4998.5
-4998.86
-4998.98
-4998.86
-4998.55
-4998.06
-4997.4
-4996.61
-4995.67
-4994.62
-4993.43
-4992.14
-4990.65
-4989.07
-4986.85
-4985.3
-4981.58
-4940.56
-4934.39
-4933.04
-4932.03
-4932.68
-4934.1
-4936.27
-4938.99
-4942.2
-4945.78
-4949.66
-4953.73
-4957.92
-4962.14
-4966.33
-4970.41
-4974.34
-4978.05
-4981.52
-4984.71
-4987.58
-4990.14
-4992.36
-4994.24
-4995.79
-4997.01
-4997.92
-4998.54
-4998.88
-4998.97
-4998.84
-4998.5
-4997.97
-4997.28
-4996.44
-4995.46
-4994.33
-4993.06
-4991.65
-4989.98
-4988.15
-4985.36
-4983.17
-4976.56
-4945.78
-4935.94
-4933.94
-4932.51
-4932.98
-4934.3
-4936.41
-4939.1
-4942.28
-4945.85
-4949.72
-4953.79
-4957.98
-4962.2
-4966.39
-4970.48
-4974.4
-4978.12
-4981.59
-4984.78
-4987.65
-4990.21
-4992.42
-4994.3
-4995.84
-4997.05
-4997.96
-4998.56
-4998.9
-4998.97
-4998.82
-4998.47
-4997.92
-4997.21
-4996.35
-4995.33
-4994.16
-4992.84
-4991.36
-4989.56
-4987.55
-4984.34
-4981.51
-4971.2
-4950.72
-4936.92
-4934.43
-4932.75
-4933.14
-4934.4
-4936.48
-4939.15
-4942.32
-4945.88
-4949.74
-4953.82
-4958.01
-4962.23
-4966.42
-4970.5
-4974.43
-4978.15
-4981.62
-4984.81
-4987.69
-4990.24
-4992.45
-4994.32
-4995.86
-4997.07
-4997.97
-4998.58
-4998.9
-4998.98
-4998.82
-4998.45
-4997.9
-4997.18
-4996.3
-4995.27
-4994.09
-4992.74
-4991.21
-4989.36
-4987.25
-4983.8
-4980.48
-4966.19
-4954.67
-4937.35
-4934.59
-4932.84
-4933.19
-4934.43
-4936.5
-4939.17
-4942.33
-4945.89
-4949.75
-4953.83
-4958.01
-4962.24
-4966.43
-4970.51
-4974.44
-4978.16
-4981.63
-4984.82
-4987.69
-4990.24
-4992.46
-4994.33
-4995.87
-4997.08
-4997.98
-4998.58
-4998.9
-4998.98
-4998.82
-4998.45
-4997.9
-4997.17
-4996.29
-4995.25
-4994.06
-4992.7
-4991.17
-4989.3
-4987.15
-4983.61
-4980.04
-4962.22
)
;

boundaryField
{
    movingWall
    {
        type            zeroGradient;
    }
    fixedWalls
    {
        type            zeroGradient;
    }
    frontAndBack
    {
        type            empty;
    }
    defaultFaces
    {
        type            empty;
    }
}


// ************************************************************************* //
