/*--------------------------------*- C++ -*----------------------------------*\
  =========                 |
  \\      /  F ield         | OpenFOAM: The Open Source CFD Toolbox
   \\    /   O peration     | Website:  https://openfoam.org
    \\  /    A nd           | Version:  7
     \\/     M anipulation  |
\*---------------------------------------------------------------------------*/
FoamFile
{
    version     2.0;
    format      ascii;
    class       volScalarField;
    location    "6.3";
    object      p;
}
// * * * * * * * * * * * * * * * * * * * * * * * * * * * * * * * * * * * * * //

dimensions      [0 2 -2 0 0 0 0];

internalField   nonuniform List<scalar> 
900
(
3.56533e-09
-0.00013189
-0.000283983
-0.000411239
-0.000483085
-0.00048309
-0.000405436
-0.00024938
-1.60424e-05
0.000292894
0.000675379
0.00112851
0.00164768
0.00222549
0.00285079
0.00350792
0.0041767
0.00483204
0.00544595
0.00598945
0.00643545
0.00676225
0.00695691
0.00701807
0.00695743
0.00680027
0.00658426
0.00634843
0.0061606
0.00607161
0.000129915
-4.24475e-06
-0.000109993
-0.000186732
-0.000217348
-0.000189141
-9.67433e-05
6.17223e-05
0.00028658
0.000577235
0.000932236
0.00134893
0.00182284
0.00234692
0.00291068
0.00349948
0.00409742
0.00468088
0.0052263
0.00570937
0.00610769
0.00640385
0.00658819
0.00666101
0.00663352
0.00652745
0.00637318
0.00620601
0.00606518
0.00598219
0.000287792
9.73902e-05
-1.08265e-05
-7.51036e-05
-9.17868e-05
-5.24108e-05
4.60123e-05
0.00020439
0.000423039
0.000701785
0.00103978
0.00143507
0.00188395
0.00238028
0.0029147
0.00347443
0.00404199
0.0045975
0.00511798
0.00557984
0.00596136
0.00624556
0.00642307
0.00649429
0.00647015
0.00637128
0.00622573
0.00606622
0.00592245
0.00580049
0.000423433
0.000165614
3.89923e-05
-2.71905e-05
-4.06676e-05
2.65214e-06
0.000102747
0.000258903
0.000470987
0.000739104
0.00106312
0.00144207
0.00187343
0.00235228
0.00287045
0.00341596
0.00397329
0.00452163
0.0050379
0.00549768
0.00587788
0.00616
0.00633335
0.00639749
0.00636315
0.00625104
0.00608934
0.005911
0.00574067
0.00556643
0.000496638
0.000172427
2.30891e-05
-5.1124e-05
-6.72082e-05
-2.4725e-05
7.34953e-05
0.000225147
0.000429646
0.000687423
0.000999206
0.00136526
0.00178449
0.00225348
0.00276527
0.00330792
0.00387072
0.00442833
0.00495731
0.00543119
0.00582395
0.0061139
0.00628754
0.00634273
0.00628991
0.00615086
0.00595593
0.0057412
0.00553101
0.00530152
0.000476434
9.0805e-05
-8.25033e-05
-0.000168292
-0.000191097
-0.000153388
-6.03478e-05
8.44092e-05
0.000280024
0.000527408
0.000828328
0.0011845
0.00159657
0.00206295
0.00257882
0.00313548
0.0037136
0.00429612
0.00485551
0.00536137
0.00578301
0.00609364
0.00627522
0.0063226
0.00624561
0.00606794
0.00582423
0.0055568
0.00529417
0.00500508
0.000340087
-0.00010077
-0.000297576
-0.000396722
-0.000429014
-0.000399241
-0.000314467
-0.000179262
5.48941e-06
0.000241377
0.000531409
0.00087899
0.00128677
0.0017553
0.00228169
0.00285805
0.00346863
0.00409282
0.00470118
0.0052589
0.00572904
0.00607753
0.0062794
0.00632457
0.00622122
0.00599545
0.00568818
0.00535142
0.00502192
0.00466402
6.96514e-05
-0.000420514
-0.000639635
-0.000753013
-0.000796874
-0.000777928
-0.000704731
-0.000582495
-0.000411903
-0.000190501
8.61468e-05
0.000423371
0.000826164
0.00129773
0.00183781
0.00244072
0.00309263
0.00377255
0.00444844
0.00508039
0.00562348
0.00603371
0.00627585
0.00633159
0.00620528
0.00592499
0.00553973
0.00511496
0.00469978
0.00425448
-0.000349978
-0.000884329
-0.00112461
-0.00125298
-0.00131054
-0.00130569
-0.00124825
-0.00114386
-0.000992873
-0.000791876
-0.0005349
-0.000214496
0.000177031
0.000646142
0.00119624
0.00182513
0.00252177
0.00326746
0.00402818
0.00475913
0.0054061
0.00591198
0.00622654
0.00631788
0.00618198
0.00584669
0.00537014
0.00483571
0.0043094
0.00374519
-0.000931865
-0.00150606
-0.00176671
-0.00191119
-0.00198515
-0.00199863
-0.0019626
-0.00188314
-0.00176031
-0.00158981
-0.00136421
-0.00107392
-0.000708265
-0.000256883
0.000288494
0.000931028
0.00166463
0.00247756
0.00333537
0.00419047
0.00497931
0.0056284
0.00606615
0.0062385
0.00612457
0.00574614
0.00516968
0.00450156
0.00383066
0.00309998
-0.00168725
-0.00229757
-0.00257828
-0.00274059
-0.00283452
-0.00287187
-0.0028649
-0.0028203
-0.00273815
-0.00261365
-0.00243827
-0.00220057
-0.00188696
-0.0014827
-0.000973369
-0.000347585
0.000398465
0.00126098
0.00221484
0.00321377
0.00418721
0.00504327
0.00568118
0.00601202
0.00598313
0.00559781
0.00492562
0.00410083
0.0032437
0.00227997
-0.00262546
-0.00326865
-0.00356956
-0.00375207
-0.00387051
-0.0039387
-0.00397056
-0.00397391
-0.00394947
-0.0038927
-0.00379491
-0.00364366
-0.00342305
-0.00311404
-0.00269501
-0.002143
-0.00143739
-0.000573898
0.000449167
0.00159471
0.00279248
0.00393379
0.00488133
0.00549422
0.00566416
0.0053523
0.00461681
0.00362193
0.0025309
0.00124572
-0.00375351
-0.00442679
-0.00474845
-0.004954
-0.00510213
-0.00520921
-0.00529149
-0.00535871
-0.00541331
-0.00545234
-0.00546847
-0.00544999
-0.00538032
-0.00523713
-0.00499138
-0.00460689
-0.00404306
-0.00326536
-0.00224124
-0.000981391
0.000461111
0.00197016
0.00336887
0.00444523
0.00500128
0.00491545
0.00420309
0.00305107
0.00167897
-4.00161e-05
-0.00507578
-0.00577702
-0.0061202
-0.0063516
-0.00653457
-0.00668877
-0.00683373
-0.00698236
-0.00714032
-0.00730816
-0.00748224
-0.00765432
-0.00781003
-0.00792626
-0.00796781
-0.00788403
-0.00760734
-0.00705851
-0.00617017
-0.0048881
-0.00322546
-0.00128546
0.000723066
0.00250225
0.0037233
0.00412091
0.00360884
0.00236784
0.000682117
-0.0016074
-0.00659367
-0.0073219
-0.00768728
-0.00794655
-0.00816816
-0.00837618
-0.00859476
-0.00884155
-0.00912739
-0.00945875
-0.00983874
-0.0102663
-0.0107335
-0.0112208
-0.01169
-0.0120765
-0.0122832
-0.0121804
-0.0116236
-0.010488
-0.00870442
-0.00632642
-0.00356917
-0.000815261
0.00143872
0.00270629
0.00270425
0.00153989
-0.000452051
-0.00346979
-0.00830567
-0.00906193
-0.00944971
-0.00973672
-0.00999751
-0.010262
-0.0105607
-0.0109179
-0.0113519
-0.0118778
-0.0125089
-0.0132557
-0.0141219
-0.0150971
-0.016145
-0.0171904
-0.0181047
-0.0186993
-0.0187353
-0.0180016
-0.0162926
-0.0135669
-0.0099998
-0.00602832
-0.00232892
0.000315714
0.00129547
0.00052064
-0.0016908
-0.00560542
-0.010208
-0.0109967
-0.0114059
-0.0117166
-0.012011
-0.012327
-0.0127038
-0.0131744
-0.0137667
-0.0145072
-0.0154227
-0.0165395
-0.017878
-0.0194429
-0.0212061
-0.0230861
-0.0249258
-0.0264797
-0.0274209
-0.0273626
-0.0260012
-0.0231347
-0.0188323
-0.0135198
-0.00801571
-0.00343547
-0.000852301
-0.000740895
-0.00295497
-0.00792486
-0.0122962
-0.0131271
-0.0135546
-0.0138782
-0.014191
-0.0145418
-0.0149811
-0.0155532
-0.0162974
-0.0172537
-0.0184648
-0.0199759
-0.0218281
-0.0240456
-0.0266138
-0.0294504
-0.0323745
-0.0350858
-0.0371597
-0.0380736
-0.0373763
-0.0346722
-0.0298664
-0.023285
-0.0157949
-0.0088029
-0.00393036
-0.00226128
-0.00408294
-0.0102193
-0.0145684
-0.0154593
-0.0158978
-0.0162132
-0.0165147
-0.0168666
-0.0173345
-0.0179759
-0.0188433
-0.0199908
-0.0214784
-0.0233709
-0.0257315
-0.0286057
-0.0319947
-0.0358195
-0.0398815
-0.0438334
-0.0471681
-0.0492386
-0.0494696
-0.0472482
-0.0422827
-0.034716
-0.0253289
-0.0156849
-0.00792808
-0.00393332
-0.004774
-0.0120845
-0.0170307
-0.018011
-0.018446
-0.0187156
-0.0189556
-0.0192526
-0.0196919
-0.0203465
-0.0212824
-0.0225678
-0.0242784
-0.0264978
-0.0293093
-0.0327777
-0.0369189
-0.0416578
-0.0467826
-0.05191
-0.0564825
-0.0598042
-0.061016
-0.0594898
-0.0547044
-0.04656
-0.0356212
-0.0234091
-0.012425
-0.0053835
-0.00450681
-0.0128154
-0.0197073
-0.0208217
-0.0212248
-0.021386
-0.0214858
-0.0216439
-0.0219708
-0.0225571
-0.0234815
-0.0248242
-0.0266741
-0.0291294
-0.032289
-0.0362318
-0.040983
-0.0464687
-0.0524664
-0.0585673
-0.0641687
-0.0685045
-0.0706924
-0.0699201
-0.0655183
-0.0571569
-0.0451127
-0.0306734
-0.016429
-0.00580181
-0.00243254
-0.0112706
-0.0226582
-0.0239689
-0.0242845
-0.0242347
-0.024077
-0.023979
-0.0240826
-0.0244961
-0.0253088
-0.0266093
-0.028495
-0.0310733
-0.034452
-0.0387164
-0.0438937
-0.0499052
-0.0565171
-0.0633027
-0.0696359
-0.0747015
-0.0775913
-0.077393
-0.0733299
-0.0648791
-0.0520323
-0.0357292
-0.0183774
-0.00382758
0.00274837
-0.00571677
-0.0260153
-0.0275941
-0.0277129
-0.0272859
-0.0267011
-0.0261924
-0.0259369
-0.0260574
-0.0266486
-0.0278016
-0.0296167
-0.0322036
-0.0356715
-0.0401038
-0.0455206
-0.0518307
-0.058784
-0.0659406
-0.0726817
-0.0781256
-0.081344
-0.0813436
-0.0773031
-0.0685494
-0.0548383
-0.0367508
-0.0163417
0.00242883
0.0129123
0.0063278
-0.0300578
-0.0319464
-0.0316496
-0.0305767
-0.0293265
-0.028214
-0.0274458
-0.027149
-0.0274138
-0.0283254
-0.0299793
-0.0324802
-0.0359314
-0.0404058
-0.0459096
-0.0523349
-0.0594121
-0.0666747
-0.0734531
-0.078879
-0.0819722
-0.0817498
-0.0772263
-0.0676322
-0.0525371
-0.0322297
-0.00837101
0.0152535
0.0306417
0.0282213
-0.0353777
-0.0374488
-0.0362966
-0.0341481
-0.0319074
-0.029962
-0.0285221
-0.027696
-0.0275522
-0.0281577
-0.029594
-0.0319513
-0.0353211
-0.0397561
-0.0452398
-0.0516387
-0.0586558
-0.065797
-0.0723596
-0.0774495
-0.0800384
-0.0790427
-0.0733864
-0.0621574
-0.0447681
-0.0212699
0.00707927
0.0371181
0.0592609
0.0641411
-0.0432674
-0.0447969
-0.0418944
-0.0380021
-0.0343452
-0.0313113
-0.0290522
-0.0276168
-0.0270246
-0.027307
-0.0285183
-0.0307274
-0.0339992
-0.0383615
-0.0437675
-0.0500506
-0.0568802
-0.0637289
-0.0698576
-0.0743255
-0.0760335
-0.0737748
-0.0663293
-0.0525904
-0.0317474
-0.00364691
0.0307362
0.0699732
0.102204
0.118818
-0.0568495
-0.0551228
-0.0486357
-0.041993
-0.0363827
-0.0319941
-0.0288058
-0.0267434
-0.0257358
-0.0257527
-0.0268029
-0.0289191
-0.0321322
-0.0364361
-0.0417479
-0.0478629
-0.0544135
-0.0608348
-0.0663475
-0.0699593
-0.0704938
-0.0665818
-0.0568187
-0.0398222
-0.0144402
0.0199339
0.0629727
0.113544
0.161009
0.199109
-0.0840475
-0.0697438
-0.0565822
-0.045709
-0.0374607
-0.0314938
-0.0273759
-0.0247963
-0.0235301
-0.0234458
-0.0244854
-0.0266332
-0.0298796
-0.034181
-0.0394175
-0.0453486
-0.0515714
-0.0574858
-0.0622712
-0.0648842
-0.0640973
-0.0583876
-0.0461562
-0.025631
0.00486681
0.0467963
0.100855
0.16724
0.236314
0.318746
-0.136376
-0.0851224
-0.0634917
-0.0467568
-0.0354272
-0.0281442
-0.0235957
-0.0209884
-0.0198797
-0.0200314
-0.0213242
-0.0237022
-0.0271253
-0.0315243
-0.0367561
-0.0425597
-0.0485158
-0.0540114
-0.0582099
-0.0600243
-0.0581056
-0.0510672
-0.0370422
-0.0138551
0.0208506
0.0700139
0.136678
0.225791
0.333889
0.503717
-0.308934
-0.0948281
-0.046199
-0.0280895
-0.0181731
-0.0131081
-0.0110176
-0.0105773
-0.0111919
-0.0126768
-0.0149944
-0.0181498
-0.0221467
-0.0269498
-0.0324432
-0.0383911
-0.0444
-0.0498865
-0.0540558
-0.0558935
-0.054158
-0.0472148
-0.0331942
-0.00997296
0.0252277
0.0768385
0.151482
0.26674
0.442039
0.785918
)
;

boundaryField
{
    movingWall
    {
        type            zeroGradient;
    }
    fixedWalls
    {
        type            zeroGradient;
    }
    frontAndBack
    {
        type            empty;
    }
}


// ************************************************************************* //
