/*--------------------------------*- C++ -*----------------------------------*\
  =========                 |
  \\      /  F ield         | OpenFOAM: The Open Source CFD Toolbox
   \\    /   O peration     | Website:  https://openfoam.org
    \\  /    A nd           | Version:  7
     \\/     M anipulation  |
\*---------------------------------------------------------------------------*/
FoamFile
{
    version     2.0;
    format      ascii;
    class       volScalarField;
    location    "9.8";
    object      p;
}
// * * * * * * * * * * * * * * * * * * * * * * * * * * * * * * * * * * * * * //

dimensions      [0 2 -2 0 0 0 0];

internalField   nonuniform List<scalar> 
900
(
2.43803e-07
-0.000156699
-0.000368668
-0.000564434
-0.000710725
-0.000786334
-0.000783099
-0.00069872
-0.000532308
-0.000282799
5.08987e-05
0.000468714
0.000967622
0.00153968
0.00217027
0.00283698
0.00350951
0.00415084
0.0047204
0.00517841
0.00549141
0.00563797
0.00561348
0.00543269
0.00512956
0.00475181
0.00436245
0.00402656
0.00380942
0.00376845
0.000154533
-6.71185e-06
-0.000157345
-0.000289639
-0.000381957
-0.000418919
-0.000393729
-0.000303224
-0.000145327
8.1663e-05
0.000378869
0.000745973
0.00117993
0.00167353
0.00221395
0.00278166
0.00335232
0.0038947
0.00437541
0.00476209
0.00502795
0.00515659
0.00514571
0.00500898
0.00477538
0.00448589
0.00418869
0.00392949
0.00375824
0.00372456
0.000377086
0.000137764
-1.70236e-05
-0.000133213
-0.000206754
-0.0002283
-0.000194719
-0.000104571
4.38244e-05
0.000252437
0.00052304
0.000856287
0.00125044
0.00169991
0.00219387
0.00271622
0.00324352
0.00374704
0.00419523
0.00455689
0.00480584
0.00492576
0.00491405
0.00478367
0.00456216
0.00428804
0.00400563
0.00375839
0.00357983
0.00351828
0.000587987
0.000257115
7.71895e-05
-4.1493e-05
-0.000110572
-0.000127101
-9.25252e-05
-8.01123e-06
0.000127237
0.000315458
0.000559506
0.000861739
0.00122261
0.00163903
0.00210276
0.00259937
0.00310748
0.00359875
0.00404096
0.00440113
0.00465051
0.00477006
0.00475495
0.0046168
0.00438281
0.00409163
0.00378742
0.0035136
0.00330584
0.00318504
0.000737494
0.000311645
9.99318e-05
-2.96528e-05
-0.000102631
-0.000121785
-9.30118e-05
-2.00865e-05
9.69298e-05
0.000260712
0.000475551
0.000746041
0.00107547
0.00146393
0.0019062
0.00238991
0.00289582
0.00339492
0.003853
0.00423323
0.00450178
0.0046342
0.0046211
0.00447138
0.00421184
0.0038828
0.00353139
0.00320532
0.00294173
0.00274446
0.000778273
0.000261184
1.52768e-05
-0.000130487
-0.000213961
-0.000242936
-0.000227288
-0.000173081
-8.10009e-05
5.23068e-05
0.000232911
0.000468131
0.000764747
0.00112683
0.00155288
0.00203312
0.0025519
0.00307849
0.00357602
0.00400215
0.00431529
0.00448235
0.00448606
0.00432996
0.00403934
0.00365695
0.00323586
0.00283277
0.00248968
0.0021961
0.000671657
7.06189e-05
-0.00020919
-0.000374232
-0.000473479
-0.00051918
-0.000524688
-0.000497981
-0.000440126
-0.000346869
-0.000210079
-1.92582e-05
0.000236557
0.000566343
0.000973328
0.00145087
0.00199391
0.00256531
0.00312674
0.00362957
0.00402179
0.00425749
0.00430659
0.00416276
0.00384673
0.0034033
0.00289404
0.00238969
0.00194258
0.00152901
0.00038437
-0.000291745
-0.00060379
-0.000790169
-0.000910087
-0.000979914
-0.00101612
-0.00102834
-0.00101792
-0.00097965
-0.000903198
-0.000774507
-0.000577703
-0.000297596
7.76012e-05
0.00055272
0.00111097
0.0017361
0.00238471
0.00300033
0.00351785
0.00387331
0.00401667
0.00392405
0.00360559
0.00310541
0.00249532
0.00186609
0.00128663
0.000718085
-0.000113074
-0.000854433
-0.00119663
-0.00140645
-0.00155259
-0.00165542
-0.00173438
-0.0018008
-0.00185644
-0.00189543
-0.0019054
-0.00186858
-0.0017634
-0.00156676
-0.00125699
-0.000818714
-0.000254502
0.000424817
0.00117908
0.00194729
0.00264965
0.00319828
0.00351331
0.00354132
0.00327071
0.00273797
0.00202487
0.00124909
0.000504418
-0.000266126
-0.000846281
-0.00164207
-0.00201238
-0.0022484
-0.00242766
-0.00257457
-0.00271169
-0.00285235
-0.0029994
-0.00314698
-0.00328135
-0.0033813
-0.00341898
-0.0033615
-0.00317381
-0.00282466
-0.00229753
-0.001586
-0.000721143
0.000236887
0.00119463
0.00203493
0.00263595
0.00289729
0.00276689
0.00225917
0.00146083
0.000523375
-0.000423176
-0.0014571
-0.00183606
-0.00267432
-0.00307084
-0.00333675
-0.00355759
-0.0037621
-0.00397633
-0.00421644
-0.00448742
-0.00478479
-0.00509473
-0.00539352
-0.005647
-0.00581099
-0.00583341
-0.00566054
-0.00524889
-0.00455819
-0.00360395
-0.00243362
-0.00114817
0.000103897
0.00114632
0.0018092
0.00197146
0.00159909
0.000769057
-0.000329237
-0.00151469
-0.00288908
-0.00309699
-0.00396462
-0.00438557
-0.00468574
-0.00495787
-0.00523539
-0.0055486
-0.00591762
-0.00635128
-0.00684843
-0.00739729
-0.00797333
-0.00853692
-0.00903169
-0.00938519
-0.00951211
-0.00932335
-0.00876402
-0.00778567
-0.0064134
-0.00474444
-0.00295377
-0.00128022
1.25538e-05
0.000696207
0.000645331
-0.000104301
-0.00133077
-0.00278526
-0.00459277
-0.00463587
-0.00551884
-0.00596231
-0.0063012
-0.00663449
-0.00700087
-0.00743587
-0.00796511
-0.00860334
-0.00935535
-0.0102142
-0.0111571
-0.0121407
-0.0130966
-0.0139292
-0.0145186
-0.014729
-0.0144349
-0.013547
-0.0120356
-0.00997056
-0.00753718
-0.00503382
-0.00283592
-0.00132191
-0.000769544
-0.00124095
-0.00250783
-0.00424202
-0.00658889
-0.00645033
-0.00733434
-0.00779787
-0.00817885
-0.00858149
-0.00905042
-0.00962756
-0.0103458
-0.0112283
-0.0122885
-0.0135275
-0.0149275
-0.0164442
-0.0179979
-0.0194691
-0.0206982
-0.0214929
-0.0216503
-0.0210307
-0.0195108
-0.0171088
-0.0139926
-0.0104992
-0.00711555
-0.00440471
-0.00286854
-0.00275489
-0.00389037
-0.00587642
-0.00887753
-0.00852798
-0.00939952
-0.00987962
-0.0103033
-0.0107791
-0.0113584
-0.0120909
-0.0130186
-0.0141751
-0.0155856
-0.0172623
-0.0191955
-0.0213427
-0.0236154
-0.0258706
-0.0279078
-0.0294798
-0.0303165
-0.0301487
-0.0288044
-0.0262088
-0.0224717
-0.0179267
-0.0131422
-0.00887139
-0.00590318
-0.00478451
-0.00550524
-0.00765153
-0.0114212
-0.0108466
-0.0116946
-0.0121861
-0.0126483
-0.0131933
-0.0138804
-0.0147685
-0.0159105
-0.0173526
-0.0191337
-0.0212793
-0.0237907
-0.0266292
-0.0297003
-0.0328398
-0.035809
-0.0383049
-0.0399822
-0.0404814
-0.0395364
-0.0369658
-0.0327871
-0.0272758
-0.0210199
-0.0149226
-0.0100831
-0.00745897
-0.00735935
-0.00948253
-0.01412
-0.0133756
-0.0141937
-0.014689
-0.0151781
-0.0157766
-0.0165534
-0.0175786
-0.0189176
-0.0206305
-0.0227711
-0.0253795
-0.0284685
-0.0320053
-0.0358907
-0.0399431
-0.0438905
-0.0473806
-0.0500024
-0.051317
-0.0509741
-0.048677
-0.0443275
-0.0380906
-0.0304915
-0.0224932
-0.015461
-0.0108287
-0.00940548
-0.0112088
-0.0167774
-0.016079
-0.0168684
-0.0173567
-0.0178507
-0.018471
-0.019299
-0.0204188
-0.0219099
-0.0238472
-0.0262994
-0.0293209
-0.0329354
-0.0371152
-0.0417582
-0.0466681
-0.0515457
-0.0559995
-0.0595714
-0.0617728
-0.0621479
-0.0603331
-0.0561067
-0.0494884
-0.0408615
-0.0311279
-0.021801
-0.0147669
-0.0114833
-0.0125552
-0.0190579
-0.0189205
-0.019694
-0.0201597
-0.020622
-0.0212117
-0.0220274
-0.0231714
-0.0247398
-0.0268227
-0.0295027
-0.0328463
-0.0368861
-0.041598
-0.0468761
-0.0525124
-0.0581871
-0.06348
-0.0679014
-0.070935
-0.0720478
-0.0708308
-0.0669597
-0.0603058
-0.0510628
-0.0399578
-0.0284869
-0.0188625
-0.0132384
-0.0130829
-0.0204305
-0.0218709
-0.0226574
-0.0230772
-0.0234516
-0.0239318
-0.0246429
-0.0257118
-0.0272542
-0.0293757
-0.0321709
-0.0357155
-0.0400473
-0.0451425
-0.0508903
-0.0570725
-0.0633543
-0.0692971
-0.0743888
-0.078089
-0.079862
-0.0792346
-0.075819
-0.0693639
-0.0598693
-0.0478186
-0.0345323
-0.0223479
-0.0140349
-0.0121299
-0.0200975
-0.0249189
-0.0257684
-0.0261053
-0.0263071
-0.0265662
-0.0270487
-0.0279154
-0.0293058
-0.0313402
-0.0341229
-0.0377344
-0.0422134
-0.0475323
-0.053571
-0.0601071
-0.066788
-0.0731683
-0.0787205
-0.0828931
-0.0851472
-0.0849749
-0.0819524
-0.0757384
-0.0661702
-0.0534797
-0.0387092
-0.0241116
-0.0128877
-0.00874203
-0.0168974
-0.0280901
-0.029077
-0.0292669
-0.0291687
-0.0290538
-0.0291506
-0.0296654
-0.0307644
-0.0325814
-0.0352259
-0.0387776
-0.0432709
-0.048669
-0.0548371
-0.0615622
-0.0684511
-0.0750711
-0.0808776
-0.0853166
-0.0878422
-0.0879034
-0.0850644
-0.0789212
-0.0691865
-0.0558822
-0.0397483
-0.0228029
-0.0084566
-0.00159961
-0.0091806
-0.0314823
-0.0326986
-0.0326231
-0.0320315
-0.0313375
-0.0308595
-0.0308586
-0.0315276
-0.0330089
-0.0354096
-0.0388018
-0.0432086
-0.0485815
-0.0547744
-0.0615376
-0.0685026
-0.0752054
-0.081098
-0.0856042
-0.0881522
-0.0882037
-0.0852428
-0.0788224
-0.068548
-0.0542925
-0.0365275
-0.0169886
0.0008896
0.011063
0.00534437
-0.0353433
-0.036858
-0.0362879
-0.0349057
-0.0333639
-0.0320946
-0.031414
-0.031532
-0.0325879
-0.0346757
-0.0378506
-0.042115
-0.0474009
-0.0535465
-0.060282
-0.067229
-0.0739054
-0.0797516
-0.0841672
-0.0865448
-0.0862955
-0.0828396
-0.0756434
-0.0642323
-0.0483407
-0.0282179
-0.00531939
0.0170114
0.0315772
0.0297734
-0.0402427
-0.0419594
-0.040443
-0.0378161
-0.0350836
-0.0327909
-0.0312842
-0.0307655
-0.0313498
-0.0331031
-0.0360498
-0.0401643
-0.0453517
-0.0514275
-0.0581032
-0.0649799
-0.0715586
-0.0772584
-0.081445
-0.0834564
-0.0826256
-0.0782745
-0.0697499
-0.0564469
-0.0379603
-0.0144104
0.0132094
0.0419251
0.0629218
0.0680026
-0.047479
-0.048704
-0.0453383
-0.0407897
-0.0364476
-0.0329003
-0.0304581
-0.0292673
-0.029387
-0.0308327
-0.0335855
-0.0375816
-0.0426926
-0.048706
-0.0553092
-0.0620827
-0.068506
-0.0739706
-0.0777989
-0.0792611
-0.0775885
-0.0719567
-0.0615541
-0.0455787
-0.0234106
0.00504211
0.0388787
0.0771495
0.108149
0.12453
-0.0602579
-0.0583122
-0.0512701
-0.0438135
-0.0373634
-0.0323454
-0.0289107
-0.0270763
-0.0267993
-0.0280172
-0.0306508
-0.0345883
-0.0396627
-0.04563
-0.0521522
-0.0587883
-0.0649951
-0.070134
-0.0734813
-0.0742378
-0.0715232
-0.0643227
-0.0516222
-0.0323403
-0.00551864
0.0294003
0.0721867
0.121901
0.168408
0.206135
-0.0867515
-0.0723633
-0.0585584
-0.0467606
-0.0375713
-0.0309058
-0.0265183
-0.0241711
-0.0236532
-0.0247893
-0.0274233
-0.0313891
-0.0364805
-0.0424246
-0.0488619
-0.0553341
-0.0612792
-0.0660309
-0.068817
-0.0687669
-0.0649068
-0.0561268
-0.0410778
-0.01832
0.0136234
0.0561648
0.110116
0.175895
0.244168
0.326453
-0.138787
-0.0876825
-0.065207
-0.0475039
-0.0351683
-0.02714
-0.0222882
-0.01989
-0.0195058
-0.020846
-0.0236898
-0.027832
-0.0330428
-0.0390359
-0.0454453
-0.0518098
-0.0575646
-0.062037
-0.0644347
-0.0638325
-0.059088
-0.0491643
-0.0324571
-0.00712128
0.0290071
0.0788135
0.145446
0.234132
0.341709
0.511341
-0.311743
-0.0975733
-0.0482225
-0.0290401
-0.0180375
-0.0121433
-0.00965204
-0.00931578
-0.0105474
-0.0131163
-0.0168896
-0.0217311
-0.027465
-0.0338494
-0.0405557
-0.0471541
-0.053105
-0.0577545
-0.0603319
-0.0599602
-0.0556626
-0.0459172
-0.0293267
-0.00397493
0.0327344
0.0851411
0.15992
0.274875
0.449747
0.793455
)
;

boundaryField
{
    movingWall
    {
        type            zeroGradient;
    }
    fixedWalls
    {
        type            zeroGradient;
    }
    frontAndBack
    {
        type            empty;
    }
}


// ************************************************************************* //
