/*--------------------------------*- C++ -*----------------------------------*\
  =========                 |
  \\      /  F ield         | OpenFOAM: The Open Source CFD Toolbox
   \\    /   O peration     | Website:  https://openfoam.org
    \\  /    A nd           | Version:  7
     \\/     M anipulation  |
\*---------------------------------------------------------------------------*/
FoamFile
{
    version     2.0;
    format      ascii;
    class       surfaceScalarField;
    location    "9.8";
    object      phi;
}
// * * * * * * * * * * * * * * * * * * * * * * * * * * * * * * * * * * * * * //

dimensions      [0 3 -1 0 0 0 0];

internalField   nonuniform List<scalar> 
1740
(
7.31633e-07
-7.3186e-07
-2.59792e-07
9.91425e-07
-3.17534e-06
2.91555e-06
-7.6567e-06
4.48136e-06
-1.32189e-05
5.5622e-06
-1.94378e-05
6.21888e-06
-2.59911e-05
6.55329e-06
-3.26379e-05
6.64688e-06
-3.91811e-05
6.5432e-06
-4.54317e-05
6.25055e-06
-5.11834e-05
5.75175e-06
-5.61998e-05
5.01636e-06
-6.02137e-05
4.01392e-06
-6.2941e-05
2.72731e-06
-6.41062e-05
1.16516e-06
-6.34777e-05
-6.28527e-07
-6.09084e-05
-2.56925e-06
-5.63824e-05
-4.526e-06
-5.00478e-05
-6.33458e-06
-4.22347e-05
-7.81315e-06
-3.34482e-05
-8.78647e-06
-2.43329e-05
-9.11528e-06
-1.56083e-05
-8.72461e-06
-7.983e-06
-7.62534e-06
-2.05852e-06
-5.92448e-06
1.77146e-06
-3.82998e-06
3.38462e-06
-1.61317e-06
2.99041e-06
3.94211e-07
1.36291e-06
1.62749e-06
1.36291e-06
-9.9124e-07
2.5938e-07
-5.86471e-06
5.8649e-06
-1.48005e-05
1.18514e-05
-2.70551e-05
1.6736e-05
-4.17365e-05
2.02436e-05
-5.79889e-05
2.24713e-05
-7.5074e-05
2.36383e-05
-9.23669e-05
2.39398e-05
-0.000109311
2.34877e-05
-0.000125367
2.23061e-05
-0.000139968
2.03525e-05
-0.000152503
1.7552e-05
-0.000162326
1.38364e-05
-0.000168783
9.18416e-06
-0.000171271
3.65383e-06
-0.000169333
-2.56643e-06
-0.000162696
-9.20661e-06
-0.000151403
-1.5819e-05
-0.000135853
-2.18847e-05
-0.00011683
-2.6836e-05
-9.54842e-05
-3.01324e-05
-7.32515e-05
-3.13481e-05
-5.17196e-05
-3.02564e-05
-3.24498e-05
-2.68952e-05
-1.67761e-05
-2.15981e-05
-5.61666e-06
-1.49895e-05
7.20275e-07
-7.95011e-06
2.73589e-06
-1.62141e-06
1.6969e-06
2.66647e-06
3.05981e-06
-3.17804e-06
3.43743e-06
-1.26983e-05
1.53851e-05
-2.77867e-05
2.69398e-05
-4.73443e-05
3.62935e-05
-7.01633e-05
4.30627e-05
-9.51042e-05
4.74122e-05
-0.000121153
4.96873e-05
-0.000147412
5.01986e-05
-0.000173049
4.9125e-05
-0.000197245
4.65019e-05
-0.000219148
4.22552e-05
-0.000237858
3.62622e-05
-0.000252444
2.84222e-05
-0.000261989
1.87294e-05
-0.000265678
7.34282e-06
-0.00026287
-5.37408e-06
-0.000253234
-1.88425e-05
-0.000236847
-3.22068e-05
-0.000214266
-4.44658e-05
-0.00018657
-5.45319e-05
-0.000155333
-6.13693e-05
-0.000122527
-6.41541e-05
-9.03488e-05
-6.24342e-05
-6.09869e-05
-5.62572e-05
-3.6346e-05
-4.6239e-05
-1.77763e-05
-3.35592e-05
-5.82921e-06
-1.98972e-05
-9.52019e-08
-7.35542e-06
9.95473e-07
1.5758e-06
4.05528e-06
-5.35639e-06
8.79382e-06
-1.95032e-05
2.95319e-05
-4.06703e-05
4.8107e-05
-6.71902e-05
6.28134e-05
-9.75243e-05
7.33968e-05
-0.000130301
8.01892e-05
-0.000164314
8.37e-05
-0.000198478
8.43626e-05
-0.00023177
8.2417e-05
-0.000263167
7.7899e-05
-0.000291605
7.06927e-05
-0.000315962
6.06195e-05
-0.000335085
4.75451e-05
-0.000347843
3.14874e-05
-0.000353219
1.27189e-05
-0.000350417
-8.17591e-06
-0.000338983
-3.02766e-05
-0.000318947
-5.22427e-05
-0.000290909
-7.25036e-05
-0.000256099
-8.93423e-05
-0.000216366
-0.000101103
-0.000174085
-0.000106435
-0.000131967
-0.000104552
-9.27802e-05
-9.54436e-05
-5.90127e-05
-8.00065e-05
-3.25196e-05
-6.00522e-05
-1.42157e-05
-3.82012e-05
-3.86193e-06
-1.77092e-05
-2.33001e-08
-2.26285e-06
4.03198e-06
-7.36026e-06
1.61541e-05
-2.59173e-05
4.8089e-05
-5.28941e-05
7.50838e-05
-8.60107e-05
9.59299e-05
-0.000123374
0.00011076
-0.000163401
0.000120216
-0.000204743
0.000125042
-0.000246195
0.000125815
-0.000286615
0.000122837
-0.000324846
0.000116131
-0.000359675
0.000105521
-0.000389812
9.07563e-05
-0.000413915
7.16478e-05
-0.000430647
4.82196e-05
-0.000438772
2.08439e-05
-0.00043728
-9.6674e-06
-0.000425492
-4.20645e-05
-0.000403266
-7.44694e-05
-0.000371094
-0.000104675
-0.000330211
-0.000130225
-0.000282621
-0.000148693
-0.00023103
-0.000158026
-0.000178661
-0.000156922
-0.000128931
-0.000145173
-8.50465e-05
-0.000123891
-4.954e-05
-9.55587e-05
-2.38722e-05
-6.3869e-05
-8.15783e-06
-3.34235e-05
-1.0857e-06
-9.33499e-06
2.94628e-06
-9.16707e-06
2.53212e-05
-3.18157e-05
7.07376e-05
-6.42343e-05
0.000107502
-0.000103546
0.000135242
-0.000147509
0.000154723
-0.000194355
0.000167062
-0.000242631
0.000173318
-0.00029107
0.000174254
-0.000338472
0.000170238
-0.000383611
0.00016127
-0.000425179
0.00014709
-0.000461759
0.000127336
-0.000491836
0.000101725
-0.000513855
7.02379e-05
-0.000526304
3.32936e-05
-0.00052788
-8.09183e-06
-0.000517521
-5.24233e-05
-0.000494759
-9.72318e-05
-0.000459802
-0.000139632
-0.000413718
-0.000176309
-0.000358534
-0.000203877
-0.000297229
-0.000219331
-0.000233571
-0.00022058
-0.000171772
-0.000206972
-0.000115979
-0.000179684
-6.96802e-05
-0.000141857
-3.51405e-05
-9.84088e-05
-1.30112e-05
-5.55528e-05
-2.20193e-06
-2.01443e-05
7.4435e-07
-1.07879e-05
3.61091e-05
-3.7168e-05
9.71178e-05
-7.46015e-05
0.000144936
-0.00011967
0.00018031
-0.000169819
0.000204872
-0.000223124
0.000220367
-0.000278075
0.000228269
-0.000333391
0.000229571
-0.000387875
0.000224721
-0.000440289
0.000213684
-0.000489282
0.000196083
-0.000533342
0.000171396
-0.000570794
0.000139177
-0.000599835
9.92784e-05
-0.000618601
5.20597e-05
-0.000625442
-1.25069e-06
-0.000618677
-5.91885e-05
-0.000597381
-0.000118527
-0.000561256
-0.000175757
-0.000510993
-0.000226572
-0.00044847
-0.000266399
-0.000376843
-0.000290958
-0.000300443
-0.00029698
-0.000224434
-0.000282981
-0.000154204
-0.000249915
-9.45689e-05
-0.000201492
-4.89684e-05
-0.000144009
-1.88597e-05
-8.56615e-05
-3.49174e-06
-3.55123e-05
-2.7474e-06
-1.22283e-05
4.83373e-05
-4.19528e-05
0.000126842
-8.39259e-05
0.000186909
-0.000134266
0.000230651
-0.00019016
0.000260766
-0.00024957
0.000279777
-0.000310973
0.000289671
-0.000373128
0.000291726
-0.000434892
0.000286486
-0.000495075
0.000273867
-0.00055233
0.000253337
-0.000605085
0.000224152
-0.000651516
0.000185608
-0.000689557
0.00013732
-0.00071698
7.94827e-05
-0.000731415
1.31846e-05
-0.000730861
-5.97432e-05
-0.00071347
-0.000135917
-0.000678252
-0.000210976
-0.00062528
-0.000279544
-0.000556047
-0.000335632
-0.0004737
-0.000373305
-0.000383071
-0.000387609
-0.00029039
-0.000375662
-0.000202599
-0.000337706
-0.000126319
-0.000277772
-6.66766e-05
-0.000203652
-2.63477e-05
-0.00012599
-5.12884e-06
-5.67312e-05
-7.87624e-06
-1.34776e-05
6.18149e-05
-4.61213e-05
0.000159486
-9.21001e-05
0.000232888
-0.000147159
0.00028571
-0.000208286
0.000321893
-0.000273382
0.000344873
-0.000340953
0.000357242
-0.000409846
0.000360619
-0.000479027
0.000355666
-0.000547401
0.000342241
-0.000613676
0.000319613
-0.00067626
0.000286735
-0.000733198
0.000242547
-0.000782161
0.000186282
-0.000820482
0.000117804
-0.000845241
3.79438e-05
-0.000853631
-5.13536e-05
-0.000842955
-0.000146593
-0.000811275
-0.000242655
-0.000757766
-0.000333052
-0.000683216
-0.000410183
-0.000590453
-0.000466068
-0.000484593
-0.000493469
-0.000372906
-0.000487349
-0.000264147
-0.000446465
-0.000167277
-0.000374642
-8.98028e-05
-0.000281126
-3.62453e-05
-0.000179548
-7.33471e-06
-8.56418e-05
-1.52109e-05
-1.45101e-05
7.6325e-05
-4.95909e-05
0.000194567
-9.8962e-05
0.000282259
-0.000158088
0.000344836
-0.000223822
0.000387626
-0.000294045
0.000415096
-0.000367335
0.000430533
-0.000442667
0.00043595
-0.000519156
0.000432156
-0.000595854
0.000418938
-0.000671567
0.000395326
-0.000744727
0.000359896
-0.000813291
0.000311111
-0.000874695
0.000247685
-0.000925863
0.000168973
-0.000963296
7.53761e-05
-0.000983392
-3.12576e-05
-0.000982468
-0.000147517
-0.000957502
-0.000267621
-0.000906501
-0.000384053
-0.000829167
-0.000487517
-0.000727554
-0.000567681
-0.000606613
-0.00061441
-0.000474383
-0.000619579
-0.000341499
-0.000579348
-0.000219782
-0.00049636
-0.000119985
-0.000380923
-4.94004e-05
-0.000250133
-1.03519e-05
-0.00012469
-2.55628e-05
-1.52899e-05
9.16149e-05
-5.22532e-05
0.00023153
-0.000104304
0.00033431
-0.000166718
0.00040725
-0.000236267
0.000457175
-0.000310851
0.000489679
-0.000389145
0.000508827
-0.000470276
0.000517082
-0.000553542
0.000515422
-0.000638171
0.000503567
-0.000723115
0.00048027
-0.000806878
0.000443659
-0.000887389
0.000391622
-0.000961921
0.000322217
-0.00102708
0.000234128
-0.00107884
0.000127141
-0.00111294
2.84586e-06
-0.00112469
-0.000135772
-0.00110996
-0.000282348
-0.00106539
-0.000428626
-0.0009892
-0.000563707
-0.000882088
-0.000674793
-0.000748137
-0.000748361
-0.000595505
-0.000772211
-0.000436414
-0.000738438
-0.000285869
-0.000646905
-0.000158851
-0.000507941
-6.67119e-05
-0.000342271
-1.44434e-05
-0.000176959
-4.00062e-05
-1.57777e-05
0.000107393
-5.39915e-05
0.000269744
-0.0001079
0.000388219
-0.000172676
0.000472026
-0.000245051
0.00052955
-0.000322962
0.00056759
-0.000405189
0.000591054
-0.000491019
0.000602911
-0.00057994
0.000604344
-0.000671377
0.000595005
-0.000764457
0.00057335
-0.000857811
0.000537013
-0.000949419
0.00048323
-0.00103651
0.000409303
-0.00111551
0.000313133
-0.00118215
0.000193783
-0.00123139
5.20782e-05
-0.00125819
-0.000108965
-0.00125717
-0.000283366
-0.00122357
-0.000462226
-0.00115385
-0.000633434
-0.00104671
-0.000781932
-0.000904431
-0.000890638
-0.000734214
-0.000942428
-0.000549007
-0.000923645
-0.000366853
-0.000829059
-0.000207855
-0.000666939
-8.91015e-05
-0.000461025
-1.99e-05
-0.00024616
-5.99063e-05
-1.59402e-05
0.000123333
-5.47058e-05
0.00030851
-0.000109551
0.000443064
-0.000175613
0.000538089
-0.000249612
0.000603548
-0.000329515
0.000647494
-0.000414196
0.000675734
-0.000503079
0.000691795
-0.000595832
0.000697097
-0.000692074
0.000691246
-0.000791125
0.0006724
-0.00089179
0.000637679
-0.000992195
0.000583634
-0.00108967
0.000506776
-0.0011807
0.000404161
-0.00126095
0.000274039
-0.00132534
0.000116464
-0.00136821
-6.60927e-05
-0.00138366
-0.000267916
-0.00136563
-0.000480261
-0.00130867
-0.00069039
-0.001209
-0.000881602
-0.00106606
-0.00103358
-0.000884621
-0.00112387
-0.000676796
-0.00113147
-0.00046271
-0.00104314
-0.000268017
-0.000861633
-0.000117451
-0.000611591
-2.70411e-05
-0.00033657
-8.69473e-05
-1.57609e-05
0.000139094
-5.43449e-05
0.000347094
-0.000109136
0.000497855
-0.000175289
0.000604242
-0.000249509
0.000677767
-0.000329774
0.00072776
-0.000415008
0.000760968
-0.000504738
0.000781525
-0.000598772
0.00079113
-0.0006969
0.000789375
-0.00079864
0.000774141
-0.000903019
0.000742057
-0.0010084
0.00068902
-0.0011124
0.000610773
-0.0012118
0.000503564
-0.0013026
0.000364836
-0.00138004
0.000193906
-0.00143829
-7.84465e-06
-0.00147164
-0.00023457
-0.00147297
-0.000478929
-0.00143521
-0.000728151
-0.00135184
-0.000964974
-0.0012186
-0.00116682
-0.0010362
-0.00130627
-0.000813701
-0.00135396
-0.00057127
-0.00128558
-0.00033949
-0.00109341
-0.000152475
-0.000798606
-3.62024e-05
-0.000452843
-0.00012315
-1.52524e-05
0.000154346
-5.29421e-05
0.000384783
-0.000106683
0.000551596
-0.000171664
0.000669223
-0.000244555
0.000750658
-0.0003233
0.000806505
-0.000406822
0.00084449
-0.000494692
0.000869394
-0.000586806
0.000883244
-0.000683094
0.000885663
-0.000783265
0.000874312
-0.000886603
0.000845396
-0.000991822
0.000794238
-0.00109697
0.000715925
-0.00119942
0.000606012
-0.00129582
0.000461238
-0.00138209
0.000280171
-0.00145351
6.3574e-05
-0.00150395
-0.000184132
-0.0015267
-0.000456176
-0.00151346
-0.000741386
-0.00145521
-0.00102322
-0.00134358
-0.00127845
-0.00117382
-0.00147603
-0.000949414
-0.00157837
-0.000687381
-0.00154761
-0.000421002
-0.00135979
-0.00019452
-0.00102509
-4.7706e-05
-0.000599657
-0.000170856
-1.44688e-05
0.000168815
-5.06533e-05
0.000420968
-0.000102432
0.000603375
-0.000165002
0.000731793
-0.000234953
0.000820608
-0.000310139
0.000881691
-0.000389424
0.000923776
-0.000472366
0.000952337
-0.000558902
0.00096978
-0.000649065
0.000975826
-0.000742754
0.000968
-0.000839549
0.000942192
-0.000938603
0.000893292
-0.00103858
0.000815898
-0.00113762
0.000705059
-0.00123338
0.000556999
-0.00132293
0.000369713
-0.00140266
0.00014331
-0.00146748
-0.000119312
-0.00151135
-0.000412303
-0.00152568
-0.000727065
-0.00149968
-0.00104922
-0.00142118
-0.00135694
-0.0012793
-0.00161791
-0.0010697
-0.00178797
-0.000802417
-0.00181489
-0.00050926
-0.00165295
-0.000243304
-0.00129104
-6.18179e-05
-0.000781144
-0.000232674
-1.35186e-05
0.000182334
-4.77961e-05
0.000455245
-9.6905e-05
0.000652483
-0.000155965
0.000790853
-0.000221414
0.000886058
-0.000290968
0.000951244
-0.000363388
0.000996196
-0.00043818
0.00102713
-0.00051529
0.00104689
-0.000594843
0.00105538
-0.000676936
0.00105009
-0.000761495
0.00102675
-0.000848195
0.000979992
-0.000936432
0.000904135
-0.00102532
0.00079395
-0.00111369
0.000645369
-0.0012
0.000456022
-0.00128219
0.000225498
-0.00135662
-4.48855e-05
-0.00141871
-0.000350208
-0.00146047
-0.000685308
-0.00147057
-0.00103912
-0.00143411
-0.0013934
-0.00133441
-0.00171761
-0.00115811
-0.00196427
-0.00090462
-0.00206838
-0.000598616
-0.00195895
-0.000297667
-0.00159199
-7.87137e-05
-0.0010001
-0.000311387
-1.25795e-05
0.000194913
-4.4892e-05
0.000487558
-9.09723e-05
0.000698564
-0.000145694
0.000845574
-0.000205257
0.000945622
-0.000267205
0.00101319
-0.000330192
0.00105918
-0.000393675
0.00109061
-0.000457621
0.00111084
-0.000522266
0.00112002
-0.000587942
0.00111577
-0.000654978
0.00109379
-0.00072365
0.00104866
-0.000794178
0.000974662
-0.000866732
0.000866504
-0.000941407
0.000720044
-0.00101813
0.000532748
-0.00109643
0.000303798
-0.00117486
3.35453e-05
-0.00125004
-0.000275031
-0.00131586
-0.000619488
-0.00136174
-0.000993243
-0.0013717
-0.00138343
-0.00132481
-0.0017645
-0.00119897
-0.00209011
-0.000980593
-0.00228676
-0.000681213
-0.00225833
-0.000355403
-0.0019178
-9.84813e-05
-0.00125702
-0.000409869
-1.19206e-05
0.000206834
-4.27203e-05
0.000518358
-8.59241e-05
0.000741767
-0.000135881
0.000895531
-0.00018846
0.000998201
-0.00024104
0.00106577
-0.000292226
0.00111037
-0.000341496
0.00113988
-0.000388904
0.00115825
-0.000434862
0.00116598
-0.000480006
0.00116091
-0.000525135
0.00113892
-0.000571191
0.00109472
-0.000619266
0.00102274
-0.00067061
0.000917847
-0.000726551
0.000775985
-0.000788411
0.000594608
-0.000857232
0.000372618
-0.000933583
0.000109896
-0.00101568
-0.000192929
-0.0010997
-0.00053547
-0.00117699
-0.000915956
-0.00123243
-0.00132799
-0.00124324
-0.00175369
-0.00118059
-0.00215276
-0.00101761
-0.00244974
-0.000747821
-0.00252813
-0.000413263
-0.00225236
-0.000121195
-0.00154909
-0.000531064
-1.19425e-05
0.000218776
-4.24019e-05
0.000548817
-8.35622e-05
0.000782928
-0.000128835
0.000940803
-0.000173675
0.00104304
-0.000215388
0.00110749
-0.000252678
0.00114766
-0.000285196
0.0011724
-0.000313216
0.00118627
-0.000337437
0.0011902
-0.00035889
0.00118237
-0.000378914
0.00115894
-0.000399152
0.00111496
-0.000421569
0.00104515
-0.00044848
0.000944758
-0.000482302
0.000809807
-0.00052557
0.000637877
-0.000580657
0.000427705
-0.00064942
0.000178659
-0.000732239
-0.00011011
-0.000827247
-0.000440462
-0.000928527
-0.000814676
-0.00102357
-0.00123295
-0.00109058
-0.00168668
-0.00109737
-0.00214596
-0.00100587
-0.00254124
-0.000789201
-0.0027448
-0.00046718
-0.00257438
-0.000147054
-0.00186921
-0.000678118
-1.3262e-05
0.000232038
-4.5549e-05
0.000581104
-8.63389e-05
0.000823718
-0.000127548
0.000982013
-0.000164203
0.0010797
-0.000193761
0.00113704
-0.000215297
0.00116919
-0.000228886
0.00118599
-0.000235219
0.0011926
-0.000235425
0.00119041
-0.000231032
0.00117797
-0.00022397
0.00115188
-0.000216589
0.00110758
-0.000211601
0.00104017
-0.000212469
0.000945626
-0.000222336
0.000819674
-0.000244754
0.000660295
-0.000283055
0.000466006
-0.000340162
0.000235766
-0.000417996
-3.22767e-05
-0.000516508
-0.000341949
-0.00063274
-0.000698444
-0.000757966
-0.00110773
-0.000874048
-0.0015706
-0.000949547
-0.00207046
-0.000939408
-0.00255138
-0.00079713
-0.00288708
-0.000512507
-0.002859
-0.000176472
-0.00220525
-0.000854589
-1.68848e-05
0.000248923
-5.45299e-05
0.000618749
-9.75635e-05
0.000866751
-0.000135759
0.00102021
-0.000163888
0.00110782
-0.000179998
0.00115315
-0.000183981
0.00117318
-0.000176679
0.00117869
-0.000159448
0.00117537
-0.000134009
0.00116497
-0.000102464
0.00114643
-6.73636e-05
0.00111678
-3.17862e-05
0.001072
6.1281e-07
0.00100777
2.66779e-05
0.000919561
4.1589e-05
0.000804763
4.1249e-05
0.000660635
2.16792e-05
0.000485576
-2.04735e-05
0.000277919
-8.8146e-05
3.53958e-05
-0.000183051
-0.000247044
-0.000304833
-0.000576662
-0.000449058
-0.000963501
-0.000603177
-0.00141648
-0.000740628
-0.00193301
-0.000815052
-0.00247696
-0.000764347
-0.00293778
-0.000543881
-0.00307947
-0.000209899
-0.00253923
-0.00106449
-2.45546e-05
0.000273478
-7.29145e-05
0.000667109
-0.000121656
0.000915493
-0.000157897
0.00105645
-0.000176752
0.00112668
-0.000177649
0.00115405
-0.000161933
0.00115746
-0.000131652
0.00114841
-8.90898e-05
0.0011328
-3.66936e-05
0.00111257
2.28265e-05
0.00108691
8.63882e-05
0.00105322
0.000150453
0.00100793
0.000211065
0.000947156
0.000263517
0.000867108
0.000303447
0.000764833
0.000326197
0.000637885
0.000327411
0.000484362
0.000303073
0.000302256
0.000249844
8.86256e-05
0.000164796
-0.000161997
4.61759e-05
-0.000458042
-0.000105611
-0.000811714
-0.000284902
-0.00123719
-0.000473416
-0.0017445
-0.000629742
-0.00232063
-0.000683005
-0.00288452
-0.000554183
-0.00320829
-0.000246987
-0.00284643
-0.00131148
-3.94202e-05
0.000312898
-0.000106105
0.000733794
-0.000164223
0.000973611
-0.000198482
0.00109071
-0.000205797
0.00113399
-0.000188266
0.00113652
-0.000149542
0.00111874
-9.3364e-05
0.00109223
-2.31814e-05
0.00106262
5.77534e-05
0.00103164
0.000146177
0.000998483
0.000238577
0.000960816
0.000331065
0.000915446
0.000419337
0.000858884
0.000498695
0.00078775
0.000564365
0.000699163
0.000611571
0.000590678
0.00063577
0.000460163
0.000632755
0.000305272
0.000598685
0.000122696
0.000529723
-9.30343e-05
0.000422287
-0.000350606
0.000273003
-0.00066243
8.11487e-05
-0.00104533
-0.000145339
-0.00151801
-0.000376843
-0.00208913
-0.00054199
-0.00271937
-0.000532268
-0.00321801
-0.000284636
-0.00309406
-0.00159611
-6.71932e-05
0.000380091
-0.000161838
0.000828439
-0.000230987
0.00104276
-0.000259478
0.0011192
-0.000249016
0.00112353
-0.000206329
0.00109383
-0.000138421
0.00105083
-5.11897e-05
0.001005
5.06005e-05
0.000960831
0.00016295
0.000919289
0.000282175
0.000879258
0.000404574
0.000838417
0.000526206
0.000793814
0.000642805
0.000742286
0.00074979
0.000680765
0.00084245
0.000606504
0.000916055
0.000517073
0.00096601
0.000410208
0.000987887
0.000283395
0.000977318
0.000133265
0.000929569
-4.52848e-05
0.000839431
-0.000260469
0.000700539
-0.000523538
0.000506358
-0.000851154
0.000254423
-0.00126608
-4.03332e-05
-0.00179437
-0.000322875
-0.00243683
-0.000459445
-0.00308144
-0.000313977
-0.00323953
-0.00191009
-0.000117868
0.000497959
-0.000248924
0.000959496
-0.000322035
0.00111587
-0.000330717
0.00112788
-0.000286915
0.00107973
-0.000204683
0.0010116
-9.54488e-05
0.000941594
3.24657e-05
0.000877084
0.000173114
0.000820183
0.000322031
0.000770372
0.000475502
0.000725787
0.000630046
0.000683874
0.000782085
0.000641775
0.000927786
0.000596584
0.00106302
0.000545527
0.00118345
0.000486074
0.0012846
0.00041593
0.00136191
0.000332897
0.00141073
0.000234574
0.00142606
0.000117927
0.00140209
-2.13105e-05
0.00133224
-0.00019062
0.00120753
-0.000398825
0.00101699
-0.000660615
0.000749048
-0.000998136
0.000401508
-0.00144683
1.33822e-05
-0.00204871
-0.000304305
-0.00276376
-0.000321637
-0.00322219
-0.00223173
-0.000207423
0.000705382
-0.000366393
0.00111847
-0.000408655
0.00115813
-0.000358637
0.00107786
-0.000246978
0.000968071
-9.75847e-05
0.000862207
7.36867e-05
0.000770323
0.000256959
0.000693812
0.000446168
0.000630974
0.000637414
0.000579126
0.000827848
0.000535353
0.00101497
0.000496756
0.00119619
0.000460549
0.00136865
0.000424128
0.00152907
0.000385104
0.00167381
0.000341331
0.00179888
0.000290866
0.00189993
0.000231845
0.00197222
0.000162285
0.00201022
7.99284e-05
0.00200697
-1.80618e-05
0.00195485
-0.000138501
0.00184267
-0.000286647
0.00165635
-0.000474297
0.00137792
-0.000719706
0.00098897
-0.00105788
0.000491713
-0.00155145
-9.54686e-06
-0.0022625
-0.000264785
-0.00296696
-0.00249651
-0.000346303
0.00105169
-0.000440077
0.00121224
-0.000348111
0.00106617
-0.000156278
0.000886032
8.01924e-05
0.0007316
0.000332377
0.000610022
0.000585624
0.000517075
0.000833082
0.000446354
0.00107194
0.00039212
0.00130122
0.00034984
0.00152061
0.000315966
0.00172973
0.000287635
0.00192782
0.000262457
0.00211355
0.0002384
0.00228493
0.000213721
0.00243935
0.000186916
0.00257354
0.000156669
0.00268363
0.00012176
0.00276501
8.09007e-05
0.00281221
3.27299e-05
0.00281862
-2.44649e-05
0.00277456
-9.44423e-05
0.00266843
-0.000180514
0.0024843
-0.000290171
0.00220034
-0.000435745
0.00178732
-0.00064486
0.00121374
-0.000977863
0.000521811
-0.00157057
-1.9871e-05
-0.00242527
-0.00251638
-0.000307259
0.00135894
-5.96524e-05
0.000964633
0.000365156
0.000641357
0.000785492
0.000465695
0.0011709
0.000346195
0.00151717
0.000263752
0.00182655
0.000207695
0.00210375
0.000169149
0.00235397
0.000141901
0.00258178
0.000122036
0.00279072
0.00010702
0.00298327
9.50873e-05
0.00316079
8.49321e-05
0.00332364
7.55506e-05
0.00347122
6.61502e-05
0.00360204
5.609e-05
0.00371387
4.48439e-05
0.00380368
3.19456e-05
0.00386752
1.70623e-05
0.00389991
3.40965e-07
0.00389739
-2.19474e-05
0.00384934
-4.63921e-05
0.00374569
-7.68602e-05
0.00357132
-0.000115805
0.00330356
-0.000167989
0.00290651
-0.000247806
0.00232014
-0.000391494
0.00148677
-0.000737197
0.000505362
-0.00144387
-0.00201102
0.00135894
0.00232358
0.00296493
0.00343063
0.00377682
0.00404058
0.00424827
0.00441742
0.00455932
0.00468136
0.00478838
0.00488346
0.0049684
0.00504395
0.0051101
0.00516619
0.00521103
0.00524298
0.00526004
0.00526038
0.00523843
0.00519204
0.00511518
0.00499938
0.00483139
0.00458358
0.00419209
0.00345489
0.00201102
)
;

boundaryField
{
    movingWall
    {
        type            calculated;
        value           uniform 0;
    }
    fixedWalls
    {
        type            calculated;
        value           uniform 0;
    }
    frontAndBack
    {
        type            empty;
        value           nonuniform 0();
    }
}


// ************************************************************************* //
