/*--------------------------------*- C++ -*----------------------------------*\
  =========                 |
  \\      /  F ield         | OpenFOAM: The Open Source CFD Toolbox
   \\    /   O peration     | Website:  https://openfoam.org
    \\  /    A nd           | Version:  7
     \\/     M anipulation  |
\*---------------------------------------------------------------------------*/
FoamFile
{
    version     2.0;
    format      ascii;
    class       surfaceScalarField;
    location    "1.61";
    object      phi;
}
// * * * * * * * * * * * * * * * * * * * * * * * * * * * * * * * * * * * * * //

dimensions      [0 3 -1 0 0 0 0];

internalField   nonuniform List<scalar> 
3784
(
-0.00193746
0.00193746
-0.000837479
-0.00109998
0.000558122
-0.0013956
0.000643726
-8.56026e-05
0.000160232
0.000483494
-0.000750571
0.000910803
-0.00172971
0.000979135
-0.00181072
8.10153e-05
-0.000677462
-0.00113326
0.00101124
-0.0016887
0.00206852
-0.00105728
0.00186457
0.000203946
0.00072366
0.00114091
-0.000525496
0.00124916
-0.00106799
0.000542491
-0.000577198
-0.000490791
0.000532369
-0.00110957
0.00109323
-0.000560857
0.000500188
0.000593039
-0.000822465
0.00132265
-0.00195385
0.00113138
-0.00196163
7.78568e-06
-0.000597702
-0.00136393
0.00115797
-0.00175567
0.00212206
-0.000964088
0.00192687
0.000195189
0.000792635
0.00113424
-0.000508336
0.00130097
-0.00114002
0.000631687
-0.000783694
-0.00035633
0.000351145
-0.00113484
0.00109782
-0.000746679
0.000582843
0.000514981
-0.000797785
0.00138063
-0.00194672
0.00114894
-0.00181749
-0.000129237
-0.000309791
-0.0015077
0.00138366
-0.00169345
0.00211772
-0.000734054
0.00156635
0.000551365
0.000223364
0.00134299
-0.000975393
0.00119876
-0.00103223
5.68358e-05
-0.00103223
-0.00288789
0.00482535
-0.00170385
-0.00228401
0.000869679
-0.00396913
0.000912328
-0.000128256
7.50158e-05
0.00132081
-0.000748232
0.00173405
-0.00157956
0.00181046
-0.00205028
0.000551741
-0.000984452
-0.00219909
0.00133978
-0.00401293
0.00224731
-0.00196482
0.00166758
0.00078368
0.000762821
0.00204567
-0.000405844
0.00241782
-0.00135228
0.00148893
-0.000866061
-0.000977012
0.000799648
-0.00277528
0.00133826
-0.00109947
0.000362207
0.00156909
-0.000813882
0.00249874
-0.00175529
0.00207279
-0.00219667
0.000449164
-0.000846759
-0.00271384
0.00157171
-0.00417415
0.00235277
-0.00174514
0.0017223
0.00082566
0.000799017
0.00205752
-0.000380643
0.00248063
-0.00142777
0.00167881
-0.00116189
-0.00062221
0.000551052
-0.00284778
0.00136081
-0.00155644
0.000437606
0.00143818
-0.000771818
0.00259005
-0.0017574
0.00213452
-0.00212026
0.000233625
-0.000457904
-0.00317006
0.00188227
-0.00403362
0.00223374
-0.00108552
0.00136284
0.00142226
0.000366014
0.00233982
-0.000942582
0.00250735
-0.00148511
0.000599362
-0.00251734
-0.00277418
0.00759953
-0.00239649
-0.00266171
0.000313599
-0.00667922
0.00121551
-0.00103016
0.000737645
0.00179867
-0.000111825
0.00258352
-0.00124824
0.00294688
-0.00209612
0.00139962
-0.00102231
-0.00327289
0.0015108
-0.00654604
0.00239148
-0.0028455
0.00142296
0.0017522
0.000157057
0.00331157
-0.00105528
0.00363015
-0.00181347
0.00224713
-0.000982929
-0.00180756
0.00104526
-0.00480347
0.00183615
-0.00189036
0.000989034
0.00241621
-0.000255132
0.00374291
-0.00154648
0.00336413
-0.00236158
0.00126426
-0.00104381
-0.00403161
0.00164333
-0.00686129
0.00252262
-0.00262444
0.00153204
0.00181624
0.000196312
0.00339324
-0.00106468
0.00374163
-0.00192791
0.00254204
-0.00127195
-0.00127817
0.000831355
-0.00495108
0.00186407
-0.00258916
0.00104959
0.00225266
-0.000250565
0.00389021
-0.00160273
0.00348668
-0.00229955
0.000930445
-0.000605203
-0.0048644
0.00201874
-0.00665757
0.00240977
-0.00147655
0.00115397
0.00267806
-0.000237208
0.00373099
-0.00159202
0.00386216
-0.00188068
0.000888026
-0.00439802
-0.00204128
0.00964081
-0.00259652
-0.00210647
-0.000669059
-0.00860667
0.000653398
-0.00235262
0.000748802
0.00170326
0.000328234
0.00300409
-0.000479192
0.00375431
-0.00127744
0.00219786
-0.00065104
-0.00389929
0.00106021
-0.00825728
0.00151219
-0.00329748
0.000571226
0.00269316
-0.000451725
0.00433452
-0.00116752
0.00434594
-0.00146247
0.00254208
-0.000698344
-0.00257168
0.000834727
-0.00633654
0.00150021
-0.00255584
0.00111719
0.00279923
0.000377573
0.00448252
-0.000638717
0.00438042
-0.00147245
0.002098
-0.000758187
-0.00474587
0.00110377
-0.00872324
0.00166362
-0.0031843
0.000712992
0.00276688
-0.000418818
0.00452505
-0.00121129
0.00453409
-0.00158654
0.0029173
-0.000894839
-0.00196987
0.000706083
-0.006552
0.00149139
-0.00337446
0.00111538
0.00262866
0.000352413
0.00465318
-0.00068979
0.00452889
-0.00142579
0.00166644
-0.000435052
-0.00585514
0.00137606
-0.00846868
0.00156874
-0.00166923
0.00045776
0.00378904
-0.000648776
0.00483753
-0.00144049
0.00465388
-0.00142027
0.000867808
-0.00581829
-0.0013313
0.0109721
-0.00267495
-0.00076282
-0.00180339
-0.00947824
-0.000257022
-0.00389898
0.000322724
0.00112352
0.000322197
0.00300462
-3.83733e-05
0.00411488
-0.000533452
0.00269294
-0.00028557
-0.00414717
0.000551827
-0.00909468
0.000629716
-0.00337537
-0.00011535
0.00343822
-0.000807389
0.00502656
-0.00113416
0.00467272
-0.00107145
0.00247936
-0.000390084
-0.00325304
0.000607843
-0.00733447
0.0011479
-0.0030959
0.00112015
0.00282698
0.000771564
0.00483111
0.000109567
0.00504242
-0.000583697
0.00279127
-0.000435942
-0.00489363
0.00050074
-0.00965992
0.00077873
-0.00346229
2.92419e-05
0.00351637
-0.000760992
0.00531529
-0.00117821
0.0049513
-0.00119112
0.00293022
-0.000484675
-0.00267632
0.0005636
-0.00760028
0.00109973
-0.00391059
0.00104358
0.00268481
0.000718886
0.00497788
8.04176e-05
0.00516735
-0.000554141
0.002301
-0.000251634
-0.00615764
0.000671457
-0.00939177
0.000702755
-0.00170053
-9.66827e-05
0.00458848
-0.000838492
0.00557934
-0.00117192
0.00498731
-0.000927187
0.000623075
-0.00674548
-0.000585051
0.0115572
-0.00239774
0.00104987
-0.00276321
-0.00911277
-0.00142635
-0.00523584
-0.000495712
0.000192877
-0.000170207
0.00267911
3.70068e-05
0.00390767
4.53176e-05
0.00268463
1.7709e-05
-0.00411956
7.26185e-06
-0.00908423
-0.000213093
-0.00315501
-0.000566873
0.003792
-0.000811251
0.00527094
-0.00078538
0.00464685
-0.000538206
0.00223219
-5.05255e-05
-0.00374072
0.000367522
-0.00775252
0.000681599
-0.00340997
0.00082286
0.00268572
0.000809352
0.00484462
0.000609581
0.00524219
0.00023275
0.0031681
-0.000107082
-0.0045538
-0.000103068
-0.00966394
-8.99693e-05
-0.00347538
-0.000429147
0.00385554
-0.000753915
0.00564006
-0.000823123
0.00502051
-0.000622988
0.00273008
-4.5123e-05
-0.00325419
0.000390619
-0.00803602
0.000606897
-0.00412686
0.000709121
0.00258258
0.000735105
0.00495189
0.000596356
0.0053061
0.000237511
0.00265985
-6.88881e-05
-0.00585124
-4.31603e-05
-0.00941749
-0.000128291
-0.0016154
-0.000454342
0.00491453
-0.000698415
0.00582341
-0.000629155
0.00491805
-0.000390946
0.000384866
-0.00713642
0.000140921
0.0114162
-0.00171933
0.00291012
-0.00322461
-0.0076075
-0.00254089
-0.00591956
-0.00151324
-0.000834771
-0.000860558
0.00202643
-0.000134106
0.00318122
0.000375393
0.00217513
0.000202445
-0.00394662
-0.000547744
-0.00833404
-0.000921494
-0.00278126
-0.00081639
0.0036869
-0.00054371
0.00499826
-0.000240292
0.00434343
9.10413e-05
0.00190086
0.000304571
-0.00395425
9.84974e-05
-0.00754644
7.56987e-05
-0.00338718
0.000309653
0.00245176
0.000590318
0.00456395
0.000871812
0.0049607
0.000871921
0.00316799
0.000231335
-0.00391321
-0.000631742
-0.00880086
-0.000834013
-0.00327311
-0.000716798
0.00373833
-0.000489445
0.0054127
-0.000249404
0.00478047
6.07968e-05
0.00241988
0.000386661
-0.00358005
0.000170452
-0.00781982
-9.33977e-06
-0.00394707
0.000188162
0.00238508
0.000521145
0.00461891
0.000876542
0.00495071
0.000864779
0.00267161
0.000134287
-0.00512075
-0.00068227
-0.00860094
-0.000816818
-0.00148086
-0.000637716
0.00473542
-0.000344461
0.00553015
4.11511e-05
0.00453243
0.000192271
0.000233748
-0.00694415
0.00082129
0.010595
-0.000684722
0.00441613
-0.00295959
-0.00533264
-0.0031762
-0.00570295
-0.0022904
-0.00172057
-0.00135915
0.00109518
-0.00029741
0.00211948
0.000539802
0.00133792
0.000213689
-0.0036205
-0.00109944
-0.00702092
-0.00153225
-0.00234845
-0.000972461
0.00312711
-0.000228027
0.00425383
0.000332628
0.00378277
0.000773125
0.00146035
0.000600556
-0.00378168
-0.000213231
-0.00673266
-0.000555277
-0.00304513
-0.000219481
0.00211597
0.000304659
0.00403981
0.00100293
0.00426242
0.0013738
0.00279712
0.000556748
-0.00309616
-0.000991009
-0.0072531
-0.00143882
-0.0028253
-0.000900897
0.0032004
-0.000176731
0.00468854
0.000345659
0.00425808
0.000810934
0.00195461
0.000732727
-0.00350184
-0.000126287
-0.0069608
-0.000632141
-0.00344122
-0.000317392
0.00207033
0.000262255
0.00403926
0.00102266
0.0041903
0.00135737
0.00233689
0.000344407
-0.00410778
-0.00113991
-0.00711662
-0.00134718
-0.00127359
-0.000710596
0.00409885
2.5527e-05
0.00479403
0.000599075
0.00395889
0.000732139
0.000100683
-0.00621201
0.00140735
0.0091876
0.000584647
0.00523883
-0.00191798
-0.00283002
-0.00296639
-0.00465454
-0.00245192
-0.00223504
-0.0014564
9.96583e-05
-0.000356012
0.00101909
0.00056377
0.000418135
8.67285e-05
-0.00314346
-0.00152552
-0.00540866
-0.00196736
-0.00190661
-0.0010639
0.00222364
-2.28845e-05
0.00321282
0.000811904
0.00294798
0.00130713
0.000965123
0.000763278
-0.00323782
-0.000539876
-0.0054295
-0.00113928
-0.00244572
-0.000701744
0.00167843
8.01506e-05
0.00325792
0.00101492
0.00332765
0.00168361
0.00212842
0.000806481
-0.00221903
-0.00114206
-0.00530457
-0.00180517
-0.00216218
-0.000968205
0.00236344
4.92736e-05
0.00367106
0.000881241
0.00342612
0.00142043
0.00141542
0.000930133
-0.00301155
-0.000438332
-0.00559234
-0.00117293
-0.00270661
-0.000731891
0.00162929
8.77694e-05
0.0032196
0.00105394
0.00322413
0.00165843
0.00173241
0.000520291
-0.00296965
-0.00136168
-0.00523464
-0.0016622
-0.000973078
-0.000742103
0.00317875
0.000272738
0.00377919
0.00102963
0.003202
0.00118047
-5.01614e-05
-0.00503154
0.00180207
0.00738553
0.00182012
0.00522078
-0.000348486
-0.000661416
-0.00189719
-0.00310584
-0.00193162
-0.0022006
-0.00119463
-0.000637332
-0.000266911
9.137e-05
0.000503892
-0.000352669
-7.56104e-05
-0.00256396
-0.0016891
-0.00379517
-0.00208969
-0.00150602
-0.00109739
0.00123134
4.01433e-05
0.00207528
0.00102784
0.00196029
0.00151035
0.000482611
0.000736571
-0.00246405
-0.000796762
-0.00389617
-0.00149023
-0.00175226
-0.000975571
0.00116377
-4.16264e-05
0.00232397
0.000960019
0.00232601
0.00169517
0.00139327
0.000872276
-0.00139613
-0.00108376
-0.00334854
-0.00182587
-0.00142007
-0.000969899
0.00150747
0.000157225
0.00254394
0.00116547
0.00241787
0.00170251
0.000878376
0.000951132
-0.00226017
-0.000658703
-0.0039825
-0.00145588
-0.00190944
-0.000937145
0.00111055
2.2046e-05
0.0022604
0.00101583
0.00223034
0.00166451
0.00108373
0.000582006
-0.00188715
-0.00133525
-0.00331739
-0.00168365
-0.00062467
-0.000665763
0.00216086
0.000411806
0.00270162
0.00131338
0.00230042
0.00142637
-0.000163152
-0.00360517
0.00183891
0.00554661
0.0025525
0.0045072
0.00115826
0.000732821
-0.0003817
-0.00156588
-0.000931862
-0.00165043
-0.000652899
-0.000916296
-2.95639e-05
-0.000531967
0.000454238
-0.000836468
-0.000158673
-0.00195105
-0.00151616
-0.00243768
-0.00185203
-0.00117016
-0.00101684
0.000396154
2.6194e-05
0.00103225
0.000961467
0.00102502
0.00135311
9.09657e-05
0.000548063
-0.001659
-0.000907486
-0.00244062
-0.00153092
-0.00112882
-0.00102069
0.000653538
-0.000114084
0.00141737
0.00078846
0.00142346
0.00139687
0.000784868
0.000731537
-0.0007308
-0.00086961
-0.00174739
-0.00152394
-0.000765742
-0.000836362
0.000819897
0.000193705
0.00151387
0.00116034
0.00145123
0.00160348
0.000435235
0.00080905
-0.00146573
-0.000724028
-0.00244943
-0.00143168
-0.00120179
-0.000939028
0.00061791
-4.57059e-05
0.00136708
0.000851143
0.00133349
0.00136827
0.000566606
0.000495431
-0.00101431
-0.0010924
-0.00172956
-0.00141774
-0.00029933
-0.000539872
0.00128299
0.000468718
0.00169303
0.00136474
0.0014044
0.00139602
-0.000194432
-0.00220915
0.00159847
0.00394814
0.00263915
0.00346652
0.00203737
0.00133459
0.000919032
-0.000447535
0.000189758
-0.00092116
8.33818e-05
-0.000809919
0.000312321
-0.000760908
0.000452326
-0.000976474
-0.000114972
-0.00138376
-0.00107788
-0.00147477
-0.00134635
-0.000901696
-0.000794069
-0.000156127
-8.00108e-06
0.000246183
0.000718866
0.000298151
0.000966832
-0.000157003
0.000300298
-0.000992464
-0.000820868
-0.00131945
-0.00129154
-0.000658155
-0.000897462
0.000259457
-0.00018842
0.000708331
0.000506137
0.000728908
0.000908627
0.000382378
0.000457946
-0.000280118
-0.000592785
-0.000696657
-0.00104291
-0.000315613
-0.000586845
0.000363829
0.000194507
0.00073252
0.000940077
0.00070566
0.00122834
0.000146971
0.000565666
-0.000803053
-0.000621884
-0.00126187
-0.00116339
-0.000660284
-0.0008013
0.00025582
-0.000116093
0.000681867
0.000562766
0.000654633
0.000885215
0.000244158
0.000298088
-0.000427188
-0.000749633
-0.000681836
-0.000982497
-6.64653e-05
-0.000358508
0.000659001
0.000439178
0.000895347
0.0011453
0.000698282
0.00110234
-0.000151474
-0.00110681
0.00108517
0.00286297
0.00210163
0.00245007
0.00215019
0.00128603
0.00150677
0.000195885
0.000937572
-0.000351964
0.000687328
-0.000559677
0.000625995
-0.000699574
0.000482589
-0.000833066
2.35517e-05
-0.00092472
-0.000558093
-0.00089312
-0.000761907
-0.000697878
-0.000492591
-0.000425445
-1.64604e-05
-0.000229951
0.000437117
-0.000155425
0.000551654
-0.000271538
0.000101836
-0.000542649
-0.000593407
-0.000624213
-0.000904501
-0.000347063
-0.000679943
3.48976e-05
-0.000226266
0.000254654
0.000219709
0.000282935
0.000438006
0.000164083
0.000196045
-3.81552e-05
-0.000334825
-0.000165784
-0.00057254
-7.78981e-05
-0.000325084
0.000116369
0.000158703
0.00024873
0.000622798
0.000241565
0.000757819
1.19517e-05
0.000306898
-0.000352129
-0.000432492
-0.000522482
-0.000791584
-0.000301192
-0.000594994
5.92299e-05
-0.000161362
0.000248235
0.00025722
0.000236048
0.000415236
8.61424e-05
9.7163e-05
-0.000109116
-0.000431104
-0.000153568
-0.000551104
5.35352e-05
-0.000185264
0.000293163
0.000334361
0.000375723
0.00076469
0.000267951
0.000689964
-7.67486e-05
-0.000416844
0.0007717
0.00209127
0.00144077
0.001781
0.00165772
0.00106907
0.00142138
0.000432234
0.00110444
-3.50239e-05
0.000872478
-0.000327723
0.000687712
-0.000514808
0.000458249
-0.000603596
0.000151999
-0.000618469
-0.000142215
-0.000598912
-0.000273072
-0.000567021
-0.000187595
-0.000510919
1.52699e-05
-0.000432816
0.000207795
-0.00034795
0.00023899
-0.000302732
-1.80119e-06
-0.00030186
-0.000355268
-0.00027075
-0.000529681
-0.00017265
-0.000438142
-5.66401e-05
-0.000204638
2.11514e-05
2.44075e-05
5.389e-05
0.000128757
5.97358e-05
4.42532e-05
4.63504e-05
-0.000143259
2.17277e-05
-0.000231214
1.00535e-05
-0.000125382
1.05344e-05
0.00010801
1.53366e-05
0.000328293
2.12837e-05
0.000363229
-2.29821e-05
0.000116553
-0.000105451
-0.000257287
-0.000148641
-0.000457824
-0.000100657
-0.000383516
-1.50771e-05
-0.000166841
3.15605e-05
3.63183e-05
3.28886e-05
9.89944e-05
2.34665e-05
-2.33433e-05
1.32215e-05
-0.000211295
3.43835e-05
-0.000240786
8.30269e-05
-6.10641e-05
0.000113441
0.000205548
0.000109113
0.000402337
7.11636e-05
0.00033687
-1.12842e-05
-7.99746e-05
0.000578157
0.00151312
0.000996203
0.00136296
0.00116197
0.0009033
0.00111303
0.000481176
0.000943224
0.00013479
0.00076
-0.000144496
0.000571187
-0.000325997
0.00038397
-0.000416379
0.000213957
-0.000448454
8.35764e-05
-0.000468535
1.04481e-05
-0.000493894
1.63566e-06
-0.000502102
3.62298e-05
-0.000467407
7.27869e-05
-0.00038451
5.25517e-05
-0.000282499
-5.28729e-05
-0.000196434
-0.000187199
-0.000136424
-0.000258842
-0.000101007
-0.000234731
-8.07498e-05
-0.000148134
-6.54439e-05
-5.79994e-05
-3.62438e-05
-5.92906e-06
7.66517e-06
-4.91329e-06
4.53343e-05
-3.20473e-05
4.88601e-05
-4.03892e-05
1.83928e-05
-3.32553e-06
-2.65305e-05
6.33533e-05
-5.13412e-05
0.000128369
-4.37304e-05
0.000120584
-1.51976e-05
1.73853e-05
-2.25243e-06
-0.00012535
-5.90448e-06
-0.000211898
-1.41085e-05
-0.000201354
-2.56208e-05
-0.000131138
-3.86544e-05
-6.75365e-05
-3.07142e-05
-4.07684e-05
-3.30196e-06
-6.26639e-05
3.51166e-05
-8.70925e-05
5.88106e-05
-6.34314e-05
5.93676e-05
8.67526e-06
4.13367e-05
0.000101157
1.66322e-05
0.000157086
1.52366e-05
0.000118802
2.70001e-05
3.88247e-05
0.000443321
0.0010698
0.00076321
0.00104308
0.000895566
0.000770949
0.000889509
0.000487232
0.00079922
0.000225081
0.000641479
1.32479e-05
0.000481878
-0.000166397
0.000340788
-0.000275293
0.000235792
-0.000343459
0.000161165
-0.000393905
0.000100958
-0.000433687
5.01653e-05
-0.00045131
7.94765e-06
-0.000425189
-2.34441e-05
-0.000353118
-5.00635e-05
-0.000255879
-7.90364e-05
-0.000167459
-0.000104836
-0.000110621
-0.000116669
-8.91752e-05
-0.000109528
-8.78905e-05
-9.11071e-05
-8.38639e-05
-6.76408e-05
-5.97104e-05
-3.97366e-05
-2.02415e-05
-7.33151e-06
1.29279e-05
1.99776e-05
2.15514e-05
3.67425e-05
1.62739e-06
4.08302e-05
-3.06199e-05
3.69723e-05
-4.74837e-05
2.83202e-05
-3.50773e-05
1.64213e-05
-3.29874e-06
-9.74525e-06
2.39137e-05
-4.63054e-05
3.06577e-05
-7.24257e-05
1.20136e-05
-8.05285e-05
-1.75178e-05
-8.01029e-05
-3.90807e-05
-7.34551e-05
-3.7364e-05
-6.43297e-05
-1.2428e-05
-4.81965e-05
1.89854e-05
-2.63901e-05
3.70039e-05
-3.82207e-07
3.33605e-05
2.47854e-05
1.6172e-05
3.67693e-05
4.64988e-06
3.65145e-05
1.54904e-05
2.07664e-05
4.27489e-05
5.95909e-05
0.000328804
0.000740992
0.000602831
0.000769054
0.000747842
0.000625942
0.000782702
0.000452373
0.000735399
0.000272383
0.000642785
0.000105861
0.000509028
-3.26397e-05
0.00038687
-0.000153136
0.000284252
-0.000240842
0.000197871
-0.000307523
0.000117509
-0.000353323
3.71676e-05
-0.000370971
-3.4051e-05
-0.00035397
-8.37218e-05
-0.000303442
-0.000104859
-0.000234736
-0.000102672
-0.000169644
-8.84942e-05
-0.000124801
-7.40254e-05
-0.000103644
-6.60474e-05
-9.58687e-05
-6.31299e-05
-8.67827e-05
-5.56135e-05
-6.7228e-05
-3.59251e-05
-3.99302e-05
-6.65212e-06
-1.63452e-05
2.30666e-05
-8.16784e-06
3.9568e-05
-1.48747e-05
3.74095e-05
-2.84627e-05
2.22027e-05
-3.22781e-05
7.10558e-06
-1.99797e-05
8.1873e-07
2.98946e-06
1.68854e-06
2.30445e-05
4.93009e-06
2.74172e-05
2.84464e-06
1.40995e-05
-7.32205e-06
-7.35212e-06
-2.32692e-05
-2.31341e-05
-3.66094e-05
-2.40246e-05
-3.75992e-05
-1.14388e-05
-2.36257e-05
5.01419e-06
-2.84931e-06
1.62297e-05
1.30702e-05
1.74406e-05
1.60372e-05
1.32041e-05
6.80468e-06
1.38845e-05
-3.61789e-06
2.59124e-05
-5.99253e-06
4.51217e-05
5.35988e-05
0.000235393
0.000505604
0.000459323
0.000545124
0.000611997
0.000473266
0.000688026
0.000376344
0.000695371
0.000265038
0.000650373
0.000150857
0.000574546
4.31882e-05
0.000473993
-5.2583e-05
0.000369764
-0.000136614
0.000265477
-0.000203238
0.000162281
-0.000250127
6.45189e-05
-0.000273206
-1.87387e-05
-0.000270708
-7.61059e-05
-0.000246068
-0.000102788
-0.000208051
-0.000103491
-0.000168943
-9.02053e-05
-0.00013809
-7.58322e-05
-0.000118016
-6.72475e-05
-0.000104452
-6.30568e-05
-9.09758e-05
-5.64355e-05
-7.38506e-05
-4.17129e-05
-5.46504e-05
-1.96157e-05
-3.84417e-05
1.72841e-06
-2.95149e-05
1.41931e-05
-2.7341e-05
1.31902e-05
-2.7459e-05
4.24872e-06
-2.33363e-05
-2.98929e-06
-1.2741e-05
-6.73562e-07
6.75132e-07
1.04017e-05
1.19694e-05
2.33176e-05
1.4501e-05
2.95592e-05
7.85815e-06
2.39794e-05
-1.77261e-06
1.06906e-05
-9.84523e-06
-2.3597e-06
-1.09735e-05
-7.85174e-06
-5.94722e-06
-4.96693e-06
2.12766e-06
2.27371e-06
8.98995e-06
6.50754e-06
1.32097e-05
3.30495e-06
1.64052e-05
-4.7766e-06
2.1966e-05
-1.06186e-05
3.17558e-05
-8.55721e-06
4.30591e-05
4.50406e-05
0.000165274
0.000340331
0.00033566
0.000374736
0.0004708
0.000338125
0.000561527
0.000285616
0.000605319
0.000221247
0.000606045
0.00015013
0.000571893
7.73382e-05
0.000511766
7.54332e-06
0.000431138
-5.59852e-05
0.000338402
-0.000110503
0.000240332
-0.000152055
0.000145139
-0.000178009
6.20403e-05
-0.000187605
-1.09488e-06
-0.000182932
-4.03917e-05
-0.000168756
-5.87667e-05
-0.00015057
-6.38327e-05
-0.000133024
-6.37214e-05
-0.000118127
-6.31652e-05
-0.00010501
-6.23225e-05
-9.18195e-05
-5.85454e-05
-7.76265e-05
-4.98928e-05
-6.33016e-05
-3.75604e-05
-5.0776e-05
-2.56586e-05
-4.14197e-05
-1.82385e-05
-3.47607e-05
-1.64319e-05
-2.9264e-05
-1.72198e-05
-2.25487e-05
-1.58529e-05
-1.41079e-05
-9.78378e-06
-5.39301e-06
1.25297e-06
9.3224e-07
1.26355e-05
3.11786e-06
1.83449e-05
2.14982e-06
1.72018e-05
-6.285e-07
1.02098e-05
-2.85435e-06
1.98777e-06
-2.75363e-06
-4.01674e-06
5.7429e-08
-6.42035e-06
4.52897e-06
-6.76563e-06
9.33214e-06
-7.60483e-06
1.40531e-05
-1.02577e-05
1.90621e-05
-1.32757e-05
2.49837e-05
-1.32991e-05
3.17789e-05
-8.39845e-06
3.81581e-05
3.66414e-05
0.000114704
0.000225626
0.000238008
0.000251431
0.000344
0.000232132
0.000426091
0.000203525
0.000480237
0.000167101
0.000505243
0.000125122
0.000502616
7.9963e-05
0.00047601
3.41483e-05
0.000427618
-7.59164e-06
0.000365451
-4.83323e-05
0.000293852
-8.04539e-05
0.000219902
-0.000104056
0.00015075
-0.000118451
9.2148e-05
-0.000124332
4.69923e-05
-0.000123602
1.49453e-05
-0.000118522
-6.84488e-06
-0.000111231
-2.20912e-05
-0.000102881
-3.32824e-05
-9.3821e-05
-4.11068e-05
-8.39935e-05
-4.51953e-05
-7.35348e-05
-4.54819e-05
-6.30163e-05
-4.3017e-05
-5.32441e-05
-3.97e-05
-4.47364e-05
-3.70432e-05
-3.7415e-05
-3.56137e-05
-3.06933e-05
-3.4075e-05
-2.40885e-05
-3.07226e-05
-1.74598e-05
-2.47904e-05
-1.1324e-05
-1.73539e-05
-6.50379e-06
-1.07936e-05
-3.442e-06
-6.78009e-06
-1.8636e-06
-6.19643e-06
-1.21114e-06
-8.74906e-06
-3.0213e-07
-1.28516e-05
1.34351e-06
-1.66891e-05
3.89361e-06
-1.92779e-05
7.12015e-06
-2.06965e-05
1.07488e-05
-2.13183e-05
1.46746e-05
-2.11244e-05
1.88722e-05
-1.94029e-05
2.32642e-05
-1.516e-05
2.7535e-05
-8.03248e-06
3.10291e-05
2.86085e-05
7.9399e-05
0.000146227
0.000166656
0.000164171
0.000245057
0.00015373
0.000310554
0.000138025
0.000360017
0.000117635
0.000391562
9.35733e-05
0.000404499
6.70237e-05
0.000399342
3.93048e-05
0.000379837
1.19136e-05
0.000345194
-1.36876e-05
0.000301265
-3.65244e-05
0.000252221
-5.50148e-05
0.000202519
-6.87507e-05
0.000155938
-7.77519e-05
0.000114871
-8.25354e-05
8.0241e-05
-8.38909e-05
5.16481e-05
-8.26382e-05
2.81937e-05
-7.94286e-05
9.07844e-06
-7.47071e-05
-6.09921e-06
-6.88141e-05
-1.75217e-05
-6.21117e-05
-2.55395e-05
-5.50022e-05
-3.08127e-05
-4.79728e-05
-3.42519e-05
-4.12946e-05
-3.66001e-05
-3.50662e-05
-3.80648e-05
-2.92318e-05
-3.84421e-05
-2.37115e-05
-3.73802e-05
-1.85197e-05
-3.48956e-05
-1.38089e-05
-3.16228e-05
-9.77589e-06
-2.85573e-05
-6.50535e-06
-2.65246e-05
-3.89846e-06
-2.60295e-05
-1.70829e-06
-2.676e-05
4.30407e-07
-2.80894e-05
2.67008e-06
-2.93127e-05
5.11289e-06
-2.99268e-05
7.73675e-06
-2.96634e-05
1.04875e-05
-2.83116e-05
1.33212e-05
-2.56224e-05
1.61817e-05
-2.13111e-05
1.8953e-05
-1.52122e-05
2.1436e-05
-7.52118e-06
2.33378e-05
2.10879e-05
5.56092e-05
9.06174e-05
0.000117579
0.000102199
0.000174787
9.65214e-05
0.00022484
8.79709e-05
0.000265674
7.67979e-05
0.000295789
6.3456e-05
0.000314313
4.85012e-05
0.000321043
3.2577e-05
0.000316585
1.63735e-05
0.000301521
1.37846e-06
0.000278707
-1.37107e-05
0.000250014
-2.63222e-05
0.000217973
-3.67102e-05
0.000184909
-4.4686e-05
0.000152643
-5.02682e-05
0.000122385
-5.36311e-05
9.4778e-05
-5.50317e-05
7.00998e-05
-5.47503e-05
4.8458e-05
-5.30642e-05
2.98942e-05
-5.0249e-05
1.4371e-05
-4.65896e-05
1.77204e-06
-4.24055e-05
-8.29043e-06
-3.79091e-05
-1.624e-05
-3.3342e-05
-2.2454e-05
-2.88539e-05
-2.71798e-05
-2.45089e-05
-3.05292e-05
-2.03593e-05
-3.25972e-05
-1.64486e-05
-3.35734e-05
-1.28345e-05
-3.37864e-05
-9.56239e-06
-3.36425e-05
-6.64468e-06
-3.34981e-05
-4.04402e-06
-3.35252e-05
-1.68508e-06
-3.36242e-05
5.31419e-07
-3.36051e-05
2.65275e-06
-3.32243e-05
4.72938e-06
-3.22516e-05
6.76358e-06
-3.05051e-05
8.74322e-06
-2.78311e-05
1.0648e-05
-2.40943e-05
1.24438e-05
-1.92146e-05
1.40725e-05
-1.32293e-05
1.54506e-05
-6.35247e-06
1.64615e-05
1.47361e-05
3.5928e-05
5.46868e-05
7.63501e-05
6.17721e-05
0.000114284
5.85852e-05
0.00014844
5.38119e-05
0.000177652
4.75808e-05
0.00020099
4.0114e-05
0.000217806
3.16865e-05
0.000227758
2.26251e-05
0.000230852
1.32777e-05
0.000228278
3.95038e-06
0.000219349
-4.78266e-06
0.000205798
-1.27722e-05
0.000188789
-1.97025e-05
0.000169506
-2.54029e-05
0.000149029
-2.9792e-05
0.000128267
-3.28694e-05
0.000107931
-3.46968e-05
8.856e-05
-3.53795e-05
7.05488e-05
-3.50528e-05
5.41717e-05
-3.38729e-05
3.95897e-05
-3.201e-05
2.68274e-05
-2.96446e-05
1.58515e-05
-2.69316e-05
6.53286e-06
-2.40223e-05
-1.3019e-06
-2.10219e-05
-7.78238e-06
-1.80305e-05
-1.30319e-05
-1.51067e-05
-1.71699e-05
-1.23081e-05
-2.03488e-05
-9.65795e-06
-2.27228e-05
-7.18883e-06
-2.44524e-05
-4.91102e-06
-2.56907e-05
-2.80502e-06
-2.64923e-05
-8.86453e-07
-2.68502e-05
8.89399e-07
-2.67417e-05
2.54642e-06
-2.61166e-05
4.10376e-06
-2.49172e-05
5.56279e-06
-2.30943e-05
6.92051e-06
-2.06134e-05
8.16801e-06
-1.74586e-05
9.28948e-06
-1.36467e-05
1.02606e-05
-9.24503e-06
1.10489e-05
-4.39262e-06
1.1609e-05
1.03428e-05
2.24208e-05
3.2264e-05
4.78072e-05
3.63853e-05
7.18801e-05
3.45136e-05
9.39571e-05
3.17345e-05
0.000113418
2.81186e-05
0.00012975
2.37831e-05
0.000142563
1.88759e-05
0.000151612
1.35779e-05
0.000156811
8.07834e-06
0.000158269
2.49207e-06
0.000156221
-2.73287e-06
0.000151081
-7.63126e-06
0.000143359
-1.19789e-05
0.000133611
-1.56544e-05
0.000122401
-1.85821e-05
0.000110262
-2.07302e-05
9.7671e-05
-2.21058e-05
8.50417e-05
-2.27486e-05
7.27141e-05
-2.27239e-05
6.09577e-05
-2.21168e-05
4.99716e-05
-2.10251e-05
3.98802e-05
-1.95529e-05
3.07526e-05
-1.78018e-05
2.25978e-05
-1.58664e-05
1.54079e-05
-1.38339e-05
9.14175e-06
-1.17653e-05
3.75555e-06
-9.71786e-06
-8.22306e-07
-7.72797e-06
-4.64345e-06
-5.838e-06
-7.77153e-06
-4.06114e-06
-1.02729e-05
-2.40678e-06
-1.22227e-05
-8.53443e-07
-1.36278e-05
5.17526e-07
-1.45361e-05
1.79724e-06
-1.49626e-05
2.9741e-06
-1.49116e-05
4.05324e-06
-1.43888e-05
5.03916e-06
-1.34021e-05
5.93319e-06
-1.19671e-05
6.73317e-06
-1.01107e-05
7.43332e-06
-7.87441e-06
8.02423e-06
-5.31916e-06
8.49316e-06
-2.53124e-06
8.82006e-06
7.80986e-06
1.52955e-05
1.69658e-05
3.26781e-05
1.90011e-05
4.92779e-05
1.79123e-05
6.46888e-05
1.63209e-05
7.85397e-05
1.42657e-05
9.05131e-05
1.18099e-05
0.000100354
9.03598e-06
0.000107905
6.02541e-06
0.000113072
2.9106e-06
0.000115766
-2.03981e-07
0.00011627
-3.23656e-06
0.000114678
-6.03896e-06
0.000111218
-8.51869e-06
0.00010617
-1.06067e-05
9.98397e-05
-1.22536e-05
9.25416e-05
-1.34333e-05
8.45787e-05
-1.41429e-05
7.62317e-05
-1.44003e-05
6.77481e-05
-1.4239e-05
5.93401e-05
-1.3709e-05
5.11824e-05
-1.28684e-05
4.34112e-05
-1.17816e-05
3.61236e-05
-1.05127e-05
2.93817e-05
-9.1242e-06
2.32202e-05
-7.67419e-06
1.76639e-05
-6.21029e-06
1.27225e-05
-4.77512e-06
8.38854e-06
-3.39273e-06
4.62416e-06
-2.07461e-06
1.4099e-06
-8.47769e-07
-1.23011e-06
2.34595e-07
-3.37042e-06
1.28829e-06
-5.08564e-06
2.23242e-06
-6.35486e-06
3.06591e-06
-7.19303e-06
3.81269e-06
-7.61954e-06
4.48023e-06
-7.65601e-06
5.07531e-06
-7.32697e-06
5.60329e-06
-6.66174e-06
6.06695e-06
-5.6959e-06
6.46637e-06
-4.47225e-06
6.79915e-06
-3.04138e-06
7.06047e-06
-1.46562e-06
7.24217e-06
6.34287e-06
1.06531e-05
6.31275e-06
2.2736e-05
6.91999e-06
3.4325e-05
6.32323e-06
4.51661e-05
5.47924e-06
5.50224e-05
4.41002e-06
6.36759e-05
3.15794e-06
7.08919e-05
1.82039e-06
7.66991e-05
2.18272e-07
8.08043e-05
-1.19438e-06
8.34385e-05
-2.83811e-06
8.45505e-05
-4.34848e-06
8.41863e-05
-5.67419e-06
8.24617e-05
-6.79324e-06
7.95304e-05
-7.67495e-06
7.55734e-05
-8.29688e-06
7.07874e-05
-8.64751e-06
6.53723e-05
-8.72697e-06
5.95236e-05
-8.54953e-06
5.34174e-05
-8.13082e-06
4.72178e-05
-7.50894e-06
4.10656e-05
-6.71667e-06
3.508e-05
-5.7959e-06
2.9357e-05
-4.78868e-06
2.39653e-05
-3.73224e-06
1.89556e-05
-2.66608e-06
1.43729e-05
-1.62886e-06
1.02854e-05
-6.87043e-07
6.70759e-06
1.85963e-07
3.56603e-06
1.06635e-06
8.55989e-07
1.86136e-06
-1.44855e-06
2.53958e-06
-3.31452e-06
3.15521e-06
-4.74941e-06
3.66742e-06
-5.78384e-06
4.10004e-06
-6.43521e-06
4.46421e-06
-6.72476e-06
4.77017e-06
-6.67749e-06
5.02803e-06
-6.32217e-06
5.24728e-06
-5.69138e-06
5.43493e-06
-4.8218e-06
5.59511e-06
-3.75397e-06
5.72927e-06
-2.532e-06
5.83619e-06
-1.20563e-06
5.91351e-06
5.13662e-06
6.8918e-06
-5.79642e-07
1.46034e-05
-7.90381e-07
2.20285e-05
-1.10292e-06
2.89776e-05
-1.47046e-06
3.52815e-05
-1.89334e-06
4.08069e-05
-2.36713e-06
4.55016e-05
-2.87509e-06
4.91201e-05
-3.40043e-06
5.18039e-05
-3.87791e-06
5.32982e-05
-4.3329e-06
5.36559e-05
-4.70679e-06
5.29598e-05
-4.9781e-06
5.12957e-05
-5.12835e-06
4.87682e-05
-5.14676e-06
4.55012e-05
-5.02984e-06
4.1631e-05
-4.77764e-06
3.72998e-05
-4.39532e-06
3.26384e-05
-3.88682e-06
2.78006e-05
-3.29171e-06
2.29324e-05
-2.64061e-06
1.81386e-05
-1.92383e-06
1.35087e-05
-1.16657e-06
9.13465e-06
-4.14366e-07
5.07631e-06
3.26047e-07
1.38091e-06
1.02817e-06
-1.92671e-06
1.6777e-06
-4.86286e-06
2.2494e-06
-7.41699e-06
2.74081e-06
-9.51363e-06
3.16264e-06
-1.11613e-05
3.50802e-06
-1.23936e-05
3.77145e-06
-1.31853e-05
3.94712e-06
-1.35865e-05
4.06843e-06
-1.36178e-05
4.13095e-06
-1.33011e-05
4.14741e-06
-1.26618e-05
4.13117e-06
-1.17271e-05
4.09361e-06
-1.05267e-05
4.04696e-06
-9.09281e-06
4.00051e-06
-7.45992e-06
3.96128e-06
-5.66536e-06
3.93337e-06
-3.74864e-06
3.91788e-06
-1.75063e-06
3.91391e-06
3.38578e-06
3.51114e-06
-4.09055e-06
7.50488e-06
-4.782e-06
1.1271e-05
-4.86908e-06
1.46951e-05
-4.89391e-06
1.76748e-05
-4.87193e-06
2.01083e-05
-4.80061e-06
2.18955e-05
-4.66298e-06
2.29616e-05
-4.46596e-06
2.32885e-05
-4.2042e-06
2.28363e-05
-3.88105e-06
2.16237e-05
-3.49474e-06
1.96975e-05
-3.0518e-06
1.71429e-05
-2.57292e-06
1.40577e-05
-2.06092e-06
1.05333e-05
-1.50548e-06
6.66763e-06
-9.1273e-07
2.56224e-06
-2.90469e-07
-1.67665e-06
3.52298e-07
-5.94741e-06
9.79505e-07
-1.00191e-05
1.43076e-06
-1.38831e-05
1.93907e-06
-1.74774e-05
2.42691e-06
-2.07482e-05
2.85659e-06
-2.36331e-05
3.21136e-06
-2.60876e-05
3.48262e-06
-2.80787e-05
3.66862e-06
-2.9597e-05
3.76847e-06
-3.06375e-05
3.78232e-06
-3.11953e-05
3.72068e-06
-3.12783e-05
3.59036e-06
-3.09028e-05
3.39546e-06
-3.01022e-05
3.14632e-06
-2.88909e-05
2.85711e-06
-2.73161e-05
2.55602e-06
-2.54188e-05
2.25013e-06