/*--------------------------------*- C++ -*----------------------------------*\
  =========                 |
  \\      /  F ield         | OpenFOAM: The Open Source CFD Toolbox
   \\    /   O peration     | Website:  https://openfoam.org
    \\  /    A nd           | Version:  7
     \\/     M anipulation  |
\*---------------------------------------------------------------------------*/
FoamFile
{
    version     2.0;
    format      ascii;
    class       surfaceScalarField;
    location    "3.4";
    object      phi;
}
// * * * * * * * * * * * * * * * * * * * * * * * * * * * * * * * * * * * * * //

dimensions      [0 3 -1 0 0 0 0];

internalField   nonuniform List<scalar> 
1740
(
2.94898e-07
-2.949e-07
-7.3674e-07
1.03164e-06
-3.11814e-06
2.3814e-06
-6.49035e-06
3.37221e-06
-1.04714e-05
3.98102e-06
-1.47463e-05
4.27496e-06
-1.90848e-05
4.33852e-06
-2.33271e-05
4.24225e-06
-2.73609e-05
4.0338e-06
-3.11011e-05
3.74022e-06
-3.44745e-05
3.37342e-06
-3.74102e-05
2.9357e-06
-3.98348e-05
2.42457e-06
-4.16712e-05
1.83641e-06
-4.28405e-05
1.16933e-06
-4.3266e-05
4.25417e-07
-4.28787e-05
-3.8728e-07
-4.16256e-05
-1.25303e-06
-3.94792e-05
-2.14649e-06
-3.64474e-05
-3.03172e-06
-3.2586e-05
-3.86144e-06
-2.80086e-05
-4.57741e-06
-2.28965e-05
-5.11203e-06
-1.75049e-05
-5.39162e-06
-1.21638e-05
-5.34109e-06
-7.27231e-06
-4.89152e-06
-3.27594e-06
-3.99637e-06
-6.10785e-07
-2.66515e-06
4.22938e-07
-1.03373e-06
4.22933e-07
-1.02928e-06
7.34379e-07
-4.92844e-06
4.9308e-06
-1.14979e-05
8.95089e-06
-2.00974e-05
1.19716e-05
-3.00204e-05
1.3904e-05
-4.06292e-05
1.48838e-05
-5.14072e-05
1.51165e-05
-6.19589e-05
1.47939e-05
-7.19837e-05
1.40587e-05
-8.12447e-05
1.30012e-05
-8.954e-05
1.16688e-05
-9.66839e-05
1.00796e-05
-0.000102495
8.23576e-06
-0.000106794
6.13504e-06
-0.000109404
3.77969e-06
-0.000110162
1.18354e-06
-0.000108931
-1.61894e-06
-0.000105611
-4.57297e-06
-0.000100167
-7.59013e-06
-9.26479e-05
-1.05507e-05
-8.32093e-05
-1.33001e-05
-7.21362e-05
-1.56505e-05
-5.986e-05
-1.73883e-05
-4.69654e-05
-1.82862e-05
-3.41825e-05
-1.8124e-05
-2.23546e-05
-1.67194e-05
-1.23706e-05
-1.39804e-05
-5.04723e-06
-9.98854e-06
-9.58239e-07
-5.12273e-06
-5.35307e-07
-2.46978e-06
3.20416e-06
-9.25203e-06
1.1713e-05
-1.95704e-05
1.92693e-05
-3.25204e-05
2.49216e-05
-4.71768e-05
2.85604e-05
-6.27061e-05
3.04131e-05
-7.84155e-05
3.0826e-05
-9.37551e-05
3.01335e-05
-0.000108293
2.85963e-05
-0.00012168
2.63881e-05
-0.000133618
2.36072e-05
-0.000143837
2.02989e-05
-0.00015208
1.64781e-05
-0.000158095
1.21507e-05
-0.000161646
7.33029e-06
-0.000162516
2.05317e-06
-0.000160524
-3.61076e-06
-0.000155553
-9.54414e-06
-0.00014757
-1.55728e-05
-0.00013666
-2.14603e-05
-0.000123056
-2.69047e-05
-0.000107163
-3.15431e-05
-8.95844e-05
-3.4967e-05
-7.11208e-05
-3.67498e-05
-5.27552e-05
-3.64896e-05
-3.56028e-05
-3.38718e-05
-2.08222e-05
-2.87609e-05
-9.4858e-06
-2.1325e-05
-2.40307e-06
-1.22055e-05
-2.93838e-06
-3.6785e-06
6.88266e-06
-1.29879e-05
2.10224e-05
-2.65698e-05
3.28512e-05
-4.31881e-05
4.15399e-05
-6.17147e-05
4.7087e-05
-8.11711e-05
4.98695e-05
-0.000100749
5.04038e-05
-0.000119801
4.9185e-05
-0.000137809
4.66049e-05
-0.000154352
4.29311e-05
-0.000169067
3.83217e-05
-0.000181623
3.28554e-05
-0.00019171
2.65652e-05
-0.000199028
1.94688e-05
-0.000203293
1.15954e-05
-0.000204249
3.00867e-06
-0.000201683
-6.17702e-06
-0.000195456
-1.57709e-05
-0.000185533
-2.54956e-05
-0.000172019
-3.49748e-05
-0.000155194
-4.37293e-05
-0.000135551
-5.11863e-05
-0.000113813
-5.6705e-05
-9.09389e-05
-5.96237e-05
-6.80977e-05
-5.93308e-05
-4.66081e-05
-5.53614e-05
-2.78445e-05
-4.75245e-05
-1.31135e-05
-3.60559e-05
-3.5302e-06
-2.17888e-05
-6.46858e-06
-4.62719e-06
1.15098e-05
-1.60492e-05
3.24445e-05
-3.23981e-05
4.92e-05
-5.21099e-05
6.12517e-05
-7.38555e-05
6.88326e-05
-9.65299e-05
7.25439e-05
-0.000119239
7.31129e-05
-0.000141271
7.12172e-05
-0.000162058
6.73919e-05
-0.000181133
6.20058e-05
-0.000198091
5.52801e-05
-0.000212565
4.73291e-05
-0.000224204
3.82037e-05
-0.000232668
2.79334e-05
-0.000237634
1.65615e-05
-0.000238804
4.17853e-06
-0.000235927
-9.05432e-06
-0.000228829
-2.28687e-05
-0.000217452
-3.68723e-05
-0.000201897
-5.05302e-05
-0.000182467
-6.31591e-05
-0.000159712
-7.3941e-05
-0.000134455
-8.19629e-05
-0.00010779
-8.62878e-05
-8.10627e-05
-8.60586e-05
-5.57906e-05
-8.06335e-05
-3.35691e-05
-6.9746e-05
-1.59494e-05
-5.36756e-05
-4.33827e-06
-3.34e-05
-1.08068e-05
-5.36599e-06
1.68758e-05
-1.85363e-05
4.56148e-05
-3.72289e-05
6.78926e-05
-5.95825e-05
8.36053e-05
-8.40755e-05
9.33256e-05
-0.000109485
9.79535e-05
-0.000134846
9.84741e-05
-0.000159404
9.57746e-05
-0.000182559
9.05473e-05
-0.000203821
8.32676e-05
-0.000222762
7.42215e-05
-0.000238989
6.35562e-05
-0.000252122
5.13364e-05
-0.000261785
3.75965e-05
-0.000267611
2.23872e-05
-0.00026925
5.8181e-06
-0.000266396
-1.19086e-05
-0.000258816
-3.04484e-05
-0.000246401
-4.92877e-05
-0.000229214
-6.77167e-05
-0.000207555
-8.48182e-05
-0.00018201
-9.94866e-05
-0.000153489
-0.000110484
-0.000123236
-0.00011654
-9.27931e-05
-0.000116502
-6.39168e-05
-0.00010951
-3.84613e-05
-9.52015e-05
-1.8242e-05
-7.38949e-05
-4.92535e-06
-4.67166e-05
-1.57322e-05
-5.96475e-06
2.28406e-05
-2.06193e-05
6.02694e-05
-4.13491e-05
8.86224e-05
-6.60305e-05
0.000108287
-9.29628e-05
0.000120258
-0.000120813
0.000125803
-0.000148553
0.000126215
-0.000175397
0.000122619
-0.000200731
0.000115881
-0.000224054
0.00010659
-0.000244928
9.5096e-05
-0.000262945
8.15732e-05
-0.0002777
6.60911e-05
-0.000288781
4.86771e-05
-0.000295768
2.93742e-05
-0.000298246
8.296e-06
-0.000295826
-1.43287e-05
-0.000288185
-3.80892e-05
-0.000275122
-6.235e-05
-0.000256628
-8.62112e-05
-0.000232958
-0.000108488
-0.000204713
-0.000127732
-0.000172891
-0.000142306
-0.000138907
-0.000150524
-0.000104553
-0.000150856
-7.18916e-05
-0.000142171
-4.31032e-05
-0.00012399
-2.03056e-05
-9.66925e-05
-5.40302e-06
-6.16193e-05
-2.11352e-05
-6.48832e-06
2.93289e-05
-2.24744e-05
7.62554e-05
-4.5063e-05
0.000111211
-7.18962e-05
0.00013512
-0.000101106
0.000149468
-0.000131257
0.000155954
-0.000161265
0.000156223
-0.000190322
0.000151676
-0.000217809
0.000143369
-0.000243229
0.00013201
-0.000266145
0.000118012
-0.00028614
0.000101569
-0.00030279
8.27408e-05
-0.000315644
6.15306e-05
-0.000324221
3.79515e-05
-0.000328021
1.20959e-05
-0.000326544
-1.58052e-05
-0.000319336
-4.52972e-05
-0.000306057
-7.56292e-05
-0.000286567
-0.000105701
-0.000261032
-0.000134023
-0.000230031
-0.000158733
-0.000194645
-0.000177693
-0.000156489
-0.00018868
-0.000117677
-0.000189668
-8.06793e-05
-0.000179168
-4.81072e-05
-0.000156562
-2.24535e-05
-0.000122346
-5.86783e-06
-7.82049e-05
-2.7003e-05
-6.9883e-06
3.63172e-05
-2.42536e-05
9.35207e-05
-4.8642e-05
0.0001356
-7.75749e-05
0.000164053
-0.000109025
0.000180919
-0.000141458
0.000188386
-0.000173744
0.000188508
-0.000205058
0.00018299
-0.000234791
0.000173101
-0.000262457
0.000159676
-0.000287633
0.000143188
-0.000309906
0.000123841
-0.000328835
0.00010167
-0.000343933
7.66291e-05
-0.000354653
4.86709e-05
-0.000360388
1.78312e-05
-0.0003605
-1.56937e-05
-0.000354352
-5.14448e-05
-0.000341405
-8.85765e-05
-0.000321317
-0.000125789
-0.000294089
-0.00016125
-0.000260221
-0.000192601
-0.000220845
-0.000217068
-0.000177809
-0.000231716
-0.000133634
-0.000233844
-9.13395e-05
-0.000221463
-5.41279e-05
-0.000193774
-2.49981e-05
-0.000151476
-6.4023e-06
-9.68007e-05
-3.34053e-05
-7.5031e-06
4.38203e-05
-2.60772e-05
0.000112095
-5.23058e-05
0.000161828
-8.3388e-05
0.000195135
-0.000117138
0.000214669
-0.000151927
0.000223175
-0.000186581
0.000223162
-0.000220274
0.000216684
-0.000252414
0.000205241
-0.000282545
0.000189807
-0.00031027
0.000170913
-0.000335192
0.000148763
-0.000356871
0.000123349
-0.000374789
9.45466e-05
-0.000388328
6.22103e-05
-0.000396768
2.62707e-05
-0.000399299
-1.31626e-05
-0.000395051
-5.56922e-05
-0.000383209
-0.000100419
-0.000363132
-0.000145866
-0.000334545
-0.000189838
-0.000297761
-0.000229385
-0.0002539
-0.000260928
-0.000205039
-0.000280577
-0.000154207
-0.000284675
-0.000105166
-0.000270504
-6.19538e-05
-0.000236986
-2.83001e-05
-0.00018513
-7.09154e-06
-0.000118009
-4.04969e-05
-8.06054e-06
5.18808e-05
-2.80361e-05
0.00013207
-5.6223e-05
0.000190015
-8.9582e-05
0.000228494
-0.000125761
0.000250848
-0.000163035
0.000260449
-0.000200197
0.000260324
-0.000236428
0.000252915
-0.000271169
0.000239982
-0.00030401
0.000222648
-0.000334602
0.000201505
-0.000362588
0.000176749
-0.000387545
0.000148307
-0.000408945
0.000115946
-0.000426113
7.93784e-05
-0.000438208
3.83664e-05
-0.000444239
-7.13157e-06
-0.000443039
-5.68926e-05
-0.000433432
-0.000110025
-0.000414349
-0.000164949
-0.000385076
-0.000219111
-0.000345565
-0.000268896
-0.00029678
-0.000309714
-0.000240971
-0.000336386
-0.000181764
-0.000343882
-0.000123913
-0.000328355
-7.26644e-05
-0.000288235
-3.28518e-05
-0.000224942
-8.0495e-06
-0.000142811
-4.85464e-05
-8.68133e-06
6.05622e-05
-3.02003e-05
0.000153589
-6.0523e-05
0.000220338
-9.6342e-05
0.000264313
-0.000135123
0.000289629
-0.000175043
0.000300369
-0.000214866
0.000300147
-0.000253794
0.000291843
-0.000291321
0.000277509
-0.000327107
0.000258434
-0.000360876
0.000235274
-0.000392341
0.000208214
-0.000421132
0.000177098
-0.000446744
0.000141558
-0.000468475
0.00010111
-0.000485381
5.52724e-05
-0.00049629
3.77716e-06
-0.000499687
-5.34949e-05
-0.000493952
-0.000115761
-0.000477419
-0.000181482
-0.000448708
-0.000247822
-0.000407139
-0.000310465
-0.000353252
-0.000363601
-0.000289309
-0.00040033
-0.000219568
-0.000413623
-0.000150081
-0.000397841
-8.78395e-05
-0.000350476
-3.93907e-05
-0.000273391
-9.45314e-06
-0.000172749
-5.79995e-05
-9.38303e-06
6.99452e-05
-3.26288e-05
0.000176835
-6.53127e-05
0.000253022
-0.000103815
0.000302815
-0.000145394
0.000331208
-0.000188123
0.000343098
-0.000230744
0.000342769
-0.000272497
0.000333596
-0.00031295
0.000317962
-0.000351861
0.000297344
-0.000389062
0.000272476
-0.000424376
0.000243528
-0.000457536
0.000210258
-0.000488111
0.000172133
-0.000515432
0.00012843
-0.000538512
7.83523e-05
-0.000555942
2.1208e-05
-0.000565981
-4.34561e-05
-0.000566386
-0.000115356
-0.00055473
-0.000193138
-0.00052867
-0.000273882
-0.0004865
-0.000352636
-0.000427906
-0.000422194
-0.000354813
-0.000473422
-0.000272019
-0.000496418
-0.000187185
-0.000482675
-0.000109784
-0.000427877
-4.90292e-05
-0.000334146
-1.15821e-05
-0.000210196
-6.95817e-05
-1.01844e-05
8.01296e-05
-3.53827e-05
0.000202033
-7.06975e-05
0.000288337
-0.000112135
0.000344252
-0.000156715
0.000375788
-0.000202397
0.00038878
-0.00024791
0.000388282
-0.000292548
0.000378234
-0.00033598
0.000361394
-0.000378093
0.000339456
-0.000418868
0.000313251
-0.000458288
0.000282947
-0.000496249
0.00024822
-0.000532474
0.000208358
-0.000566405
0.000162361
-0.000597086
0.000109033
-0.000623024
4.71454e-05
-0.000642154
-2.43258e-05
-0.000651619
-0.000105891
-0.000648047
-0.00019671
-0.00062779
-0.000294139
-0.000587601
-0.000392824
-0.000525684
-0.000484112
-0.000443017
-0.000556089
-0.000344588
-0.000594847
-0.000239862
-0.000587401
-0.000141694
-0.000526045
-6.33751e-05
-0.000412465
-1.48584e-05
-0.000258713
-8.444e-05
-1.11105e-05
9.12401e-05
-3.85394e-05
0.000229462
-7.68044e-05
0.000326602
-0.000121457
0.000388905
-0.000169236
0.000423567
-0.000217975
0.00043752
-0.000266399
0.000436705
-0.000313877
0.000425712
-0.000360207
0.000407724
-0.000405439
0.000384687
-0.000449744
0.000357556
-0.000493321
0.000326524
-0.000536301
0.0002912
-0.00057865
0.000250708
-0.000620038
0.000203748
-0.000659667
0.000148663
-0.000696059
8.35371e-05
-0.000726973
6.58841e-06
-0.00074888
-8.39836e-05
-0.00075738
-0.00018821
-0.00074718
-0.00030434
-0.000712922
-0.000427082
-0.000650526
-0.000546507
-0.00055911
-0.000647506
-0.00044309
-0.000710867
-0.000313568
-0.000716923
-0.000187644
-0.000651969
-8.4601e-05
-0.000515508
-1.9878e-05
-0.000323436
-0.000104318
-1.21989e-05
0.000103439
-4.22098e-05
0.000259473
-8.38099e-05
0.000368202
-0.000131987
0.000437082
-0.000183145
0.000474725
-0.000234983
0.000489357
-0.000286231
0.000487953
-0.000336359
0.00047584
-0.000385319
0.000456684
-0.000433355
0.000432723
-0.000480868
0.000405069
-0.000528322
0.000373978
-0.000576155
0.000339033
-0.000624672
0.000299225
-0.000673895
0.000252971
-0.000723347
0.000198115
-0.000771776
0.000131966
-0.000816694
5.15067e-05
-0.00085441
-4.62672e-05
-0.000879237
-0.000163383
-0.000884089
-0.000299488
-0.000861023
-0.000450148
-0.00080284
-0.00060469
-0.000705624
-0.000744722
-0.000571916
-0.000844575
-0.000413549
-0.00087529
-0.00025222
-0.000813298
-0.000115422
-0.000652306
-2.74383e-05
-0.000411419
-0.000131756
-1.35083e-05
0.000116947
-4.65618e-05
0.000292527
-9.19728e-05
0.000413613
-0.000144021
0.00048913
-0.000198711
0.000529416
-0.000253598
0.000544244
-0.000307438
0.000541793
-0.000359827
0.000528229
-0.000410898
0.000507755
-0.00046111
0.000482936
-0.000511119
0.000455078
-0.000561687
0.000424546
-0.000613605
0.000390952
-0.000667596
0.000353216
-0.000724148
0.000309523
-0.000783255
0.000257222
-0.000844052
0.000192763
-0.000904289
0.000111744
-0.000959969
9.41195e-06
-0.00100455
-0.000118798
-0.00102925
-0.000274795
-0.00102335
-0.000456042
-0.000975965
-0.000652079
-0.000878924
-0.000841762
-0.000731044
-0.000992455
-0.00054284
-0.00106349
-0.000339638
-0.0010165
-0.000158944
-0.000833
-3.85779e-05
-0.000531786
-0.000170334
-1.51323e-05
0.00013208
-5.18516e-05
0.000329246
-0.000101677
0.000463438
-0.000157984
0.000545437
-0.000216308
0.00058774
-0.000274063
0.000601999
-0.000330064
0.000597794
-0.000384064
0.000582229
-0.000436398
0.000560089
-0.000487751
0.000534289
-0.000539031
0.000506358
-0.000591297
0.000476811
-0.000645702
0.000445357
-0.00070341
0.000410924
-0.000765434
0.000371547
-0.000832356
0.000324145
-0.000903894
0.000264301
-0.000978312
0.000186162
-0.00105161
8.27106e-05
-0.00111708
-5.33262e-05
-0.00116467
-0.000227206
-0.00118139
-0.000439323
-0.00115266
-0.000680809
-0.00106526
-0.000929162
-0.000912162
-0.00114555
-0.000699214
-0.00127644
-0.000452113
-0.0012636
-0.000218306
-0.00106681
-5.46552e-05
-0.000695437
-0.00022499
-1.72207e-05
0.0001493
-5.84721e-05
0.000370497
-0.000113486
0.000518452
-0.000174477
0.000606427
-0.000236443
0.000649706
-0.000296684
0.000662241
-0.000354132
0.000655242
-0.000408743
0.000636839
-0.000461069
0.000612416
-0.000512015
0.000585235
-0.000562707
0.00055705
-0.000614454
0.000528558
-0.000668714
0.000499616
-0.000727036
0.000469246
-0.000790925
0.000435436
-0.000861569
0.000394789
-0.00093939
0.000342121
-0.00102339
0.000270162
-0.00111033
0.000169651
-0.00119373
3.00734e-05
-0.00126365
-0.000157283
-0.00130601
-0.000396966
-0.00130356
-0.000683259
-0.00123811
-0.000994611
-0.00109509
-0.00128858
-0.000871462
-0.00150006
-0.000587271
-0.00154779
-0.000295853
-0.00135822
-7.744e-05
-0.00091385
-0.00030243
-2.00186e-05
0.000169319
-6.70284e-05
0.000417507
-0.000128224
0.000579648
-0.000194323
0.000672526
-0.000259746
0.000715129
-0.000321767
0.000724262
-0.000379532
0.000713007
-0.000433268
0.000690574
-0.000483768
0.000662916
-0.000532128
0.000633595
-0.000579637
0.00060456
-0.000627756
0.000576677
-0.000678121
0.000549981
-0.000732522
0.000523647
-0.000792808
0.000495722
-0.000860669
0.000462649
-0.000937233
0.000418686
-0.00102247
0.000355397
-0.00111436
0.000261547
-0.00120808
0.000123792
-0.00129451
-7.08547e-05
-0.00136112
-0.000330353
-0.00138993
-0.000654455
-0.00135923
-0.00102531
-0.00124656
-0.00140125
-0.00103628
-0.00171034
-0.000734679
-0.00184939
-0.000391398
-0.00170151
-0.000109069
-0.00119618
-0.000411499
-2.39403e-05
0.000193259
-7.84629e-05
0.00047203
-0.000147075
0.00064826
-0.000218595
0.000744046
-0.000286907
0.000783441
-0.000349449
0.000786804
-0.000405756
0.000769315
-0.000456434
0.000741251
-0.000502553
0.000709035
-0.000545381
0.000676423
-0.000586293
0.000645472
-0.000626783
0.000617166
-0.000668494
0.000591692
-0.000713245
0.000568398
-0.000762993
0.00054547
-0.000819706
0.000519362
-0.000885101
0.00048408
-0.00096019
0.000430486
-0.00104467
0.000346021
-0.00113621
0.000215332
-0.0012283
2.12412e-05
-0.00131222
-0.000246436
-0.00137198
-0.000594696
-0.00138542
-0.00101187
-0.00132405
-0.00146262
-0.00115825
-0.00187614
-0.00087293
-0.00213471
-0.000499426
-0.00207501
-0.000151589
-0.00154402
-0.000563088
-2.97163e-05
0.000222975
-9.42681e-05
0.000536582
-0.000171724
0.000725715
-0.000248594
0.000820917
-0.000318465
0.000853311
-0.000379305
0.000847644
-0.000431338
0.000821348
-0.000475718
0.000785631
-0.000513872
0.00074719
-0.000547245
0.000709796
-0.000577248
0.000675475
-0.000605301
0.00064522
-0.000632898
0.000619289
-0.000661667
0.000597168
-0.000693412
0.000577214
-0.000730103
0.000556054
-0.000773805
0.000527782
-0.000826491
0.000483173
-0.000889701
0.000409231
-0.000963904
0.000289535
-0.00104837
0.00010571
-0.00113701
-0.000157801
-0.00122057
-0.000511138
-0.00128014
-0.000952292
-0.00128545
-0.00145731
-0.00119545
-0.00196614
-0.000969927
-0.00236023
-0.000606227
-0.00243871
-0.000205759
-0.00194448
-0.000768846
-3.86922e-05
0.000261668
-0.000116843
0.000614732
-0.000204498
0.00081337
-0.000285658
0.000902077
-0.000354254
0.000921907
-0.000409471
0.000902861
-0.000452684
0.000864561
-0.000485872
0.00081882
-0.000510964
0.000772282
-0.000529648
0.000728479
-0.000543385
0.000689212
-0.000553486
0.000655321
-0.000561206
0.000627009
-0.000567842
0.000603804
-0.000574847
0.000584219
-0.000583953
0.00056516
-0.000597307
0.000541136
-0.000617579
0.000503445
-0.000647984
0.000439636
-0.000692059
0.00033361
-0.000753277
0.000166927
-0.000832456
-7.86217e-05
-0.000926916
-0.000416678
-0.00102526
-0.000853946
-0.00110152
-0.00138106
-0.00111002
-0.00195764
-0.000988325
-0.00248193
-0.000688981
-0.00273806
-0.00026897
-0.00236449
-0.00103782
-5.34315e-05
0.000315099
-0.000150035
0.000711336
-0.000248344
0.000911679
-0.000330419
0.000984152
-0.000392002
0.000983491
-0.000434653
0.000945512
-0.000461611
0.000891519
-0.000476088
0.000833297
-0.00048075
0.000776945
-0.000477681
0.00072541
-0.000468485
0.000680016
-0.000454418
0.000641254
-0.000436507
0.000609098
-0.000415691
0.000582987
-0.000392991
0.000561519
-0.000369754
0.000541923
-0.00034796
0.000519342
-0.000330595
0.00048608
-0.000322058
0.000431099
-0.000328197
0.000339749
-0.000356117
0.000194847
-0.00041302
-2.17188e-05
-0.000503054
-0.000326644
-0.000625464
-0.000731535
-0.000763981
-0.00124254
-0.00087832
-0.0018433
-0.000894089
-0.00246616
-0.000718115
-0.00291403
-0.000332656
-0.00274995
-0.00137047
-7.88718e-05
0.000393971
-0.000199722
0.000832186
-0.00030591
0.00101787
-0.000380356
0.0010586
-0.000423578
0.00102671
-0.000441384
0.000963317
-0.000439897
0.000890032
-0.000424112
0.000817512
-0.000397741
0.000750574
-0.000363445
0.000691113
-0.000323085
0.000639656
-0.000277937
0.000596106
-0.000228853
0.000560013
-0.000176455
0.000530589
-0.000121344
0.000506409
-6.44245e-05
0.000485003
-7.35452e-06
0.000462272
4.68933e-05
0.000431832
9.35942e-05
0.000384398
0.000125536
0.000307808
0.000133141
0.000187242
0.000104706
6.71587e-06
2.95759e-05
-0.000251514
-9.89564e-05
-0.000603003
-0.000281479
-0.00106002
-0.000492679
-0.0016321
-0.000661783
-0.00229705
-0.000661316
-0.0029145
-0.000380214
-0.00303106
-0.00175069
-0.000124337
0.000518308
-0.000273227
0.000981076
-0.000374847
0.00111949
-0.000421678
0.00110543
-0.000424481
0.00102952
-0.000396096
0.000934932
-0.000346783
0.00084072
-0.000283821
0.000754549
-0.000212115
0.000678869
-0.000134861
0.000613859
-5.40743e-05
0.00055887
2.90614e-05
0.00051297
0.000113923
0.000475152
0.000200268
0.000444244
0.000287931
0.000418746
0.000376485
0.000396449
0.000464771
0.000373986
0.000550273
0.00034633
0.000628338
0.000306334
0.000691596
0.00024455
0.000729444
0.000149394
0.000727788
8.37175e-06
0.000672166
-0.000195893
0.000545536
-0.000476373
0.000336832
-0.000851312
5.00174e-05
-0.00134529
-0.000268813
-0.00197822
-0.00048416
-0.00269915
-0.000389214
-0.003126
-0.0021399
-0.000206388
0.000724695
-0.000370506
0.00114519
-0.00042783
0.00117681
-0.000402475
0.00108007
-0.000324094
0.000951134
-0.00021544
0.000826279
-9.11977e-05
0.000716477
3.96566e-05
0.000623695
0.000171932
0.000546594
0.000302757
0.000483033
0.000430738
0.000430889
0.000555389
0.00038832
0.000676801
0.000353739
0.000795365
0.000325681
0.000911515
0.000302596
0.00102539
0.000282569
0.00113639
0.000262988
0.00124255
0.000240176
0.00133981
0.000209066
0.00142132
0.000163043
0.00147657
9.41408e-05
0.00149051
-5.55837e-06
0.00144683
-0.000152219
0.00132392
-0.000353459
0.00109979
-0.000627181
0.000756919
-0.00100242
0.000308
-0.0015293
-0.000139222
-0.00225193
-0.000320845
-0.00294438
-0.00246075
-0.000338162
0.00106286
-0.000424112
0.00123114
-0.000333022
0.00108572
-0.000150042
0.000897094
6.95016e-05
0.000731591
0.00029738
0.0005984
0.000519534
0.000494323
0.000729814
0.000413416
0.000926123
0.000350285
0.00110841
0.000300746
0.00127761
0.000261691
0.00143511
0.000230814
0.0015825
0.000206354
0.00172131
0.000186873
0.00185286
0.000171045
0.00197798
0.000157446
0.00209664
0.000144327
0.00220742
0.000129395
0.00230689
0.0001096
0.00238891
8.10201e-05
0.00244371
3.93396e-05
0.00245872
-2.05674e-05
0.00241392
-0.00010742
0.00228741
-0.000226945
0.00205136
-0.000391134
0.00167337
-0.000624431
0.00112434
-0.000980277
0.000455786
-0.00158337
-5.71994e-05
-0.00243139
-0.00251794
-0.000298532
0.00136139
-4.0114e-05
0.000972726
0.000395401
0.000650207
0.000820084
0.00047241
0.00120271
0.000348962
0.00153913
0.000261983
0.00183194
0.000201512
0.00208637
0.000158989
0.00230828
0.000128378
0.00250313
0.000105896
0.00267566
8.91521e-05
0.00282992
7.65563e-05
0.00296928
6.69988e-05
0.0030965
5.96545e-05
0.0032137
5.38375e-05
0.00332227
4.88797e-05
0.00342257
4.40256e-05
0.00351362
3.83474e-05
0.00359253
3.06852e-05
0.00365384
1.97097e-05
0.00368906
4.12014e-06
0.00368852
-2.00259e-05
0.00363371
-5.2613e-05
0.00350342
-9.66535e-05
0.00326967
-0.000157377
0.00289258
-0.000247346
0.00231283
-0.000400529
0.0014791
-0.000749636
0.000501127
-0.00145342
-0.00201682
0.00136139
0.00233412
0.00298432
0.00345673
0.00380569
0.00406768
0.00426919
0.00442818
0.00455656
0.00466245
0.0047516
0.00482816
0.00489516
0.00495481
0.00500865
0.00505753
0.00510156
0.0051399
0.00517059
0.0051903
0.00519442
0.00517439
0.00512178
0.00502513
0.00486775
0.0046204
0.00421987
0.00347024
0.00201682
)
;

boundaryField
{
    movingWall
    {
        type            calculated;
        value           uniform 0;
    }
    fixedWalls
    {
        type            calculated;
        value           uniform 0;
    }
    frontAndBack
    {
        type            empty;
        value           nonuniform 0();
    }
}


// ************************************************************************* //
