/*--------------------------------*- C++ -*----------------------------------*\
  =========                 |
  \\      /  F ield         | OpenFOAM: The Open Source CFD Toolbox
   \\    /   O peration     | Website:  https://openfoam.org
    \\  /    A nd           | Version:  7
     \\/     M anipulation  |
\*---------------------------------------------------------------------------*/
FoamFile
{
    version     2.0;
    format      ascii;
    class       volVectorField;
    location    "3.4";
    object      U;
}
// * * * * * * * * * * * * * * * * * * * * * * * * * * * * * * * * * * * * * //

dimensions      [0 1 -1 0 0 0 0];

internalField   nonuniform List<vector> 
900
(
(5.86171e-05 -5.79277e-05 0)
(2.20888e-05 1.4221e-05 0)
(-0.000279532 9.69342e-05 0)
(-0.000773227 0.000154892 0)
(-0.00139751 0.000188051 0)
(-0.00209495 0.000202526 0)
(-0.00281989 0.000204781 0)
(-0.00354015 0.000199598 0)
(-0.00423368 0.000189815 0)
(-0.00488462 0.000176781 0)
(-0.00548019 0.000160874 0)
(-0.00600862 0.000141922 0)
(-0.00645799 0.000119506 0)
(-0.00681578 9.31802e-05 0)
(-0.00706889 6.26163e-05 0)
(-0.00720419 2.77268e-05 0)
(-0.00720931 -1.12277e-05 0)
(-0.00707383 -5.36008e-05 0)
(-0.00679066 -9.8164e-05 0)
(-0.00635783 -0.000143091 0)
(-0.00578027 -0.000185906 0)
(-0.00507174 -0.000223473 0)
(-0.0042566 -0.000252061 0)
(-0.0033711 -0.000267443 0)
(-0.00246417 -0.000265006 0)
(-0.00159709 -0.000239949 0)
(-0.000841226 -0.0001881 0)
(-0.000269952 -0.000108327 0)
(5.09733e-05 -8.5135e-06 0)
(7.06627e-05 6.93999e-05 0)
(-1.2552e-05 -2.33875e-05 0)
(-0.000367094 0.000365437 0)
(-0.00127383 0.000760745 0)
(-0.00256871 0.0010557 0)
(-0.0041381 0.00124074 0)
(-0.0058717 0.0013325 0)
(-0.00767203 0.00135395 0)
(-0.00946326 0.00132522 0)
(-0.0111886 0.00126049 0)
(-0.0128043 0.00116815 0)
(-0.0142749 0.00105217 0)
(-0.0155686 0.000913641 0)
(-0.0166552 0.000752155 0)
(-0.0175044 0.000566928 0)
(-0.0180866 0.000357665 0)
(-0.018373 0.000125253 0)
(-0.0183379 -0.000127687 0)
(-0.017961 -0.000396055 0)
(-0.0172304 -0.000671983 0)
(-0.0161461 -0.000944398 0)
(-0.0147245 -0.00119883 0)
(-0.0130015 -0.00141754 0)
(-0.0110363 -0.0015801 0)
(-0.00891348 -0.00166441 0)
(-0.00674326 -0.00164836 0)
(-0.00465881 -0.0015125 0)
(-0.00280811 -0.00124508 0)
(-0.00133385 -0.000851636 0)
(-0.000354169 -0.000372621 0)
(-4.5838e-07 5.22027e-05 0)
(-9.93088e-05 0.000280675 0)
(-0.000791303 0.0012791 0)
(-0.00227069 0.00220558 0)
(-0.00425505 0.0029051 0)
(-0.00659066 0.0033562 0)
(-0.00913698 0.00358693 0)
(-0.0117656 0.00364191 0)
(-0.0143728 0.00356397 0)
(-0.0168782 0.00338589 0)
(-0.0192182 0.00312896 0)
(-0.0213399 0.00280483 0)
(-0.0231968 0.00241839 0)
(-0.0247452 0.00197081 0)
(-0.0259429 0.00146215 0)
(-0.026749 0.000893474 0)
(-0.027125 0.000268634 0)
(-0.0270372 -0.000404239 0)
(-0.0264598 -0.00111116 0)
(-0.0253792 -0.00183138 0)
(-0.0237986 -0.00253641 0)
(-0.0217432 -0.00318964 0)
(-0.0192653 -0.00374692 0)
(-0.0164485 -0.00415822 0)
(-0.0134097 -0.00437079 0)
(-0.0102987 -0.00433422 0)
(-0.00729352 -0.00400803 0)
(-0.00458793 -0.00337375 0)
(-0.0023643 -0.00245272 0)
(-0.000782273 -0.00133263 0)
(-8.53681e-05 -0.000242139 0)
(-0.000168208 0.000802951 0)
(-0.0011533 0.00263925 0)
(-0.00313835 0.00422503 0)
(-0.00571413 0.00540469 0)
(-0.00868525 0.00616353 0)
(-0.011887 0.00654892 0)
(-0.01517 0.0066311 0)
(-0.018413 0.00647831 0)
(-0.0215203 0.00614438 0)
(-0.0244154 0.00566572 0)
(-0.027034 0.00506347 0)
(-0.0293193 0.00434778 0)
(-0.0312184 0.00352254 0)
(-0.0326803 0.00258965 0)
(-0.0336562 0.00155258 0)
(-0.0341004 0.000419447 0)
(-0.0339729 -0.00079428 0)
(-0.0332435 -0.00206346 0)
(-0.0318962 -0.0033511 0)
(-0.0299355 -0.00460695 0)
(-0.0273919 -0.00576699 0)
(-0.0243289 -0.00675462 0)
(-0.020847 -0.00748388 0)
(-0.0170869 -0.00786553 0)
(-0.0132271 -0.00781638 0)
(-0.00947866 -0.00727245 0)
(-0.00607045 -0.00620737 0)
(-0.00321803 -0.00465612 0)
(-0.0011239 -0.00274418 0)
(-0.000146171 -0.000748775 0)
(-0.000218414 0.00150257 0)
(-0.00144285 0.00438141 0)
(-0.00385667 0.0067371 0)
(-0.00693393 0.00845216 0)
(-0.0104377 0.0095412 0)
(-0.0141803 0.0100826 0)
(-0.0179957 0.0101781 0)
(-0.0217505 0.00992435 0)
(-0.0253399 0.00939804 0)
(-0.0286793 0.00865192 0)
(-0.0316975 0.00771751 0)
(-0.0343312 0.00661087 0)
(-0.0365209 0.00533909 0)
(-0.0382093 0.00390622 0)
(-0.0393408 0.00231847 0)
(-0.0398629 0.000588665 0)
(-0.0397288 -0.0012597 0)
(-0.038902 -0.00318883 0)
(-0.0373615 -0.00514331 0)
(-0.035109 -0.00704786 0)
(-0.0321766 -0.00880674 0)
(-0.028634 -0.0103056 0)
(-0.0245947 -0.0114167 0)
(-0.020219 -0.0120087 0)
(-0.0157117 -0.0119611 0)
(-0.0113156 -0.0111829 0)
(-0.00729472 -0.00963696 0)
(-0.00390016 -0.00736697 0)
(-0.00137748 -0.00452458 0)
(-0.000183272 -0.00141233 0)
(-0.00025459 0.00234102 0)
(-0.00167219 0.00644268 0)
(-0.00444644 0.00967154 0)
(-0.00795113 0.0119727 0)
(-0.0119101 0.0134098 0)
(-0.0161135 0.0141048 0)
(-0.0203804 0.0141985 0)
(-0.0245683 0.0138202 0)
(-0.0285666 0.0130714 0)
(-0.0322867 0.0120222 0)
(-0.0356535 0.0107149 0)
(-0.0385996 0.00917147 0)
(-0.0410613 0.00740172 0)
(-0.0429756 0.00541138 0)
(-0.0442805 0.00320869 0)
(-0.0449154 0.000810592 0)
(-0.0448247 -0.00175172 0)
(-0.0439618 -0.00442741 0)
(-0.0422963 -0.00714119 0)
(-0.0398222 -0.00978994 0)
(-0.0365675 -0.0122416 0)
(-0.032604 -0.0143378 0)
(-0.0280555 -0.0159017 0)
(-0.0231018 -0.0167523 0)
(-0.017977 -0.0167244 0)
(-0.0129608 -0.0156949 0)
(-0.00835972 -0.0136123 0)
(-0.00446633 -0.0105259 0)
(-0.00156934 -0.00660957 0)
(-0.000204122 -0.00218895 0)
(-0.000282073 0.00328885 0)
(-0.00186034 0.00876937 0)
(-0.00494467 0.0129664 0)
(-0.00882386 0.0159023 0)
(-0.0131859 0.0177049 0)
(-0.0177995 0.0185521 0)
(-0.02247 0.0186316 0)
(-0.0270477 0.0181102 0)
(-0.0314187 0.0171167 0)
(-0.0354925 0.0157397 0)
(-0.0391926 0.0140321 0)
(-0.0424499 0.012021 0)
(-0.0451971 0.00971812 0)
(-0.0473665 0.00712912 0)
(-0.0488886 0.00426253 0)
(-0.0496931 0.0011375 0)
(-0.0497118 -0.0022086 0)
(-0.0488836 -0.00571281 0)
(-0.0471624 -0.00927935 0)
(-0.0445277 -0.0127746 0)
(-0.0409971 -0.0160249 0)
(-0.0366393 -0.0188198 0)
(-0.0315857 -0.0209234 0)
(-0.0260376 -0.0220932 0)
(-0.0202646 -0.0221093 0)
(-0.0145943 -0.0208086 0)
(-0.00938731 -0.0181218 0)
(-0.00498831 -0.0141053 0)
(-0.00173135 -0.00896086 0)
(-0.00021608 -0.00305093 0)
(-0.000305235 0.00432827 0)
(-0.00202585 0.0113265 0)
(-0.00539068 0.0165808 0)
(-0.00961389 0.0201997 0)
(-0.0143505 0.0223874 0)
(-0.0193489 0.0233886 0)
(-0.0244017 0.0234461 0)
(-0.0293534 0.0227692 0)
(-0.0340884 0.0215173 0)
(-0.0385163 0.019798 0)
(-0.0425614 0.017675 0)
(-0.0461542 0.0151794 0)
(-0.0492253 0.0123226 0)
(-0.0517023 0.0091079 0)
(-0.0535076 0.00554102 0)
(-0.0545586 0.00164003 0)
(-0.0547709 -0.00255472 0)
(-0.0540628 -0.00697049 0)
(-0.052365 -0.0114916 0)
(-0.0496339 -0.0159514 0)
(-0.0458673 -0.0201289 0)
(-0.0411234 -0.0237511 0)
(-0.0355377 -0.0265083 0)
(-0.0293345 -0.0280804 0)
(-0.0228276 -0.0281767 0)
(-0.0164074 -0.026583 0)
(-0.0105074 -0.0232089 0)
(-0.00554014 -0.0181247 0)
(-0.00189278 -0.0115757 0)
(-0.000224335 -0.00398811 0)
(-0.000327189 0.00545143 0)
(-0.00218402 0.0140977 0)
(-0.00581915 0.0204957 0)
(-0.0103766 0.0248467 0)
(-0.0154802 0.0274418 0)
(-0.0208585 0.0286026 0)
(-0.0262926 0.0286351 0)
(-0.0316224 0.0277968 0)
(-0.0367321 0.0262806 0)
(-0.0415338 0.0242146 0)
(-0.0459542 0.0216727 0)
(-0.0499253 0.0186887 0)
(-0.0533771 0.0152711 0)
(-0.0562332 0.0114173 0)
(-0.0584074 0.00712583 0)
(-0.0598031 0.00240875 0)
(-0.0603154 -0.00269574 0)
(-0.0598356 -0.00810975 0)
(-0.0582619 -0.0136998 0)
(-0.055516 -0.0192656 0)
(-0.0515638 -0.0245314 0)
(-0.0464409 -0.0291494 0)
(-0.0402786 -0.0327163 0)
(-0.0333239 -0.0348105 0)
(-0.0259441 -0.0350466 0)
(-0.0186122 -0.0331417 0)
(-0.0118615 -0.0289797 0)
(-0.00619855 -0.0226565 0)
(-0.00208029 -0.0144883 0)
(-0.000232084 -0.00500515 0)
(-0.000350034 0.00665798 0)
(-0.00234652 0.0170817 0)
(-0.00625793 0.0247104 0)
(-0.0111573 0.0298442 0)
(-0.0166367 0.0328712 0)
(-0.0224058 0.0342001 0)
(-0.0282346 0.0342086 0)
(-0.0339598 0.0332084 0)
(-0.0394674 0.0314294 0)
(-0.0446739 0.0290218 0)
(-0.0495111 0.0260692 0)
(-0.0539151 0.0226062 0)
(-0.0578175 0.0186358 0)
(-0.0611396 0.0141449 0)
(-0.0637873 0.00911921 0)
(-0.065649 0.00355777 0)
(-0.0665963 -0.00251102 0)
(-0.0664866 -0.00901179 0)
(-0.0651749 -0.0157987 0)
(-0.0625337 -0.0226386 0)
(-0.0584787 -0.0291962 0)
(-0.0530042 -0.0350333 0)
(-0.0462218 -0.0396278 0)
(-0.0383938 -0.0424224 0)
(-0.0299489 -0.0429004 0)
(-0.0214677 -0.0406813 0)
(-0.0136221 -0.0356135 0)
(-0.00705429 -0.027835 0)
(-0.00232266 -0.0177735 0)
(-0.000241593 -0.00611999 0)
(-0.000375162 0.00795301 0)
(-0.00252198 0.0202895 0)
(-0.00672832 0.029239 0)
(-0.0119906 0.0352079 0)
(-0.0178675 0.0386924 0)
(-0.0240488 0.0401992 0)
(-0.0302944 0.0401872 0)
(-0.0364391 0.0390289 0)
(-0.0423733 0.036995 0)
(-0.0480205 0.0342597 0)
(-0.0533208 0.0309163 0)
(-0.0582178 0.0269987 0)
(-0.0626485 0.0225008 0)
(-0.0665353 0.0173943 0)
(-0.0697789 0.0116448 0)
(-0.0722537 0.00522916 0)
(-0.0738067 -0.00184482 0)
(-0.0742554 -0.00951525 0)
(-0.0733997 -0.0176351 0)
(-0.0710452 -0.0259447 0)
(-0.0670325 -0.0340471 0)
(-0.0612851 -0.0413982 0)
(-0.0538662 -0.0473261 0)
(-0.0450346 -0.0510904 0)
(-0.0352813 -0.0519869 0)
(-0.0253229 -0.0494881 0)
(-0.0160251 -0.0433848 0)
(-0.00823187 -0.0338754 0)
(-0.00265878 -0.0215574 0)
(-0.000255599 -0.00736607 0)
(-0.000403538 0.00934552 0)
(-0.00271692 0.023741 0)
(-0.00724674 0.0341067 0)
(-0.0129031 0.0409645 0)
(-0.0192075 0.0449315 0)
(-0.0258287 0.0466253 0)
(-0.0325168 0.0465965 0)
(-0.0391066 0.045286 0)
(-0.0454953 0.0430104 0)
(-0.0516171 0.0399698 0)
(-0.0574247 0.0362681 0)
(-0.0628739 0.0319369 0)
(-0.0679124 0.026958 0)
(-0.0724697 0.0212824 0)
(-0.0764468 0.0148478 0)
(-0.0797088 0.0075972 0)
(-0.0820791 -0.000496831 0)
(-0.0833327 -0.00939944 0)
(-0.0832039 -0.0189846 0)
(-0.0814097 -0.0289803 0)
(-0.0776831 -0.038933 0)
(-0.0718335 -0.0481824 0)
(-0.0638284 -0.0558709 0)
(-0.0538834 -0.0610112 0)
(-0.0425368 -0.0626277 0)
(-0.0306688 -0.059962 0)
(-0.0194128 -0.0526975 0)
(-0.00991645 -0.041108 0)
(-0.00314824 -0.0260414 0)
(-0.000279001 -0.00879975 0)
(-0.000435962 0.0108476 0)
(-0.0029369 0.0274635 0)
(-0.00782703 0.0393475 0)
(-0.0139165 0.0471483 0)
(-0.0206838 0.05162 0)
(-0.0277749 0.0535063 0)
(-0.0349301 0.0534618 0)
(-0.0419862 0.0520051 0)
(-0.0488507 0.0495042 0)
(-0.0554726 0.0461885 0)
(-0.0618221 0.0421734 0)
(-0.0678738 0.0374881 0)
(-0.0735935 0.0321002 0)
(-0.0789263 0.025935 0)
(-0.0837835 0.018894 0)
(-0.0880295 0.010874 0)
(-0.0914676 0.0017942 0)
(-0.0938358 -0.00836556 0)
(-0.0947981 -0.0195252 0)
(-0.0939567 -0.0314284 0)
(-0.0908977 -0.0435857 0)
(-0.0852583 -0.0552206 0)
(-0.0768378 -0.0652557 0)
(-0.0657379 -0.0723775 0)
(-0.0525008 -0.0752156 0)
(-0.0381838 -0.072642 0)
(-0.0242779 -0.0641317 0)
(-0.0123844 -0.0500285 0)
(-0.00388384 -0.0315391 0)
(-0.000320793 -0.0105139 0)
(-0.000473333 0.0124741 0)
(-0.00318784 0.0314909 0)
(-0.00848329 0.0450026 0)
(-0.0150515 0.0537994 0)
(-0.0223206 0.0587918 0)
(-0.0299105 0.0608686 0)
(-0.0375519 0.0608035 0)
(-0.0450863 0.0592032 0)
(-0.0524347 0.056494 0)
(-0.0595662 0.052939 0)
(-0.0664741 0.0486676 0)
(-0.0731593 0.0437076 0)
(-0.079615 0.0380114 0)
(-0.0858133 0.0314757 0)
(-0.091689 0.0239584 0)
(-0.0971205 0.0152968 0)
(-0.101909 0.00533463 0)
(-0.105761 -0.0060383 0)
(-0.108267 -0.0188241 0)
(-0.108899 -0.0328302 0)
(-0.107055 -0.0475745 0)
(-0.102126 -0.0621868 0)
(-0.0936456 -0.0753473 0)
(-0.0814913 -0.0853255 0)
(-0.0661189 -0.0901881 0)
(-0.0487398 -0.0882189 0)
(-0.0312914 -0.0784923 0)
(-0.0160308 -0.0613638 0)
(-0.00500414 -0.0385296 0)
(-0.000396007 -0.0126588 0)
(-0.000516959 0.0142436 0)
(-0.00347752 0.0358648 0)
(-0.00923306 0.0511208 0)
(-0.0163327 0.060962 0)
(-0.0241443 0.0664807 0)
(-0.0322581 0.0687337 0)
(-0.0403955 0.068632 0)
(-0.048405 0.066883 0)
(-0.0562258 0.0639794 0)
(-0.0638515 0.0602233 0)
(-0.0713054 0.0557619 0)
(-0.078622 0.0506248 0)
(-0.0858327 0.0447509 0)
(-0.0929502 0.0380076 0)
(-0.0999497 0.030204 0)
(-0.106744 0.0211046 0)
(-0.113154 0.0104526 0)
(-0.118875 -0.00198646 0)
(-0.123433 -0.0163461 0)
(-0.126162 -0.0325782 0)
(-0.126236 -0.0502801 0)
(-0.122728 -0.068543 0)
(-0.114787 -0.0858103 0)
(-0.101918 -0.0998485 0)
(-0.0843378 -0.107954 0)
(-0.0633171 -0.107503 0)
(-0.0412831 -0.0968348 0)
(-0.0213815 -0.076137 0)
(-0.00670387 -0.0477217 0)
(-0.000527635 -0.0154683 0)
(-0.00056895 0.0161793 0)
(-0.00381745 0.0406366 0)
(-0.0101012 0.05776 0)
(-0.0177938 0.0686851 0)
(-0.02619 0.0747187 0)
(-0.0348461 0.0771146 0)
(-0.0434749 0.0769432 0)
(-0.0519353 0.0750266 0)
(-0.0601889 0.0719336 0)
(-0.0682589 0.0680111 0)
(-0.0762039 0.0634299 0)
(-0.0840995 0.058226 0)
(-0.0920246 0.0523301 0)
(-0.100046 0.0455837 0)
(-0.108199 0.0377461 0)
(-0.116456 0.0285005 0)
(-0.124683 0.0174685 0)
(-0.132586 0.00424882 0)
(-0.139661 -0.0115024 0)
(-0.145127 -0.0299615 0)
(-0.147904 -0.050915 0)
(-0.146695 -0.0735189 0)
(-0.140158 -0.0960339 0)
(-0.127256 -0.115672 0)
(-0.107752 -0.128742 0)
(-0.0827664 -0.131302 0)
(-0.0551339 -0.120419 0)
(-0.0290764 -0.0957042 0)
(-0.0092418 -0.0601195 0)
(-0.000749553 -0.0192927 0)
(-0.000632807 0.0183124 0)
(-0.00422544 0.0458726 0)
(-0.0111247 0.064991 0)
(-0.0194834 0.0770233 0)
(-0.0285069 0.0835341 0)
(-0.0377136 0.086012 0)
(-0.0468094 0.0857122 0)
(-0.055668 0.0835881 0)
(-0.0642778 0.0802936 0)
(-0.0726955 0.0762275 0)
(-0.0810186 0.0715898 0)
(-0.0893683 0.0664306 0)
(-0.0978777 0.0606803 0)
(-0.106678 0.0541623 0)
(-0.115879 0.0465914 0)
(-0.125534 0.0375668 0)
(-0.135587 0.0265718 0)
(-0.145799 0.0129951 0)
(-0.155672 -0.00379785 0)
(-0.164337 -0.0242997 0)
(-0.170505 -0.0486315 0)
(-0.172505 -0.076164 0)
(-0.168447 -0.105095 0)
(-0.156607 -0.132109 0)
(-0.136041 -0.152362 0)
(-0.107374 -0.160149 0)
(-0.0735354 -0.150519 0)
(-0.0398044 -0.12171 0)
(-0.0129495 -0.0770716 0)
(-0.00111382 -0.0246354 0)
(-0.000714394 0.0206862 0)
(-0.00472941 0.0516609 0)
(-0.0123595 0.0729023 0)
(-0.0214726 0.0860376 0)
(-0.0311653 0.0929496 0)
(-0.0409153 0.0954087 0)
(-0.0504257 0.0948862 0)
(-0.0595912 0.0924838 0)
(-0.0684317 0.088949 0)
(-0.0770399 0.0847379 0)
(-0.0855526 0.0800856 0)
(-0.0941362 0.0750639 0)
(-0.102978 0.0696138 0)
(-0.112276 0.0635525 0)
(-0.12222 0.0565615 0)
(-0.132958 0.0481606 0)
(-0.144539 0.0376853 0)
(-0.15682 0.0242854 0)
(-0.169353 0.00698227 0)
(-0.181267 -0.0151599 0)
(-0.191157 -0.0427338 0)
(-0.197063 -0.0755045 0)
(-0.196598 -0.111804 0)
(-0.187301 -0.147933 0)
(-0.167295 -0.177894 0)
(-0.136253 -0.193875 0)
(-0.09658 -0.188025 0)
(-0.0541564 -0.155886 0)
(-0.0182425 -0.100276 0)
(-0.00170786 -0.0322015 0)
(-0.000823705 0.0233634 0)
(-0.00537346 0.0581227 0)
(-0.0138894 0.0816074 0)
(-0.0238639 0.0957967 0)
(-0.0342621 0.102977 0)
(-0.0445223 0.105261 0)
(-0.0543541 0.104374 0)
(-0.0636823 0.10158 0)
(-0.0725639 0.0977276 0)
(-0.0811284 0.0933314 0)
(-0.0895483 0.0886653 0)
(-0.098028 0.0838295 0)
(-0.1068 0.0787858 0)
(-0.116118 0.0733601 0)
(-0.126247 0.0672161 0)
(-0.137425 0.059809 0)
(-0.149813 0.050333 0)
(-0.163395 0.0376903 0)
(-0.177852 0.0205228 0)
(-0.192405 -0.00263023 0)
(-0.205687 -0.0329662 0)
(-0.215662 -0.0707987 0)
(-0.219646 -0.114857 0)
(-0.214557 -0.161364 0)
(-0.197485 -0.203422 0)
(-0.166698 -0.231069 0)
(-0.123181 -0.232791 0)
(-0.0723338 -0.199604 0)
(-0.0256165 -0.131684 0)
(-0.00268644 -0.0429629 0)
(-0.000978337 0.0264383 0)
(-0.00622818 0.065428 0)
(-0.0158407 0.0912524 0)
(-0.0268027 0.106374 0)
(-0.0379249 0.113605 0)
(-0.0486173 0.115485 0)
(-0.0586141 0.114028 0)
(-0.0678853 0.110677 0)
(-0.0765327 0.106378 0)
(-0.0847219 0.101703 0)
(-0.092654 0.0969625 0)
(-0.100559 0.092287 0)
(-0.108694 0.0876672 0)
(-0.117348 0.0829502 0)
(-0.126832 0.0778006 0)
(-0.137455 0.0716314 0)
(-0.149475 0.0635203 0)
(-0.163019 0.0521427 0)
(-0.177958 0.0357733 0)
(-0.193748 0.0124271 0)
(-0.209236 -0.0197587 0)
(-0.222611 -0.0618067 0)
(-0.231274 -0.113099 0)
(-0.231831 -0.170224 0)
(-0.220477 -0.225959 0)
(-0.193806 -0.268655 0)
(-0.150447 -0.282856 0)
(-0.093646 -0.253084 0)
(-0.0355716 -0.173206 0)
(-0.00431527 -0.0582323 0)
(-0.00121077 0.0300575 0)
(-0.00740943 0.0738197 0)
(-0.0184032 0.102024 0)
(-0.0304893 0.117837 0)
(-0.0423093 0.124783 0)
(-0.0532746 0.125928 0)
(-0.063178 0.123618 0)
(-0.0720596 0.119478 0)
(-0.0800776 0.114545 0)
(-0.0874348 0.109433 0)
(-0.0943528 0.10448 0)
(-0.10107 0.099844 0)
(-0.107846 0.0955438 0)
(-0.114971 0.0914559 0)
(-0.122764 0.0872624 0)
(-0.131564 0.0823623 0)
(-0.141695 0.075761 0)
(-0.153417 0.0659687 0)
(-0.166829 0.0509701 0)
(-0.181733 0.0283474 0)
(-0.197415 -0.00436538 0)
(-0.212621 -0.049066 0)
(-0.225253 -0.105909 0)
(-0.232118 -0.172374 0)
(-0.22896 -0.241782 0)
(-0.210827 -0.301854 0)
(-0.173386 -0.333808 0)
(-0.115882 -0.314337 0)
(-0.0483729 -0.226048 0)
(-0.00700707 -0.0796981 0)
(-0.00158428 0.0344582 0)
(-0.00911332 0.0836463 0)
(-0.0218638 0.114148 0)
(-0.0351913 0.13022 0)
(-0.0475798 0.13637 0)
(-0.0585091 0.136319 0)
(-0.0678904 0.13278 0)
(-0.0758729 0.127549 0)
(-0.0826912 0.12173 0)
(-0.0885915 0.115958 0)
(-0.0938119 0.110579 0)
(-0.0985865 0.105763 0)
(-0.103156 0.101551 0)
(-0.107778 0.0978468 0)
(-0.112742 0.0943604 0)
(-0.118366 0.090507 0)
(-0.125001 0.0852767 0)
(-0.133 0.077109 0)
(-0.142684 0.0638315 0)
(-0.154259 0.0427491 0)
(-0.167704 0.0109498 0)
(-0.182479 -0.0341461 0)
(-0.197329 -0.0936931 0)
(-0.209936 -0.166478 0)
(-0.216286 -0.247344 0)
(-0.210522 -0.32492 0)
(-0.185435 -0.378841 0)
(-0.134955 -0.37823 0)
(-0.0635877 -0.289627 0)
(-0.0112995 -0.109326 0)
(-0.00222805 0.0400418 0)
(-0.0116828 0.0954085 0)
(-0.0266542 0.127873 0)
(-0.0412414 0.14346 0)
(-0.0538481 0.148055 0)
(-0.064157 0.146182 0)
(-0.0722964 0.140933 0)
(-0.0785848 0.134242 0)
(-0.0833663 0.127235 0)
(-0.0869467 0.120532 0)
(-0.0895872 0.114462 0)
(-0.0915157 0.109182 0)
(-0.0929425 0.104738 0)
(-0.0940772 0.101051 0)
(-0.0951465 0.0978603 0)
(-0.0964159 0.0946216 0)
(-0.0982121 0.0903699 0)
(-0.100944 0.0835828 0)
(-0.105113 0.0720968 0)
(-0.111302 0.0531464 0)
(-0.120111 0.0236277 0)
(-0.131918 -0.0194018 0)
(-0.146619 -0.078118 0)
(-0.163134 -0.152773 0)
(-0.178527 -0.240551 0)
(-0.187157 -0.332676 0)
(-0.179934 -0.409941 0)
(-0.145288 -0.436459 0)
(-0.079477 -0.360313 0)
(-0.0176742 -0.148987 0)
(-0.00341345 0.0475177 0)
(-0.0157304 0.109809 0)
(-0.0334059 0.143396 0)
(-0.0489759 0.157253 0)
(-0.0609929 0.159192 0)
(-0.0695887 0.154674 0)
(-0.0752661 0.147133 0)
(-0.0786006 0.138565 0)
(-0.0800961 0.130053 0)
(-0.0801488 0.122153 0)
(-0.079062 0.115136 0)
(-0.0770697 0.109122 0)
(-0.0743573 0.104132 0)
(-0.071084 0.100085 0)
(-0.067408 0.0967444 0)
(-0.0635213 0.0936185 0)
(-0.0596966 0.0898366 0)
(-0.0563424 0.0840148 0)
(-0.0540703 0.0741625 0)
(-0.053731 0.0576723 0)
(-0.0564114 0.0315202 0)
(-0.0633291 -0.00738005 0)
(-0.0754773 -0.0617971 0)
(-0.0932772 -0.133298 0)
(-0.115528 -0.221721 0)
(-0.138081 -0.32222 0)
(-0.15183 -0.41993 0)
(-0.140935 -0.478828 0)
(-0.0925628 -0.430609 0)
(-0.0260978 -0.199651 0)
(-0.00571045 0.0582012 0)
(-0.0223429 0.127776 0)
(-0.0429385 0.160635 0)
(-0.058452 0.170742 0)
(-0.0681323 0.168485 0)
(-0.0729894 0.160299 0)
(-0.0741332 0.149825 0)
(-0.0725169 0.138985 0)
(-0.0688694 0.128721 0)
(-0.0637148 0.119457 0)
(-0.0574214 0.111362 0)
(-0.0502439 0.104478 0)
(-0.0423531 0.0987736 0)
(-0.0338659 0.0941408 0)
(-0.0248772 0.0903485 0)
(-0.0155039 0.0869616 0)
(-0.00594638 0.0832322 0)
(0.00343516 0.0779802 0)
(0.0120056 0.0694981 0)
(0.0187837 0.055525 0)
(0.0224 0.0333501 0)
(0.0210605 3.91542e-05 0)
(0.0129861 -0.0473285 0)
(-0.00368891 -0.111259 0)
(-0.0297549 -0.193532 0)
(-0.0635757 -0.293843 0)
(-0.0983602 -0.404354 0)
(-0.116555 -0.495286 0)
(-0.0977203 -0.489406 0)
(-0.035294 -0.260285 0)
(-0.0102756 0.0746619 0)
(-0.033335 0.150336 0)
(-0.0558375 0.178685 0)
(-0.0683497 0.18188 0)
(-0.0720322 0.173403 0)
(-0.0694506 0.160427 0)
(-0.0626284 0.146479 0)
(-0.0530217 0.133174 0)
(-0.041627 0.121166 0)
(-0.0290981 0.110655 0)
(-0.0158533 0.101644 0)
(-0.00214873 0.0940576 0)
(0.0118762 0.0877781 0)
(0.0261574 0.0826457 0)
(0.0406661 0.0784189 0)
(0.0553636 0.0747102 0)
(0.0701306 0.0709001 0)
(0.0846802 0.0660396 0)
(0.0984386 0.0587604 0)
(0.110434 0.0472543 0)
(0.119206 0.0292978 0)
(0.122673 0.00237124 0)
(0.118536 -0.0361949 0)
(0.104108 -0.0892456 0)
(0.0768733 -0.159574 0)
(0.0353859 -0.250514 0)
(-0.0178254 -0.362295 0)
(-0.0670527 -0.477778 0)
(-0.0886677 -0.523457 0)
(-0.0421002 -0.327309 0)
(-0.0192036 0.101663 0)
(-0.0510003 0.177448 0)
(-0.0699873 0.194341 0)
(-0.0719055 0.186101 0)
(-0.0622447 0.169165 0)
(-0.0459181 0.150642 0)
(-0.0260338 0.133263 0)
(-0.00448009 0.117939 0)
(0.0176212 0.104813 0)
(0.0396428 0.0937403 0)
(0.0612598 0.0844948 0)
(0.0823306 0.0768438 0)
(0.102833 0.0705674 0)
(0.122816 0.0654419 0)
(0.142354 0.06121 0)
(0.161507 0.0575275 0)
(0.180246 0.0538988 0)
(0.198377 0.0496054 0)
(0.215424 0.0436348 0)
(0.230516 0.0346487 0)
(0.242255 0.0209871 0)
(0.248487 0.000710288 0)
(0.246765 -0.0281814 0)
(0.233873 -0.0682351 0)
(0.206193 -0.122518 0)
(0.160057 -0.196067 0)
(0.0929184 -0.295882 0)
(0.0145574 -0.421731 0)
(-0.0578328 -0.519824 0)
(-0.0409201 -0.393593 0)
(-0.0343199 0.145075 0)
(-0.0725685 0.201759 0)
(-0.0681436 0.196282 0)
(-0.0427276 0.172184 0)
(-0.00765408 0.146314 0)
(0.0304637 0.123553 0)
(0.0683632 0.104689 0)
(0.104584 0.0893656 0)
(0.138533 0.0769945 0)
(0.170084 0.0670218 0)
(0.199343 0.0589851 0)
(0.22652 0.052514 0)
(0.25187 0.04731 0)
(0.27566 0.0431157 0)
(0.298132 0.0396814 0)
(0.319472 0.0367241 0)
(0.339756 0.0338819 0)
(0.358879 0.0306671 0)
(0.37646 0.0264209 0)
(0.391741 0.0202814 0)
(0.403445 0.0111699 0)
(0.409671 -0.00220904 0)
(0.407945 -0.0210806 0)
(0.394755 -0.0472284 0)
(0.365935 -0.0831011 0)
(0.316796 -0.133475 0)
(0.240686 -0.208454 0)
(0.140079 -0.32518 0)
(0.0080782 -0.465296 0)
(-0.0190702 -0.439892 0)
(-0.0373596 0.236346 0)
(-0.046571 0.204768 0)
(0.0297944 0.154465 0)
(0.10238 0.118425 0)
(0.169852 0.0913821 0)
(0.229978 0.0713147 0)
(0.282399 0.0566665 0)
(0.327857 0.0458991 0)
(0.36737 0.0378503 0)
(0.401926 0.0317463 0)
(0.432386 0.0270716 0)
(0.459483 0.0234679 0)
(0.483832 0.020675 0)
(0.505943 0.0184911 0)
(0.526222 0.016742 0)
(0.544964 0.0152523 0)
(0.562317 0.0138185 0)
(0.578242 0.0121854 0)
(0.592432 0.0100263 0)
(0.604234 0.00693807 0)
(0.61249 0.00243381 0)
(0.615713 -0.0039839 0)
(0.611655 -0.0130714 0)
(0.597157 -0.0256778 0)
(0.567878 -0.0429543 0)
(0.519354 -0.0679497 0)
(0.44134 -0.108238 0)
(0.332418 -0.189915 0)
(0.142186 -0.337263 0)
(0.0601047 -0.413711 0)
(0.231278 0.158523 0)
(0.291711 0.117299 0)
(0.44186 0.0761806 0)
(0.541328 0.0508633 0)
(0.608826 0.0344705 0)
(0.658522 0.0236072 0)
(0.696512 0.0164961 0)
(0.726144 0.0118485 0)
(0.749765 0.0087669 0)
(0.769035 0.00668556 0)
(0.785104 0.0052579 0)
(0.798777 0.00426674 0)
(0.810635 0.00357118 0)
(0.821108 0.00307529 0)
(0.8305 0.00270773 0)
(0.839009 0.00240702 0)
(0.846714 0.00211035 0)
(0.85356 0.00174565 0)
(0.859322 0.00122465 0)
(0.863569 0.000452458 0)
(0.865614 -0.000682683 0)
(0.864471 -0.00219606 0)
(0.858639 -0.00435681 0)
(0.846576 -0.007402 0)
(0.825405 -0.0114943 0)
(0.792973 -0.0175419 0)
(0.737364 -0.027527 0)
(0.659018 -0.0498208 0)
(0.45556 -0.110778 0)
(0.313515 -0.17795 0)
)
;

boundaryField
{
    movingWall
    {
        type            fixedValue;
        value           uniform (1 0 0);
    }
    fixedWalls
    {
        type            noSlip;
    }
    frontAndBack
    {
        type            empty;
    }
}


// ************************************************************************* //
