/*--------------------------------*- C++ -*----------------------------------*\
  =========                 |
  \\      /  F ield         | OpenFOAM: The Open Source CFD Toolbox
   \\    /   O peration     | Website:  https://openfoam.org
    \\  /    A nd           | Version:  7
     \\/     M anipulation  |
\*---------------------------------------------------------------------------*/
FoamFile
{
    version     2.0;
    format      ascii;
    class       volVectorField;
    location    "4.7";
    object      U;
}
// * * * * * * * * * * * * * * * * * * * * * * * * * * * * * * * * * * * * * //

dimensions      [0 1 -1 0 0 0 0];

internalField   nonuniform List<vector> 
900
(
(6.34379e-05 -6.27391e-05 0)
(3.50122e-05 1.00923e-05 0)
(-0.000267724 9.61997e-05 0)
(-0.000778388 0.000159057 0)
(-0.00143656 0.000197364 0)
(-0.00218494 0.000216585 0)
(-0.00297629 0.000222863 0)
(-0.00377568 0.000220826 0)
(-0.00455763 0.000213238 0)
(-0.00530232 0.000201376 0)
(-0.0059926 0.000185478 0)
(-0.00661171 0.000165142 0)
(-0.00714204 0.000139652 0)
(-0.00756463 0.000108266 0)
(-0.00785946 7.04761e-05 0)
(-0.00800662 2.62512e-05 0)
(-0.00798795 -2.37293e-05 0)
(-0.00778946 -7.80046e-05 0)
(-0.007404 -0.000134038 0)
(-0.00683416 -0.000188329 0)
(-0.00609477 -0.000236579 0)
(-0.00521458 -0.000274023 0)
(-0.00423674 -0.000295922 0)
(-0.00321755 -0.000298085 0)
(-0.00222357 -0.000277316 0)
(-0.00132739 -0.000231734 0)
(-0.000600887 -0.000161379 0)
(-0.000101864 -7.10513e-05 0)
(0.000121297 2.08702e-05 0)
(7.87978e-05 7.83396e-05 0)
(-8.2646e-06 -3.67237e-05 0)
(-0.00036515 0.000362792 0)
(-0.00130192 0.000781452 0)
(-0.00266353 0.00110623 0)
(-0.00434072 0.00132309 0)
(-0.00622347 0.0014452 0)
(-0.00821069 0.00149296 0)
(-0.0102199 0.00148475 0)
(-0.0121852 0.00143357 0)
(-0.0140525 0.00134687 0)
(-0.0157743 0.00122763 0)
(-0.0173055 0.00107575 0)
(-0.0186011 0.000889545 0)
(-0.0196154 0.000667217 0)
(-0.0203021 0.000408262 0)
(-0.0206173 0.000114712 0)
(-0.0205232 -0.000207859 0)
(-0.0199927 -0.000548963 0)
(-0.0190152 -0.000893284 0)
(-0.0176025 -0.00122072 0)
(-0.0157939 -0.00150737 0)
(-0.013659 -0.00172749 0)
(-0.0112982 -0.00185611 0)
(-0.00883926 -0.00187214 0)
(-0.00643028 -0.00176145 0)
(-0.0042286 -0.0015197 0)
(-0.00238508 -0.0011563 0)
(-0.00102015 -0.000702457 0)
(-0.000206708 -0.000229204 0)
(2.80628e-05 0.00011969 0)
(-9.95622e-05 0.000269464 0)
(-0.000819317 0.00130817 0)
(-0.00237968 0.00230053 0)
(-0.00450012 0.00307923 0)
(-0.00703136 0.00361415 0)
(-0.00983259 0.00392512 0)
(-0.0127697 0.00404979 0)
(-0.015729 0.0040257 0)
(-0.0186165 0.00388185 0)
(-0.0213525 0.00363665 0)
(-0.0238661 0.00329898 0)
(-0.0260908 0.00287088 0)
(-0.0279611 0.00235078 0)
(-0.0294117 0.00173696 0)
(-0.0303783 0.00103085 0)
(-0.0308012 0.000240154 0)
(-0.0306298 -0.000618514 0)
(-0.0298292 -0.00151724 0)
(-0.0283885 -0.00241645 0)
(-0.0263274 -0.00326534 0)
(-0.0237032 -0.00400451 0)
(-0.0206147 -0.00457075 0)
(-0.0172022 -0.00490369 0)
(-0.0136428 -0.00495357 0)
(-0.0101392 -0.00468941 0)
(-0.00690488 -0.0041069 0)
(-0.0041415 -0.00323719 0)
(-0.00200709 -0.00215877 0)
(-0.00060131 -0.0010155 0)
(-4.48783e-05 -7.36278e-05 0)
(-0.000176228 0.000815736 0)
(-0.00122566 0.00274874 0)
(-0.00335983 0.0044631 0)
(-0.00615852 0.00578894 0)
(-0.00942762 0.00669946 0)
(-0.0130002 0.00722883 0)
(-0.0167188 0.0074352 0)
(-0.020449 0.00737712 0)
(-0.0240779 0.00710124 0)
(-0.0275085 0.00663839 0)
(-0.0306538 0.00600469 0)
(-0.0334315 0.00520537 0)
(-0.0357612 0.00423992 0)
(-0.037563 0.0031077 0)
(-0.0387587 0.00181358 0)
(-0.0392758 0.000373246 0)
(-0.039053 -0.00118212 0)
(-0.038048 -0.00280277 0)
(-0.0362469 -0.00441853 0)
(-0.0336732 -0.00594014 0)
(-0.0303958 -0.00726395 0)
(-0.0265343 -0.00828018 0)
(-0.0222593 -0.00888467 0)
(-0.0177863 -0.00899278 0)
(-0.0133626 -0.00855393 0)
(-0.00924751 -0.00756519 0)
(-0.00568596 -0.00608408 0)
(-0.00287064 -0.0042412 0)
(-0.000936752 -0.00225464 0)
(-0.000102326 -0.000475132 0)
(-0.000235917 0.00156656 0)
(-0.00156848 0.0046328 0)
(-0.00421125 0.00720258 0)
(-0.00761013 0.00914756 0)
(-0.0115242 0.0104691 0)
(-0.0157609 0.0112284 0)
(-0.0201432 0.01151 0)
(-0.0245219 0.0113963 0)
(-0.0287723 0.0109528 0)
(-0.0327862 0.0102237 0)
(-0.0364662 0.00923271 0)
(-0.0397193 0.0079885 0)
(-0.0424541 0.00649167 0)
(-0.0445791 0.00474277 0)
(-0.0460038 0.00275042 0)
(-0.0466428 0.000539064 0)
(-0.0464223 -0.00184416 0)
(-0.0452887 -0.0043244 0)
(-0.0432196 -0.00679633 0)
(-0.0402355 -0.00912594 0)
(-0.0364096 -0.0111573 0)
(-0.0318759 -0.0127249 0)
(-0.0268304 -0.0136717 0)
(-0.0215249 -0.0138708 0)
(-0.0162513 -0.0132476 0)
(-0.0113182 -0.0118 0)
(-0.00701852 -0.00961476 0)
(-0.00358514 -0.00687724 0)
(-0.00119119 -0.00387724 0)
(-0.000136881 -0.00103088 0)
(-0.000282075 0.00248688 0)
(-0.0018541 0.00690429 0)
(-0.00494136 0.0104571 0)
(-0.00887032 0.0130883 0)
(-0.0133549 0.0148503 0)
(-0.0181769 0.0158455 0)
(-0.0231421 0.0161932 0)
(-0.0280902 0.0160036 0)
(-0.0328889 0.0153636 0)
(-0.0374244 0.0143311 0)
(-0.0415931 0.0129376 0)
(-0.0452955 0.0111942 0)
(-0.0484321 0.00910178 0)
(-0.0509012 0.00666057 0)
(-0.0525997 0.00388152 0)
(-0.0534274 0.000796732 0)
(-0.0532931 -0.00253095 0)
(-0.0521251 -0.00600038 0)
(-0.0498841 -0.00946766 0)
(-0.0465779 -0.0127478 0)
(-0.0422751 -0.0156235 0)
(-0.0371172 -0.0178618 0)
(-0.0313227 -0.0192399 0)
(-0.0251828 -0.0195766 0)
(-0.0190428 -0.0187652 0)
(-0.0132731 -0.0168018 0)
(-0.00822879 -0.0138054 0)
(-0.00419426 -0.0100233 0)
(-0.00138189 -0.00582454 0)
(-0.000152717 -0.00169785 0)
(-0.000319001 0.00354735 0)
(-0.0020959 0.00950969 0)
(-0.00557368 0.0141644 0)
(-0.0099753 0.0175463 0)
(-0.014973 0.0197771 0)
(-0.0203244 0.0210145 0)
(-0.0258196 0.0214217 0)
(-0.0312902 0.0211424 0)
(-0.0366003 0.0202872 0)
(-0.0416339 0.0189289 0)
(-0.0462855 0.0171059 0)
(-0.0504525 0.0148307 0)
(-0.0540298 0.0121017 0)
(-0.0569062 0.00891595 0)
(-0.0589652 0.00528313 0)
(-0.0600877 0.00123952 0)
(-0.0601592 -0.00313903 0)
(-0.0590805 -0.0077263 0)
(-0.0567835 -0.0123378 0)
(-0.0532499 -0.0167317 0)
(-0.0485313 -0.0206179 0)
(-0.0427667 -0.0236807 0)
(-0.0361943 -0.0256123 0)
(-0.0291495 -0.0261582 0)
(-0.0220452 -0.0251649 0)
(-0.0153357 -0.0226211 0)
(-0.00946191 -0.0186825 0)
(-0.00477814 -0.0136738 0)
(-0.00154136 -0.00806461 0)
(-0.000156532 -0.00244553 0)
(-0.000350221 0.00472726 0)
(-0.00230757 0.0124079 0)
(-0.00613571 0.0182759 0)
(-0.0109674 0.0224714 0)
(-0.0164373 0.0252012 0)
(-0.0222808 0.0266913 0)
(-0.0282747 0.0271578 0)
(-0.0342453 0.0267843 0)
(-0.040056 0.0257082 0)
(-0.0455928 0.0240183 0)
(-0.0507521 0.0217594 0)
(-0.0554318 0.018943 0)
(-0.0595234 0.0155614 0)
(-0.062908 0.0116034 0)
(-0.0654541 0.00707179 0)
(-0.0670203 0.00200051 0)
(-0.0674612 -0.00352754 0)
(-0.0666387 -0.00936555 0)
(-0.0644402 -0.0152889 0)
(-0.0608037 -0.0209933 0)
(-0.0557445 -0.026104 0)
(-0.0493841 -0.0302006 0)
(-0.041972 -0.0328633 0)
(-0.0338918 -0.0337343 0)
(-0.025643 -0.0325885 0)
(-0.0177943 -0.0293948 0)
(-0.0109086 -0.0243523 0)
(-0.00544127 -0.0178877 0)
(-0.00170842 -0.0106105 0)
(-0.000154388 -0.00326269 0)
(-0.000378215 0.00601349 0)
(-0.00250066 0.0155711 0)
(-0.00665285 0.0227577 0)
(-0.0118865 0.0278298 0)
(-0.0178024 0.0310919 0)
(-0.024116 0.0328505 0)
(-0.0305933 0.0333843 0)
(-0.037058 0.0329231 0)
(-0.0433767 0.0316353 0)
(-0.0494412 0.0296268 0)
(-0.0551546 0.0269481 0)
(-0.060419 0.0236068 0)
(-0.0651268 0.0195847 0)
(-0.0691533 0.0148555 0)
(-0.0723526 0.00940648 0)
(-0.0745577 0.00325953 0)
(-0.0755854 -0.00350575 0)
(-0.0752454 -0.0107316 0)
(-0.0733614 -0.0181574 0)
(-0.0698035 -0.0254143 0)
(-0.0645233 -0.032029 0)
(-0.0575988 -0.0374506 0)
(-0.0492734 -0.0411082 0)
(-0.0399776 -0.0424953 0)
(-0.0303171 -0.0412733 0)
(-0.0210161 -0.0373673 0)
(-0.0128135 -0.0310248 0)
(-0.00631547 -0.0228106 0)
(-0.00192878 -0.0135334 0)
(-0.000151922 -0.0041603 0)
(-0.000404642 0.0073987 0)
(-0.00268414 0.018983 0)
(-0.0071461 0.0275898 0)
(-0.0127663 0.0336012 0)
(-0.0191139 0.0374319 0)
(-0.0258866 0.03948 0)
(-0.0328422 0.0400972 0)
(-0.039805 0.0395664 0)
(-0.0466488 0.0380915 0)
(-0.0532761 0.0357975 0)
(-0.0596016 0.03274 0)
(-0.0655379 0.02892 0)
(-0.0709835 0.0243028 0)
(-0.0758128 0.0188393 0)
(-0.079868 0.0124895 0)
(-0.0829558 0.00524937 0)
(-0.0848503 -0.00282073 0)
(-0.0852948 -0.0115678 0)
(-0.0840261 -0.0207073 0)
(-0.0808156 -0.0298095 0)
(-0.075513 -0.0382912 0)
(-0.0681124 -0.0454404 0)
(-0.0588185 -0.050483 0)
(-0.0480949 -0.0526968 0)
(-0.0366695 -0.0515619 0)
(-0.0254722 -0.046913 0)
(-0.0154942 -0.0390422 0)
(-0.00757167 -0.0286995 0)
(-0.00226021 -0.0169784 0)
(-0.000155518 -0.00517539 0)
(-0.000430583 0.00887975 0)
(-0.00286468 0.0226362 0)
(-0.00763181 0.0327629 0)
(-0.0136329 0.0397762 0)
(-0.0204065 0.0442132 0)
(-0.0276339 0.046576 0)
(-0.035067 0.0472993 0)
(-0.0425344 0.0467276 0)
(-0.0499214 0.0451055 0)
(-0.0571469 0.04258 0)
(-0.0641438 0.0392118 0)
(-0.0708427 0.0349927 0)
(-0.0771565 0.0298662 0)
(-0.0829663 0.0237503 0)
(-0.0881092 0.0165642 0)
(-0.0923686 0.00825757 0)
(-0.0954728 -0.00115141 0)
(-0.0970873 -0.0115296 0)
(-0.0968375 -0.0226029 0)
(-0.0943589 -0.0338927 0)
(-0.0893489 -0.0447009 0)
(-0.0816603 -0.0541221 0)
(-0.0714047 -0.0611144 0)
(-0.0590443 -0.0646452 0)
(-0.0454316 -0.0639073 0)
(-0.0317559 -0.0585603 0)
(-0.0193614 -0.0489139 0)
(-0.00943436 -0.0359575 0)
(-0.0027789 -0.0211879 0)
(-0.000173549 -0.00637847 0)
(-0.000456743 0.0104565 0)
(-0.00304729 0.0265305 0)
(-0.00812249 0.038276 0)
(-0.0145061 0.0463529 0)
(-0.0217047 0.0514334 0)
(-0.0293841 0.054137 0)
(-0.0372922 0.0549932 0)
(-0.0452653 0.0544175 0)
(-0.0532052 0.0527017 0)
(-0.0610534 0.0500188 0)
(-0.0687691 0.0464361 0)
(-0.0763102 0.0419348 0)
(-0.0836145 0.0364313 0)
(-0.0905822 0.0298014 0)
(-0.0970569 0.0219071 0)
(-0.102807 0.0126298 0)
(-0.107507 0.00191482 0)
(-0.110747 -0.0101699 0)
(-0.112027 -0.0233895 0)
(-0.110795 -0.0372468 0)
(-0.106538 -0.050939 0)
(-0.0988959 -0.0633413 0)
(-0.0878077 -0.0730701 0)
(-0.0736681 -0.0786591 0)
(-0.0574275 -0.0788573 0)
(-0.0405754 -0.0730031 0)
(-0.0249285 -0.0613503 0)
(-0.0121931 -0.0451733 0)
(-0.00358509 -0.0265315 0)
(-0.000217351 -0.00788466 0)
(-0.000483668 0.0121312 0)
(-0.00323615 0.0306714 0)
(-0.00862861 0.0441344 0)
(-0.0154012 0.0533339 0)
(-0.0230257 0.0590914 0)
(-0.0311515 0.062159 0)
(-0.0395242 0.0631747 0)
(-0.0479906 0.0626357 0)
(-0.0564743 0.0608894 0)
(-0.064946 0.0581403 0)
(-0.0733995 0.0544658 0)
(-0.0818305 0.0498367 0)
(-0.0902152 0.044139 0)
(-0.0984868 0.0371969 0)
(-0.10651 0.0287986 0)
(-0.114053 0.0187308 0)
(-0.120755 0.00682649 0)
(-0.126121 -0.00696964 0)
(-0.129504 -0.0225036 0)
(-0.13014 -0.0393146 0)
(-0.127248 -0.0565255 0)
(-0.120171 -0.0727819 0)
(-0.108574 -0.0862868 0)
(-0.0926796 -0.0949941 0)
(-0.0734581 -0.0969973 0)
(-0.0526962 -0.0910803 0)
(-0.0327968 -0.0772787 0)
(-0.0162064 -0.0571593 0)
(-0.00480711 -0.0335405 0)
(-0.000301999 -0.00986724 0)
(-0.000512003 0.0139081 0)
(-0.00343595 0.0350691 0)
(-0.00916117 0.0503486 0)
(-0.0163333 0.0607239 0)
(-0.024384 0.0671834 0)
(-0.0329437 0.0706297 0)
(-0.0417561 0.071825 0)
(-0.0506818 0.0713608 0)
(-0.0596702 0.0696502 0)
(-0.0687273 0.0669369 0)
(-0.0778898 0.0633136 0)
(-0.0872018 0.0587438 0)
(-0.0966907 0.0530818 0)
(-0.106339 0.0460929 0)
(-0.116052 0.0374747 0)
(-0.125615 0.0268884 0)
(-0.134652 0.0140094 0)
(-0.14259 -0.00139201 0)
(-0.148638 -0.0193204 0)
(-0.151808 -0.0394263 0)
(-0.151007 -0.0608138 0)
(-0.145208 -0.0819166 0)
(-0.133694 -0.100475 0)
(-0.116369 -0.113717 0)
(-0.0940767 -0.118824 0)
(-0.0688068 -0.113688 0)
(-0.0436019 -0.0978178 0)
(-0.0218942 -0.0729727 0)
(-0.00660458 -0.0429414 0)
(-0.000447418 -0.0125733 0)
(-0.000542825 0.0157944 0)
(-0.00365344 0.0397404 0)
(-0.0097353 0.0569341 0)
(-0.0173223 0.068529 0)
(-0.0257972 0.0757009 0)
(-0.0347678 0.0795241 0)
(-0.0439755 0.0809037 0)
(-0.0532964 0.0805407 0)
(-0.0627089 0.078925 0)
(-0.072259 0.0763488 0)
(-0.082032 0.0729277 0)
(-0.0921285 0.0686233 0)
(-0.102638 0.0632607 0)
(-0.113607 0.0565416 0)
(-0.124999 0.0480589 0)
(-0.13664 0.0373205 0)
(-0.148162 0.0237993 0)
(-0.158939 0.00702617 0)
(-0.168065 -0.0132545 0)
(-0.174346 -0.0368833 0)
(-0.176375 -0.0630323 0)
(-0.17272 -0.0899844 0)
(-0.162189 -0.115017 0)
(-0.144205 -0.134531 0)
(-0.119249 -0.144534 0)
(-0.0892865 -0.141591 0)
(-0.0579039 -0.124171 0)
(-0.0297137 -0.0939004 0)
(-0.00917211 -0.0556833 0)
(-0.000680993 -0.0163414 0)
(-0.000578109 0.0178015 0)
(-0.00389973 0.044711 0)
(-0.0103748 0.0639144 0)
(-0.0183992 0.0767568 0)
(-0.0272942 0.0846277 0)
(-0.0366398 0.0887997 0)
(-0.0461733 0.0903424 0)
(-0.0557874 0.0900826 0)
(-0.0654913 0.0885998 0)
(-0.075372 0.0862445 0)
(-0.0855657 0.0831644 0)
(-0.096232 0.0793268 0)
(-0.107528 0.0745323 0)
(-0.119571 0.0684194 0)
(-0.132397 0.0604666 0)
(-0.145894 0.0500061 0)
(-0.159733 0.036269 0)
(-0.173287 0.018486 0)
(-0.185582 -0.00393195 0)
(-0.195275 -0.0311113 0)
(-0.200719 -0.0623922 0)
(-0.200111 -0.0960216 0)
(-0.191743 -0.128897 0)
(-0.174408 -0.156585 0)
(-0.147936 -0.173736 0)
(-0.113867 -0.175115 0)
(-0.0759933 -0.157401 0)
(-0.0401027 -0.121372 0)
(-0.0127432 -0.0729474 0)
(-0.00104301 -0.0216229 0)
(-0.000621399 0.0199489 0)
(-0.00419327 0.0500214 0)
(-0.0111184 0.071325 0)
(-0.0196143 0.0854184 0)
(-0.0289242 0.0939401 0)
(-0.0385935 0.0983936 0)
(-0.0483542 0.100038 0)
(-0.0581153 0.0998448 0)
(-0.0679162 0.0984937 0)
(-0.0778834 0.0964039 0)
(-0.0881994 0.0937635 0)
(-0.0990783 0.0905541 0)
(-0.110739 0.0865591 0)
(-0.123372 0.0813579 0)
(-0.137087 0.074313 0)
(-0.151851 0.0645691 0)
(-0.167408 0.0510902 0)
(-0.183188 0.0327675 0)
(-0.19824 0.00862649 0)
(-0.211182 -0.0218418 0)
(-0.220265 -0.0582511 0)
(-0.223445 -0.0989726 0)
(-0.218554 -0.140705 0)
(-0.203674 -0.178335 0)
(-0.177698 -0.205148 0)
(-0.14122 -0.213729 0)
(-0.0975895 -0.198039 0)
(-0.053361 -0.156754 0)
(-0.0175878 -0.0961199 0)
(-0.00159575 -0.0290077 0)
(-0.000678885 0.0222685 0)
(-0.00456429 0.0557356 0)
(-0.0120274 0.079221 0)
(-0.021047 0.0945319 0)
(-0.0307669 0.103606 0)
(-0.0406911 0.108219 0)
(-0.0505462 0.10985 0)
(-0.0602583 0.109629 0)
(-0.0698954 0.10835 0)
(-0.0796167 0.106506 0)
(-0.0896414 0.104332 0)
(-0.100224 0.101831 0)
(-0.111633 0.0987769 0)
(-0.124113 0.0946995 0)
(-0.137848 0.088853 0)
(-0.152888 0.0802005 0)
(-0.169082 0.0674415 0)
(-0.185986 0.0491241 0)
(-0.202784 0.0238757 0)
(-0.2182 -0.00924337 0)
(-0.230588 -0.0502976 0)
(-0.237887 -0.097879 0)
(-0.237635 -0.148785 0)
(-0.227261 -0.197567 0)
(-0.204544 -0.236413 0)
(-0.168607 -0.255627 0)
(-0.121453 -0.245563 0)
(-0.0694339 -0.200969 0)
(-0.0239892 -0.126688 0)
(-0.00243678 -0.0392514 0)
(-0.0007613 0.0248137 0)
(-0.00506161 0.0619546 0)
(-0.0131975 0.0876867 0)
(-0.0228184 0.104126 0)
(-0.0329428 0.113583 0)
(-0.0430307 0.11816 0)
(-0.0528074 0.11959 0)
(-0.0622199 0.119178 0)
(-0.0713628 0.117835 0)
(-0.0804204 0.11613 0)
(-0.0896331 0.114346 0)
(-0.0992765 0.112511 0)
(-0.109642 0.1104 0)
(-0.121011 0.107503 0)
(-0.133618 0.102986 0)
(-0.147602 0.0956573 0)
(-0.162936 0.0839866 0)
(-0.179359 0.066217 0)
(-0.196308 0.0406059 0)
(-0.212854 0.00578447 0)
(-0.227595 -0.0387909 0)
(-0.238674 -0.0921537 0)
(-0.243701 -0.151534 0)
(-0.239664 -0.211653 0)
(-0.223273 -0.264179 0)
(-0.191832 -0.297488 0)
(-0.145062 -0.297827 0)
(-0.087603 -0.253914 0)
(-0.0321834 -0.165999 0)
(-0.00371608 -0.0532924 0)
(-0.000887595 0.0276725 0)
(-0.00576397 0.0688358 0)
(-0.0147744 0.0968483 0)
(-0.0251054 0.114244 0)
(-0.035623 0.123816 0)
(-0.0457496 0.128068 0)
(-0.0552232 0.129022 0)
(-0.0640229 0.128169 0)
(-0.0722718 0.126536 0)
(-0.0801716 0.124761 0)
(-0.0879683 0.12317 0)
(-0.0959356 0.121816 0)
(-0.104362 0.120476 0)
(-0.113539 0.118621 0)
(-0.123732 0.115358 0)
(-0.135157 0.109388 0)
(-0.14793 0.0990176 0)
(-0.162024 0.0822643 0)
(-0.177216 0.0570936 0)
(-0.193017 0.0217766 0)
(-0.20851 -0.024645 0)
(-0.222352 -0.0818793 0)
(-0.232496 -0.147883 0)
(-0.235881 -0.218125 0)
(-0.228473 -0.284605 0)
(-0.205792 -0.334673 0)
(-0.164622 -0.35073 0)
(-0.106189 -0.313748 0)
(-0.0422469 -0.214819 0)
(-0.00565597 -0.0722433 0)
(-0.00109259 0.0309907 0)
(-0.00680019 0.0766213 0)
(-0.0169789 0.106887 0)
(-0.0281585 0.124938 0)
(-0.0390327 0.134221 0)
(-0.0490134 0.137741 0)
(-0.0578838 0.137844 0)
(-0.0656779 0.136212 0)
(-0.072558 0.133974 0)
(-0.0787407 0.13182 0)
(-0.0844665 0.130106 0)
(-0.0899891 0.128901 0)
(-0.0955733 0.127993 0)
(-0.101494 0.12685 0)
(-0.108033 0.124557 0)
(-0.115469 0.119773 0)
(-0.124066 0.110731 0)
(-0.134046 0.0953405 0)
(-0.145567 0.0714043 0)
(-0.158647 0.0369536 0)
(-0.172982 -0.00936429 0)
(-0.187948 -0.0680015 0)
(-0.202114 -0.137773 0)
(-0.21284 -0.215432 0)
(-0.215928 -0.294276 0)
(-0.205601 -0.362014 0)
(-0.175628 -0.398475 0)
(-0.122479 -0.376383 0)
(-0.0539321 -0.272703 0)
(-0.00856455 -0.097334 0)
(-0.00144353 0.0350137 0)
(-0.00838634 0.0856774 0)
(-0.0201431 0.118045 0)
(-0.0323186 0.136251 0)
(-0.0434406 0.144656 0)
(-0.0529772 0.146892 0)
(-0.0608189 0.145662 0)
(-0.0670971 0.14283 0)
(-0.0720358 0.139596 0)
(-0.0758753 0.136675 0)
(-0.0788487 0.134432 0)
(-0.0811827 0.132942 0)
(-0.083107 0.132003 0)
(-0.0848691 0.131098 0)
(-0.0867503 0.129335 0)
(-0.0890829 0.125399 0)
(-0.0922609 0.117547 0)
(-0.0967429 0.103701 0)
(-0.103043 0.0816434 0)
(-0.111675 0.0492717 0)
(-0.123066 0.00494777 0)
(-0.13726 -0.0523056 0)
(-0.153587 -0.122358 0)
(-0.170319 -0.203524 0)
(-0.183795 -0.291201 0)
(-0.18784 -0.375042 0)
(-0.173856 -0.434538 0)
(-0.133045 -0.435562 0)
(-0.0664579 -0.337316 0)
(-0.0128104 -0.129787 0)
(-0.00207633 0.0401643 0)
(-0.0108951 0.0965486 0)
(-0.0247634 0.130621 0)
(-0.0380209 0.148162 0)
(-0.0491045 0.154846 0)
(-0.0576767 0.155076 0)
(-0.0638412 0.151932 0)
(-0.0678947 0.147415 0)
(-0.070162 0.142754 0)
(-0.0709287 0.138649 0)
(-0.0704336 0.135443 0)
(-0.0688825 0.133201 0)
(-0.0664727 0.131729 0)
(-0.0634222 0.130542 0)
(-0.0600051 0.12881 0)
(-0.0565917 0.125306 0)
(-0.0536789 0.1184 0)
(-0.0519093 0.10614 0)
(-0.0521145 0.0864206 0)
(-0.055223 0.0570998 0)
(-0.0621603 0.0164073 0)
(-0.0737191 -0.0369101 0)
(-0.0901269 -0.103758 0)
(-0.110647 -0.183958 0)
(-0.132822 -0.275409 0)
(-0.15122 -0.371122 0)
(-0.156221 -0.45305 0)
(-0.134326 -0.483708 0)
(-0.0782966 -0.404013 0)
(-0.018693 -0.170578 0)
(-0.00327289 0.0471944 0)
(-0.0149801 0.110017 0)
(-0.0315556 0.144901 0)
(-0.0457355 0.16046 0)
(-0.0560947 0.164239 0)
(-0.062746 0.161557 0)
(-0.0661739 0.155833 0)
(-0.0669372 0.149131 0)
(-0.0655186 0.142632 0)
(-0.0622849 0.136968 0)
(-0.0575048 0.132424 0)
(-0.0513817 0.129034 0)
(-0.0440918 0.126603 0)
(-0.0358276 0.12469 0)
(-0.0268491 0.122551 0)
(-0.0175423 0.119101 0)
(-0.00846074 0.112897 0)
(-0.000343369 0.102191 0)
(0.00573477 0.0850437 0)
(0.00854561 0.0594845 0)
(0.00686401 0.0237029 0)
(-0.000749681 -0.0238474 0)
(-0.0153164 -0.0845288 0)
(-0.0370929 -0.159423 0)
(-0.065236 -0.248842 0)
(-0.0961092 -0.349943 0)
(-0.120908 -0.44991 0)
(-0.123016 -0.513111 0)
(-0.0869854 -0.465819 0)
(-0.0261205 -0.219964 0)
(-0.00561681 0.0574898 0)
(-0.0217769 0.127137 0)
(-0.0414336 0.160947 0)
(-0.0556683 0.17244 0)
(-0.0637456 0.171706 0)
(-0.0666683 0.165032 0)
(-0.0655435 0.15604 0)
(-0.0613185 0.146715 0)
(-0.0547021 0.138086 0)
(-0.046183 0.130643 0)
(-0.0360853 0.124566 0)
(-0.0246254 0.119826 0)
(-0.0119666 0.116218 0)
(0.00172724 0.113334 0)
(0.016228 0.110534 0)
(0.0311743 0.106896 0)
(0.0460101 0.101209 0)
(0.0599388 0.0919856 0)
(0.071844 0.0775137 0)
(0.0803503 0.0560944 0)
(0.0839216 0.0259986 0)
(0.0808232 -0.0144564 0)
(0.0694608 -0.0667874 0)
(0.0485412 -0.132812 0)
(0.0173028 -0.214585 0)
(-0.0230427 -0.313203 0)
(-0.0665115 -0.423234 0)
(-0.095743 -0.516771 0)
(-0.0889206 -0.513686 0)
(-0.0340664 -0.276846 0)
(-0.0102735 0.0737212 0)
(-0.0331318 0.149106 0)
(-0.0550433 0.178044 0)
(-0.0665995 0.182265 0)
(-0.0689749 0.174953 0)
(-0.0647451 0.163141 0)
(-0.0559469 0.150335 0)
(-0.04404 0.138197 0)
(-0.0300014 0.127445 0)
(-0.0144453 0.11833 0)
(0.00226133 0.110867 0)
(0.0199085 0.104925 0)
(0.038369 0.100259 0)
(0.0575322 0.0964876 0)
(0.0772364 0.093063 0)
(0.0971939 0.0892328 0)
(0.116918 0.0840213 0)
(0.13566 0.0762342 0)
(0.152352 0.0644902 0)
(0.16561 0.0473422 0)
(0.173761 0.0232896 0)
(0.174867 -0.00920845 0)
(0.166932 -0.0517183 0)
(0.147887 -0.106245 0)
(0.115721 -0.175645 0)
(0.0690707 -0.263895 0)
(0.00954276 -0.373328 0)
(-0.04777 -0.488919 0)
(-0.0790698 -0.537046 0)
(-0.0399888 -0.338522 0)
(-0.0193194 0.100755 0)
(-0.0512886 0.17605 0)
(-0.0701827 0.193176 0)
(-0.0716507 0.185584 0)
(-0.0612011 0.169446 0)
(-0.0437626 0.151749 0)
(-0.0224611 0.135195 0)
(0.000806928 0.120715 0)
(0.02494 0.108491 0)
(0.0493516 0.0984114 0)
(0.0737666 0.0902563 0)
(0.0980916 0.0837599 0)
(0.122324 0.0786151 0)
(0.146479 0.0744536 0)
(0.17052 0.0708123 0)
(0.19429 0.0671012 0)
(0.217435 0.0625804 0)
(0.239338 0.056355 0)
(0.25906 0.0473913 0)
(0.275316 0.0345636 0)
(0.286433 0.0166924 0)
(0.290378 -0.00747092 0)
(0.284896 -0.0392375 0)
(0.267377 -0.0804338 0)
(0.234857 -0.133878 0)
(0.184131 -0.204856 0)
(0.112561 -0.301752 0)
(0.029101 -0.42611 0)
(-0.0501082 -0.525285 0)
(-0.0389312 -0.399267 0)
(-0.0345045 0.144477 0)
(-0.0732429 0.200654 0)
(-0.0691988 0.195082 0)
(-0.0438678 0.171296 0)
(-0.00861305 0.145898 0)
(0.0299752 0.12366 0)
(0.0686287 0.105333 0)
(0.105881 0.0905582 0)
(0.141157 0.0787642 0)
(0.174365 0.0694112 0)
(0.20565 0.0620409 0)
(0.235263 0.0562651 0)
(0.263478 0.0517354 0)
(0.290538 0.0481105 0)
(0.316599 0.045022 0)
(0.341677 0.0420446 0)
(0.365585 0.0386748 0)
(0.387872 0.0343217 0)
(0.407764 0.0283115 0)
(0.424143 0.0199013 0)
(0.435444 0.00828127 0)
(0.439749 -0.00738562 0)
(0.434667 -0.0279308 0)
(0.417281 -0.054709 0)
(0.384006 -0.089914 0)
(0.330793 -0.138381 0)
(0.251368 -0.210853 0)
(0.148072 -0.325923 0)
(0.0124772 -0.466158 0)
(-0.0179123 -0.441165 0)
(-0.0374563 0.236169 0)
(-0.0471631 0.204184 0)
(0.0286012 0.153729 0)
(0.100779 0.117772 0)
(0.167963 0.0909349 0)
(0.228031 0.0711224 0)
(0.280651 0.0567421 0)
(0.326564 0.0462451 0)
(0.366798 0.038471 0)
(0.402358 0.0326508 0)
(0.434129 0.0282704 0)
(0.462867 0.0249634 0)
(0.489192 0.0224473 0)
(0.513592 0.0204823 0)
(0.536404 0.0188415 0)
(0.557787 0.0172876 0)
(0.577692 0.015558 0)
(0.595816 0.0133587 0)
(0.611553 0.010366 0)
(0.623967 0.0062453 0)
(0.631697 0.000641242 0)
(0.633245 -0.00675222 0)
(0.626369 -0.0164733 0)
(0.608395 -0.0291473 0)
(0.575531 -0.0458532 0)
(0.523918 -0.0697144 0)
(0.443755 -0.108635 0)
(0.333868 -0.189324 0)
(0.143143 -0.336581 0)
(0.0604696 -0.413167 0)
(0.23129 0.158569 0)
(0.291567 0.117195 0)
(0.44134 0.0760315 0)
(0.540417 0.0507001 0)
(0.607584 0.0343359 0)
(0.657082 0.0235275 0)
(0.695035 0.0164813 0)
(0.724794 0.0119004 0)
(0.748702 0.00888475 0)
(0.768423 0.0068683 0)
(0.785106 0.00550436 0)
(0.79956 0.00457358 0)
(0.81236 0.00392948 0)
(0.823909 0.00346679 0)
(0.834462 0.00310153 0)
(0.844132 0.002758 0)
(0.852881 0.00236074 0)
(0.860508 0.00183162 0)
(0.866631 0.0010881 0)
(0.870695 5.91667e-05 0)
(0.871929 -0.00131626 0)
(0.869364 -0.00302429 0)
(0.861656 -0.00530079 0)
(0.847607 -0.00827406 0)
(0.824645 -0.0121169 0)
(0.790977 -0.0177878 0)
(0.734994 -0.02739 0)
(0.657145 -0.0494051 0)
(0.454607 -0.110324 0)
(0.313278 -0.177623 0)
)
;

boundaryField
{
    movingWall
    {
        type            fixedValue;
        value           uniform (1 0 0);
    }
    fixedWalls
    {
        type            noSlip;
    }
    frontAndBack
    {
        type            empty;
    }
}


// ************************************************************************* //
