/*--------------------------------*- C++ -*----------------------------------*\
  =========                 |
  \\      /  F ield         | OpenFOAM: The Open Source CFD Toolbox
   \\    /   O peration     | Website:  https://openfoam.org
    \\  /    A nd           | Version:  7
     \\/     M anipulation  |
\*---------------------------------------------------------------------------*/
FoamFile
{
    version     2.0;
    format      ascii;
    class       surfaceScalarField;
    location    "0.87";
    object      phi;
}
// * * * * * * * * * * * * * * * * * * * * * * * * * * * * * * * * * * * * * //

dimensions      [0 3 -1 0 0 0 0];

internalField   nonuniform List<scalar> 
3784
(
-0.0023563
0.0023563
-0.00191154
-0.00044476
-0.00038622
-0.00152532
0.000425117
-0.000811336
0.000760156
-0.00033504
0.00101598
-0.000255821
0.000992586
2.33902e-05
0.000563122
0.000429462
-0.000251433
0.000814555
-0.000968286
0.000716854
-0.00112933
0.000161042
-0.000472433
-0.000656897
0.000797034
-0.00126947
0.00151011
-0.000713071
0.000777427
0.00073268
-0.000760123
0.00153755
-0.0017499
0.000989781
-0.00128363
-0.00046627
0.000170344
-0.00145398
0.00125682
-0.00108647
0.00105322
0.000203596
-0.00032412
0.00137734
-0.00166155
0.00133743
-0.00156753
-9.4022e-05
-8.12997e-05
-0.00148623
0.00143939
-0.00152069
0.00177157
-0.000332178
0.000672977
0.00109859
-0.000775003
0.00144798
-0.00138772
0.000612716
-0.000735174
-0.000652546
0.000672838
-0.00140801
0.00142615
-0.000753313
0.000611283
0.000814868
-0.000986639
0.00159792
-0.00167095
0.000684315
-0.000598177
-0.00107278
0.00100508
-0.00160326
0.00174072
-0.000735637
0.00130228
0.000438439
-4.89496e-05
0.00135123
-0.00130556
0.00125661
-0.00124398
-6.15814e-05
-0.00124398
-0.00327184
0.00562814
-0.00298316
-0.00073344
-0.000377216
-0.00413126
0.000478578
-0.00166713
0.000673192
-0.000529654
0.00102095
-0.000603576
0.000958683
8.56532e-05
0.000543183
0.00084496
-0.000162635
0.00152037
-0.000909809
0.00146403
-0.00143547
0.000686701
-0.000753906
-0.00133846
0.00105671
-0.00308008
0.00170059
-0.00135696
0.000653479
0.0017798
-0.000608234
0.00279926
-0.00174171
0.00212326
-0.00171732
-0.000490664
0.000308745
-0.00348004
0.00167439
-0.00245212
0.000923201
0.000954787
-0.000314921
0.00261546
-0.00154502
0.00256754
-0.00199813
0.000359088
-0.000114472
-0.00336989
0.00192448
-0.00355964
0.00168435
-9.20515e-05
0.000553402
0.00222954
-0.00063218
0.00263356
-0.00173244
0.00171298
-0.00107163
-0.00131336
0.00100875
-0.00348839
0.00155728
-0.00130184
0.000448273
0.00192387
-0.00085849
0.00290469
-0.001835
0.00166083
-0.00087572
-0.00203206
0.00143578
-0.00391476
0.00206635
-0.00136621
0.00111572
0.00138907
2.19682e-05
0.00244499
-0.00124631
0.00252489
-0.0017258
0.000417907
-0.00296978
-0.00309292
0.00872107
-0.00335257
-0.000473799
-0.000828483
-0.00665534
0.000502919
-0.00299853
0.000822488
-0.000849226
0.00111523
-0.000896323
0.00102095
0.000179938
0.000464696
0.00140121
-0.000416017
0.00240109
-0.0012965
0.0023445
-0.0017191
0.00110931
-0.000662119
-0.00239544
0.00145193
-0.00519413
0.00212779
-0.00203282
0.000957372
0.00295021
-0.000570636
0.00432727
-0.00198061
0.00353323
-0.00196098
-0.000510287
0.0003581
-0.00579913
0.00204474
-0.00413876
0.00136381
0.00163572
-0.000125227
0.00410449
-0.00170679
0.0041491
-0.00228275
0.000935051
-0.000186614
-0.00546603
0.00212106
-0.00586732
0.0017979
0.00023111
0.000274279
0.00375316
-0.00118108
0.00408892
-0.00217032
0.00270222
-0.00111313
-0.00237055
0.00131818
-0.00591969
0.00193038
-0.00191405
0.000648378
0.00320587
-0.00092702
0.00448008
-0.00214263
0.00287644
-0.0012083
-0.00296639
0.00142315
-0.00654621
0.0023529
-0.00229596
0.0012441
0.00249787
-0.000253428
0.00394251
-0.00172953
0.00400098
-0.00206902
0.000757399
-0.00503879
-0.00234795
0.011069
-0.00307923
0.000257484
-0.00141287
-0.00832171
-3.70765e-05
-0.00437433
0.000466531
-0.00135283
0.000684788
-0.00111458
0.000573297
0.000291428
9.3053e-05
0.00188146
-0.000533527
0.00302767
-0.00111465
0.00292563
-0.00127439
0.00126905
-0.00033402
-0.00333581
0.00121414
-0.00674228
0.00161056
-0.00242925
0.000800976
0.0037598
-0.000228416
0.00535667
-0.00126745
0.00457227
-0.00134492
-0.000432817
0.000243934
-0.00738798
0.0014726
-0.00536742
0.00107027
0.00203805
8.40306e-05
0.00509074
-0.00103238
0.00526552
-0.00154469
0.00144735
-0.000165367
-0.00684535
0.00138281
-0.0074155
0.00102156
0.000592359
-0.000142904
0.00491763
-0.00112508
0.0050711
-0.00166054
0.00323768
-0.000738496
-0.0032926
0.000994112
-0.0076523
0.00133868
-0.00225861
0.000462827
0.00408172
-0.000510529
0.00545344
-0.00140296
0.00376886
-0.000929218
-0.00344013
0.000912239
-0.00838767
0.00165497
-0.00303869
0.000781984
0.00337086
-0.000374339
0.00509884
-0.00134388
0.00497053
-0.00148865
0.000902167
-0.00652745
-0.00162562
0.0126946
-0.00274164
0.00137351
-0.00196277
-0.00910057
-0.000715269
-0.00562184
-5.39087e-05
-0.0020142
0.0001202
-0.00128869
3.36502e-05
0.000377976
-0.000292104
0.00220721
-0.000628875
0.00336444
-0.000886716
0.00318347
-0.000774806
0.00115714
2.32349e-05
-0.00413385
0.000903567
-0.00762261
0.00103153
-0.0025572
0.000569822
0.0042215
6.12325e-05
0.00586525
-0.000517779
0.00515128
-0.000674181
-0.000276413
0.000143624
-0.00820578
0.000875758
-0.00609956
0.000682688
0.00223112
0.000219313
0.00555412
-0.00035294
0.00583777
-0.000768476
0.00186289
-0.000137279
-0.00747655
0.000626928
-0.0081797
0.000278894
0.000940394
-0.00038318
0.0055797
-0.000902803
0.00559073
-0.00108005
0.00341492
-0.000316785
-0.00405586
0.000638062
-0.00860715
0.000739953
-0.0023605
0.00028332
0.00453836
-0.000113792
0.00585055
-0.000612979
0.00426805
-0.000594338
-0.00345877
0.000345969
-0.00932798
0.000902855
-0.00359557
0.000347054
0.00392666
-0.000362195
0.00580809
-0.000810971
0.0054193
-0.000859146
0.000950342
-0.00738659
-0.000859048
0.0135537
-0.00224372
0.00275818
-0.00238007
-0.00896422
-0.00143798
-0.00656393
-0.000721261
-0.00273091
-0.000533201
-0.00147675
-0.000565814
0.00041059
-0.000642225
0.00228362
-0.00063159
0.0033538
-0.000532746
0.00308463
-0.000230463
0.000854857
0.000325822
-0.00469014
0.000503052
-0.00779984
0.000329058
-0.00238321
0.000259529
0.00429103
0.000264993
0.00585979
0.00018417
0.0052321
-6.6474e-06
-8.55934e-05
5.3275e-05
-0.00826571
0.000260882
-0.00630717
0.000252129
0.00223987
0.000259008
0.00554724
0.000242696
0.00585408
6.37074e-06
0.00209921
-9.94338e-05
-0.00737075
-9.04172e-05
-0.00818872
-0.00030111
0.00115109
-0.000419858
0.00569845
-0.0004954
0.00566627
-0.000350689
0.00327021
0.000102596
-0.00450915
0.000276121
-0.00878067
0.000112706
-0.00219709
0.000111302
0.00453976
0.000243029
0.00571882
0.000178735
0.00433235
-0.000228665
-0.00305137
-0.000203613
-0.00935303
0.000104146
-0.00390333
-2.41892e-05
0.00405499
-0.000190905
0.0059748
-0.00019281
0.00542121
-0.000208475
0.000966007
-0.00759507
-8.03946e-05
0.0136341
-0.0014965
0.00417429
-0.00249013
-0.00797059
-0.00208855
-0.00696552
-0.001447
-0.00337246
-0.00123662
-0.00168713
-0.00110157
0.000275539
-0.000898736
0.00208079
-0.000546103
0.00300117
-0.00016361
0.00270213
0.000292291
0.000398957
0.000503046
-0.00490089
3.30014e-05
-0.0073298
-0.000393123
-0.00195708
-0.000107119
0.00400503
0.000387022
0.00536565
0.000767396
0.00485173
0.000626964
5.48385e-05
-1.89163e-05
-0.00761983
-0.000366276
-0.00595981
-0.000181849
0.00205545
0.000232783
0.00513261
0.000703306
0.00538356
0.000707594
0.00209493
-4.5707e-05
-0.00661744
-0.000737372
-0.00749706
-0.000712133
0.00112585
-0.000310227
0.00529654
5.76015e-05
0.00529844
0.000419899
0.00290791
0.000454726
-0.00454398
-0.000105033
-0.00822091
-0.000435834
-0.00186629
-6.7352e-05
0.00417128
0.000514522
0.00513695
0.00082968
0.00401719
0.000175081
-0.00239677
-0.000640113
-0.00853783
-0.000656564
-0.00388688
-0.000346242
0.00374467
2.78962e-05
0.00560066
0.000411172
0.00503793
0.00045232
0.00092486
-0.00714275
0.00080693
0.0128271
-0.000359295
0.00534052
-0.00211921
-0.00621068
-0.00244102
-0.00664371
-0.00205011
-0.00376336
-0.00182552
-0.00191173
-0.00153189
-1.80898e-05
-0.00105801
0.0016069
-0.000450351
0.00239351
0.000155031
0.00209675
0.000700487
-0.000146499
0.000498674
-0.00469907
-0.000508034
-0.00632309
-0.0010042
-0.00146092
-0.000445835
0.00344666
0.000429938
0.00448988
0.0011415
0.00414017
0.00113449
6.18451e-05
-7.0277e-05
-0.00641506
-0.00090969
-0.00512039
-0.000574921
0.00172068
0.000173192
0.00438449
0.00101857
0.00453818
0.001264
0.00184949
2.08487e-05
-0.00537429
-0.00121749
-0.00625872
-0.000968638
0.000876998
-0.000173505
0.00450141
0.000593397
0.00453154
0.0011406
0.00236071
0.000673577
-0.00407695
-0.000504347
-0.00704299
-0.000851641
-0.00151899
-0.00023471
0.00355434
0.000657782
0.00424445
0.00123967
0.00343529
0.000556899
-0.001714
-0.000895511
-0.00708542
-0.0012959
-0.0034865
-0.000638981
0.00308775
0.000173395
0.00478829
0.000864022
0.00434731
0.00100916
0.000779725
-0.00613359
0.0017534
0.0110737
0.00117617
0.00591774
-0.00114001
-0.00389449
-0.00225063
-0.0055331
-0.00228528
-0.00372872
-0.0021321
-0.00206491
-0.00173641
-0.000413777
-0.00107743
0.000947918
-0.00030003
0.00161611
0.000440215
0.00135651
0.000920721
-0.000627005
0.000309221
-0.00408758
-0.00105084
-0.00496303
-0.00144687
-0.00106488
-0.000638957
0.00263875
0.000425989
0.00342494
0.00134352
0.00322264
0.00144158
-3.62147e-05
-0.000110017
-0.00486346
-0.00131684
-0.00391357
-0.000815105
0.00121895
0.000111131
0.00345826
0.00115493
0.00349439
0.00159229
0.00141213
8.48672e-05
-0.00386687
-0.00148395
-0.0046899
-0.00111589
0.000508938
-9.7902e-05
0.00348342
0.000931158
0.00350248
0.0015941
0.00169776
0.000740065
-0.00322292
-0.000851413
-0.00545151
-0.00117028
-0.00120012
-0.000358723
0.00274278
0.000685481
0.00320025
0.00142539
0.00269539
0.000873781
-0.00116239
-0.000947239
-0.0052644
-0.00168515
-0.00274859
-0.000806427
0.00220903
0.00023698
0.00374489
0.00113352
0.00345077
0.00140685
0.000506387
-0.00472674
0.0024104
0.00866335
0.00267307
0.00565506
0.000293326
-0.00151475
-0.0014138
-0.00382597
-0.00195481
-0.0031877
-0.00199993
-0.0020198
-0.00163462
-0.000779082
-0.000944853
0.000258144
-0.000131869
0.000803118
0.00061388
0.00061076
0.000906963
-0.000920085
1.09768e-05
-0.00319159
-0.00141971
-0.00353234
-0.00166624
-0.000818347
-0.000738802
0.00171131
0.000344786
0.00234135
0.0013779
0.00218952
0.00147164
-0.000129948
-0.000152642
-0.00323918
-0.00146734
-0.00259888
-0.000982646
0.000734258
4.72102e-05
0.0024284
0.001111
0.0024306
0.00158957
0.000933558
0.00012607
-0.00240337
-0.0015013
-0.00306254
-0.00118617
0.000193815
-7.38378e-05
0.00237108
0.00104523
0.00238341
0.00168144
0.00106156
0.000684599
-0.00222608
-0.00103179
-0.00373511
-0.00132206
-0.000909857
-0.0004018
0.00182252
0.000593919
0.00220453
0.00143413
0.00185518
0.00101198
-0.000740243
-0.000833222
-0.0034192
-0.00171813
-0.00186368
-0.000876749
0.00136766
0.000259671
0.00260847
0.0012846
0.00242585
0.00154372
0.000247262
-0.00318301
0.00244354
0.00621981
0.00339084
0.00470777
0.00166629
0.000209806
-0.000131857
-0.00202783
-0.00108767
-0.00223189
-0.00141166
-0.00169581
-0.00122946
-0.000961293
-0.000672695
-0.000298616
3.53894e-05
9.50317e-05
0.000663555
-1.74097e-05
0.00073763
-0.000994159
-0.000214435
-0.00223953
-0.00147464
-0.00227213
-0.0016075
-0.000685494
-0.000747398
0.000851213
0.000240784
0.00135317
0.00119014
0.00124016
0.001216
-0.00015581
-0.000194152
-0.00182902
-0.00132949
-0.00146354
-0.000970641
0.000375412
-1.02707e-05
0.00146804
0.000929726
0.0014906
0.00130485
0.000558429
0.000148188
-0.00124671
-0.00123975
-0.0016746
-0.00106063
1.46941e-05
-4.53226e-05
0.00135577
0.000947465
0.00139062
0.00145886
0.000550164
0.000563718
-0.00133094
-0.00097437
-0.00219703
-0.0012389
-0.000645326
-0.00040597
0.000989584
0.000468959
0.0013296
0.00124469
0.00107945
0.000925258
-0.000420816
-0.000628371
-0.00186557
-0.0014275
-0.00106456
-0.000780181
0.000720342
0.000256024
0.00157226
0.00122561
0.00145626
0.00138264
9.02367e-05
-0.00180038
0.00203958
0.00418023
0.00325063
0.00349671
0.00234394
0.0011165
0.000982406
-0.000666294
-2.84553e-05
-0.00122102
-0.000550504
-0.00117376
-0.000602978
-0.000908822
-0.000288918
-0.000612677
0.000221378
-0.000415264
0.000642085
-0.000438117
0.000548979
-0.000901053
-0.000273
-0.00141755
-0.00119491
-0.00135022
-0.00128818
-0.000592224
-0.000655863
0.000218898
0.000115508
0.000581801
0.000817994
0.000537677
0.000785242
-0.00012306
-0.00020399
-0.000839794
-0.000990404
-0.000677123
-0.000769955
0.000154966
-4.80594e-05
0.000746141
0.000648195
0.000794346
0.000891374
0.000315247
0.000147065
-0.000502401
-0.000802111
-0.000725419
-0.000737232
-5.01847e-05
1.58238e-05
0.000602717
0.000737743
0.000668702
0.00107064
0.000217271
0.000415
-0.000675301
-0.000704217
-0.00107781
-0.000936966
-0.000412575
-0.000345382
0.000397998
0.000324091
0.000660128
0.000888702
0.00051484
0.000658228
-0.000190345
-0.000395784
-0.000811557
-0.000967761
-0.000492579
-0.000563214
0.000315797
0.000214204
0.000794845
0.000945484
0.000724983
0.00100138
3.43393e-05
-0.000798991
0.00130749
0.00287275
0.00240218
0.00240201
0.00228902
0.00122966
0.00150332
0.000119412
0.000724263
-0.000441967
0.000226495
-0.000675992
5.14967e-05
-0.000733821
0.000150694
-0.000711871
0.00039093
-0.000655503
0.000587591
-0.00063478
0.000425052
-0.000738511
-0.000149385
-0.000843113
-0.000728397
-0.000771206
-0.000836967
-0.000483652
-0.000482253
-0.000135814
1.16137e-05
8.79322e-05
0.000427169
0.000122118
0.000385027
-8.09174e-05
-0.000158136
-0.000296627
-0.000597204
-0.000238051
-0.000493629
5.13879e-05
-5.81007e-05
0.00031061
0.000374924
0.000361319
0.000510995
0.000179176
0.000125366
-0.000116771
-0.000372549
-0.000227503
-0.000370511
-5.22227e-05
5.61726e-05
0.000176032
0.000496701
0.000228172
0.000663361
5.0613e-05
0.000265981
-0.000277921
-0.000378841
-0.000432993
-0.000562643
-0.000228771
-0.000247385
8.27395e-05
0.000177483
0.000235257
0.0004981
0.000194224
0.000354834
-4.7079e-05
-0.000202543
-0.000254178
-0.000532619
-0.000162502
-0.000331109
0.000114287
0.000144441
0.000319296
0.000576361
0.000293063
0.00057146
3.92412e-05
-0.000227528
0.000811613
0.00206113
0.00148708
0.00172654
0.00168018
0.00103656
0.00135227
0.000447323
0.000952144
-4.18362e-05
0.000630697
-0.000354549
0.000465252
-0.000568376
0.000434393
-0.000681007
0.000476536
-0.000697646
0.000487053
-0.000645302
0.000328372
-0.000579831
7.13837e-06
-0.000521876
-0.000301421
-0.000462645
-0.000405466
-0.000379609
-0.000278429
-0.000262853
-3.65287e-05
-0.000153968
0.000159341
-7.37504e-05
0.00013915
-6.07241e-05
-8.74571e-05
-7.00184e-05
-0.000283233
-4.22758e-05
-0.000251145
1.9296e-05
-4.18629e-05
0.000101324
0.000181338
0.000138119
0.000253875
0.000106641
0.000107592
2.95116e-05
-8.82239e-05
-3.16895e-05
-0.000104279
-3.61678e-05
7.3348e-05
-1.59478e-06
0.000280547
2.09726e-05
0.000340521
-9.36137e-06
0.000145435
-8.28342e-05
-0.000151373
-0.000136188
-0.000272099
-0.000108046
-0.00015432
-3.50395e-05
5.30849e-05
2.78519e-05
0.000198239
4.90707e-05
0.000135625
1.55355e-05
-9.43341e-05
-2.42188e-05
-0.000235953
-2.08824e-05
-0.000158035
3.63672e-05
6.84901e-05
9.27719e-05
0.000265073
9.64816e-05
0.000244995
5.93193e-05
1.74673e-05
0.000556451
0.00150468
0.000937381
0.00134562
0.00108204
0.000891899
0.00103807
0.000491295
0.000848318
0.000147921
0.000683389
-0.000189615
0.000552448
-0.000437437
0.000459083
-0.000587643
0.000389555
-0.000628117
0.000315347
-0.000571096
0.000207037
-0.000471523
6.74831e-05
-0.00038232
-6.17387e-05
-0.000333421
-0.000129319
-0.00031203
-0.000111175
-0.000280999
-4.26895e-05
-0.00022245
2.30484e-05
-0.000139485
2.21552e-05
-5.98306e-05
-3.93335e-05
-8.53305e-06
-9.50446e-05
1.3432e-05
-9.0121e-05
1.43711e-05
-1.38223e-05
2.50247e-05
7.83616e-05
4.59349e-05
0.000122104
6.28989e-05
9.55131e-05
5.61019e-05
4.23383e-05
2.14832e-05
2.69634e-05
-2.0793e-05
6.9187e-05
-4.38164e-05
0.000127847
-3.76883e-05
0.000136244
-1.77609e-05
6.61951e-05
-1.27864e-05
-4.43476e-05
-2.56456e-05
-0.000106727
-4.56661e-05
-8.85433e-05
-5.32231e-05
-2.3082e-05
-3.76093e-05
2.87829e-05
-2.79308e-06
1.85403e-05
2.57774e-05
-3.82685e-05
3.25888e-05
-8.04755e-05
2.13267e-05
-6.04948e-05
1.6388e-05
1.16079e-05
2.06688e-05
7.11215e-05
3.697e-05
6.57232e-05
6.47196e-05
8.31901e-05
0.000427819
0.00107686
0.000720458
0.00105298
0.000834223
0.000778136
0.000833988
0.000491528
0.000773424
0.000208484
0.000636075
-5.22611e-05
0.000496829
-0.00029819
0.000357453
-0.000448272
0.000231796
-0.000502461
0.000138087
-0.000477385
7.25291e-05
-0.000405964
2.7296e-05
-0.000337087
-8.57618e-06
-0.000297548
-3.85668e-05
-0.000282037
-5.44327e-05
-0.000265129
-5.49486e-05
-0.000221932
-4.36746e-05
-0.000150759
-3.09636e-05
-7.25448e-05
-2.39299e-05
-1.55695e-05
-1.76476e-05
7.1481e-06
-9.16036e-06
5.88363e-06
1.15656e-05
4.29886e-06
4.13355e-05
1.61636e-05
6.9336e-05
3.48967e-05
8.38353e-05
4.16029e-05
8.16074e-05
2.37116e-05
6.96226e-05
-8.80877e-06
5.84799e-05
-3.2674e-05
5.25564e-05
-3.17656e-05
4.62844e-05
-1.14912e-05
2.89254e-05
4.57187e-06
1.76117e-06
1.51985e-06
-2.61513e-05
-1.77527e-05
-4.22748e-05
-3.71003e-05
-4.4584e-05
-3.53021e-05
-3.50824e-05
-1.22942e-05
-2.68089e-05
1.75063e-05
-2.64799e-05
3.22601e-05
-3.19078e-05
2.67553e-05
-2.94962e-05
1.39789e-05
-2.05532e-05
1.17258e-05
-1.22491e-05
2.86651e-05
-6.46122e-06
5.8935e-05
7.67309e-05
0.00032606
0.000750793
0.000595988
0.000783047
0.000736499
0.000637628
0.000775393
0.000452634
0.000737569
0.000246305
0.000645296
4.00108e-05
0.000491036
-0.000143928
0.000327112
-0.000284347
0.000179993
-0.000355343
6.99041e-05
-0.000367295
6.63681e-06
-0.000342695
-2.18215e-05
-0.000308628
-3.66475e-05
-0.00028272
-5.32348e-05
-0.000265445
-7.41933e-05
-0.000244167
-8.93021e-05
-0.000206824
-8.78823e-05
-0.000152184
-6.75046e-05
-9.29251e-05
-3.71532e-05
-4.59202e-05
-9.66246e-06
-2.03428e-05
8.18327e-06
-1.19641e-05
1.97894e-05
-7.30817e-06
3.36989e-05
2.25393e-06
5.33934e-05
1.52011e-05
7.3415e-05
2.1581e-05
8.20513e-05
1.50762e-05
7.41084e-05
-8.66713e-07
5.51526e-05
-1.37201e-05
3.70605e-05
-1.36745e-05
2.84553e-05
-2.88582e-06
2.55987e-05
7.42949e-06
2.03922e-05
6.72656e-06
7.63615e-06
-4.99752e-06
-1.27927e-05
-1.6673e-05
-3.02714e-05
-1.78252e-05
-3.6607e-05
-5.9578e-06
-3.00626e-05
1.09665e-05
-1.951e-05
2.17113e-05
-1.52458e-05
2.24898e-05
-1.92033e-05
1.79344e-05
-2.61719e-05
1.86957e-05
-2.81562e-05
3.06502e-05
-1.91065e-05
4.98872e-05
5.76266e-05
0.000234581
0.000516214
0.000460643
0.000556982
0.000616481
0.000481787
0.000695414
0.000373702
0.000700292
0.000241427
0.000640593
9.97103e-05
0.000530585
-3.39187e-05
0.000387497
-0.000141257
0.000246835
-0.000214681
0.000131231
-0.000251691
5.04854e-05
-0.000261948
-2.1131e-07
-0.000257929
-3.42398e-05
-0.000248687
-6.33922e-05
-0.000236288
-8.9913e-05
-0.000217646
-0.000107816
-0.000188925
-0.000108888
-0.000151114
-9.14446e-05
-0.000110367
-6.2337e-05
-7.50273e-05
-3.2559e-05
-5.01222e-05
-1.00753e-05
-3.44494e-05
5.85744e-06
-2.32407e-05
2.04709e-05
-1.2359e-05
3.76328e-05
-1.96185e-06
5.45255e-05
4.6869e-06
6.45441e-05
5.05682e-06
6.26619e-05
1.01449e-06
5.15746e-05
-2.63321e-06
3.96155e-05
-1.71457e-06
3.37608e-05
2.96967e-06
3.35276e-05
7.66267e-06
3.25981e-05
7.65436e-06
2.48661e-05
2.73175e-06
1.02685e-05
-2.07645e-06
-4.57907e-06
-2.97611e-06
-1.30033e-05
2.46857e-06
-1.30606e-05
1.10244e-05
-9.28669e-06
1.79398e-05
-7.865e-06
2.1069e-05
-1.21714e-05
2.22374e-05
-1.88365e-05
2.53609e-05
-2.11251e-05
3.29422e-05
-1.38567e-05
4.2621e-05
4.37698e-05
0.000163938
0.000352276
0.000335113
0.000385804
0.000472613
0.000344285
0.000564304
0.000282012
0.000602816
0.000202915
0.000587949
0.000114578
0.000527411
2.66201e-05
0.00043517
-4.90151e-05
0.000331169
-0.00011068
0.000232061
-0.000152582
0.000147848
-0.000177733
8.02793e-05
-0.000190357
2.57742e-05
-0.000194179
-1.95819e-05
-0.000190931
-5.65859e-05
-0.000180645
-8.21916e-05
-0.000163321
-9.32034e-05
-0.000140101
-8.91074e-05
-0.000114462
-7.40445e-05
-9.00922e-05
-5.4803e-05
-6.93653e-05
-3.64676e-05
-5.27832e-05
-2.05386e-05
-3.91687e-05
-5.58291e-06
-2.7317e-05
9.53498e-06
-1.7082e-05
2.35684e-05
-9.34684e-06
3.32786e-05
-4.65383e-06
3.66504e-05
-2.35794e-06
3.47634e-05
-7.45131e-07
3.14174e-05
1.63267e-06
2.96629e-05
4.72318e-06
3.00802e-05
7.24347e-06
2.97258e-05
8.00708e-06
2.52424e-05
7.21376e-06
1.68524e-05
6.31231e-06
6.92723e-06
6.94938e-06
-4.53888e-07
9.85278e-06
-3.77278e-06
1.43422e-05
-4.56886e-06
1.87332e-05
-5.73682e-06
2.22393e-05
-8.71348e-06
2.52159e-05
-1.20453e-05
2.86926e-05
-1.23527e-05
3.32507e-05
-7.8102e-06
3.80797e-05
3.59586e-05
0.000115449
0.000236825
0.000239903
0.000261348
0.000346921
0.000237268
0.00042783
0.000201103
0.000475884
0.00015486
0.00048816
0.000102302
0.000466638
4.81421e-05
0.000421024
-3.40079e-06
0.000355449
-4.51038e-05
0.000285418
-8.25495e-05
0.000216405
-0.000108718
0.000152451
-0.000126401
9.49345e-05
-0.000136662
4.43335e-05
-0.00014033
1.66038e-06
-0.000137972
-3.13895e-05
-0.00013027
-5.30467e-05
-0.000118441
-6.35075e-05
-0.000104001
-6.49622e-05
-8.86396e-05
-6.0439e-05
-7.38879e-05
-5.29494e-05
-6.02703e-05
-4.41217e-05
-4.79976e-05
-3.44561e-05
-3.69865e-05
-2.42054e-05
-2.73337e-05
-1.43243e-05
-1.92267e-05
-6.22321e-06
-1.27555e-05
-8.7105e-07
-7.71071e-06
2.09402e-06
-3.70876e-06
3.77653e-06
-4.93559e-08
5.32594e-06
3.17195e-06
6.83474e-06
5.73203e-06
7.40846e-06
7.43097e-06
5.72956e-06
8.89296e-06
1.95193e-06
1.00901e-05
-2.61045e-06
1.15084e-05
-6.61593e-06
1.38587e-05
-9.03122e-06
1.67592e-05
-1.01989e-05
1.98981e-05
-1.08795e-05
2.29189e-05
-1.14379e-05
2.57769e-05
-1.13625e-05
2.86185e-05
-9.56312e-06
3.14504e-05
-5.38337e-06
3.38985e-05
3.05743e-05
8.21519e-05
0.000154672
0.000171823
0.000171676
0.000251246
0.000157844
0.000315137
0.00013721
0.000359174
0.00011082
0.000381021
8.04539e-05
0.000380872
4.82911e-05
0.000360936
1.65371e-05
0.000328918
-1.30851e-05
0.000284424
-3.80539e-05
0.000235549
-5.98405e-05
0.000185361
-7.62122e-05
0.000136381
-8.7682e-05
9.0521e-05
-9.44703e-05
4.9459e-05
-9.69079e-05
1.46755e-05
-9.5484e-05
-1.28856e-05
-9.08798e-05
-3.29653e-05
-8.39231e-05
-4.61113e-05
-7.54938e-05
-5.37134e-05
-6.62839e-05
-5.70424e-05
-5.69411e-05
-5.72902e-05
-4.77531e-05
-5.5254e-05
-3.90246e-05
-5.16174e-05
-3.09685e-05
-4.7116e-05
-2.37273e-05
-4.24846e-05
-1.73886e-05
-3.82833e-05
-1.19116e-05
-3.47916e-05
-7.19929e-06
-3.1643e-05
-3.19958e-06
-2.88772e-05
4.05222e-07
-2.65438e-05
3.39852e-06
-2.48803e-05
5.7639e-06
-2.41149e-05
8.12585e-06
-2.41727e-05
1.01503e-05
-2.4529e-05
1.18627e-05
-2.48769e-05
1.42036e-05
-2.4542e-05
1.64261e-05
-2.33449e-05
1.87019e-05
-2.14545e-05
2.10266e-05
-1.89133e-05
2.32342e-05
-1.55393e-05
2.52441e-05
-1.1092e-05
2.70024e-05
-5.5459e-06
2.83515e-05
2.50285e-05
5.83766e-05
9.62938e-05
0.000122606
0.000107445
0.000180648
9.98017e-05
0.00022939
8.84636e-05
0.000266259
7.39487e-05
0.000289647
5.7066e-05
0.000299159
3.87802e-05
0.000295589
2.0109e-05
0.000280664
1.84113e-06
0.000257471
-1.48593e-05
0.000226936
-2.93051e-05
0.000192255
-4.15296e-05
0.000155606
-5.10331e-05
0.000118902
-5.77659e-05
8.37918e-05
-6.17961e-05
5.16261e-05
-6.33171e-05
2.33801e-05
-6.26342e-05
-4.11137e-07
-6.01327e-05
-1.96725e-05
-5.62319e-05
-3.46189e-05
-5.13371e-05
-4.57616e-05
-4.58005e-05
-5.35747e-05
-3.99422e-05
-5.85818e-05
-3.40162e-05
-6.13194e-05
-2.82286e-05
-6.23061e-05
-2.2742e-05
-6.20408e-05
-1.76557e-05
-6.09277e-05
-1.30222e-05
-5.92735e-05
-8.85215e-06
-5.73403e-05
-5.13631e-06
-5.50955e-05
-1.84072e-06
-5.27368e-05
1.0424e-06
-5.06012e-05
3.62608e-06
-4.83929e-05
5.91357e-06
-4.61927e-05
7.95155e-06
-4.42055e-05
9.87646e-06
-4.16879e-05
1.16835e-05
-3.86496e-05
1.33869e-05
-3.50636e-05
1.51172e-05
-3.07756e-05
1.67386e-05
-2.57406e-05
1.81978e-05
-1.99685e-05
1.94707e-05
-1.34805e-05
2.05137e-05
-6.3924e-06
2.12632e-05
1.86367e-05
3.77273e-05
5.85648e-05
7.9606e-05
6.5566e-05
0.000118141
6.12655e-05
0.000151683
5.49184e-05
0.000178843
4.67882e-05
0.000198646
3.72653e-05
0.000210613
2.68147e-05
0.000214791
1.59327e-05
0.000211617
5.01653e-06
0.000202095
-5.33623e-06
0.000187391
-1.46004e-05
0.000168551
-2.26884e-05
0.00014689
-2.93709e-05
0.000123628
-3.45043e-05
9.98856e-05
-3.80537e-05
7.66384e-05
-4.00704e-05
5.46761e-05
-4.06724e-05
3.45739e-05
-4.00303e-05
1.66899e-05
-3.83472e-05
1.19294e-06
-3.58409e-05
-1.18872e-05
-3.27226e-05
-2.26383e-05
-2.91915e-05
-3.12251e-05
-2.54267e-05
-3.78649e-05
-2.15869e-05
-4.28119e-05
-1.77971e-05
-4.63144e-05
-1.41545e-05
-4.86084e-05
-1.07251e-05
-4.99094e-05
-7.54944e-06
-5.04076e-05
-4.64107e-06
-5.0227e-05
-2.02262e-06
-4.95106e-05
3.28582e-07
-4.83483e-05
2.46363e-06
-4.68368e-05
4.39879e-06
-4.48938e-05
6.00805e-06
-4.25108e-05
7.49455e-06
-3.96969e-05
8.86873e-06
-3.64484e-05
1.01369e-05
-3.26199e-05
1.12883e-05
-2.81975e-05
1.23165e-05
-2.32156e-05
1.32159e-05
-1.77188e-05
1.39735e-05
-1.17748e-05
1.45695e-05
-5.49142e-06
1.49797e-05
1.3145e-05
2.36283e-05
3.49352e-05
5.01044e-05
3.90907e-05
7.48229e-05
3.65461e-05
9.69353e-05
3.28041e-05
0.000115717
2.80081e-05
0.000130613
2.23721e-05
0.00014128
1.615e-05
0.000147595
9.61795e-06
0.000149596
3.0167e-06
0.000147585
-3.32433e-06
0.000142137
-9.15259e-06
0.000133744
-1.4295e-05
0.000123012
-1.86378e-05
0.000110572
-2.20649e-05
9.70481e-05
-2.4531e-05
8.30193e-05
-2.6043e-05
6.89954e-05
-2.66492e-05
5.5399e-05
-2.64331e-05
4.25558e-05
-2.55032e-05
3.0697e-05
-2.39826e-05
1.99743e-05
-2.20013e-05
1.04696e-05
-1.96865e-05
2.20408e-06
-1.71587e-05
-4.85673e-06
-1.45246e-05
-1.07778e-05
-1.18775e-05
-1.5642e-05
-9.29131e-06
-1.95413e-05
-6.82367e-06
-2.25738e-05
-4.51541e-06
-2.48581e-05
-2.3584e-06
-2.64334e-05
-4.48601e-07
-2.74086e-05
1.3052e-06
-2.78616e-05
2.91696e-06
-2.76894e-05
4.22452e-06
-2.7085e-05
5.40202e-06
-2.6045e-05
6.45426e-06
-2.45684e-05
7.39137e-06
-2.2652e-05
8.21896e-06
-2.0307e-05
8.94208e-06
-1.75601e-05
9.56899e-06
-1.44453e-05
1.01009e-05
-1.10075e-05
1.05356e-05
-7.30529e-06
1.0867e-05
-3.41336e-06
1.10872e-05
9.73063e-06
1.63134e-05
1.86219e-05
3.47115e-05
2.06946e-05
5.20659e-05
1.91911e-05
6.78864e-05
1.69829e-05
8.17467e-05
1.41505e-05
9.32989e-05
1.08227e-05
0.000102294
7.15554e-06
0.000108616
3.2965e-06
0.000112225
-5.91169e-07
0.000113213
-4.31273e-06
0.000111821
-7.76085e-06
0.000108317
-1.07905e-05
0.000102993
-1.33135e-05
9.61971e-05
-1.52692e-05
8.82918e-05
-1.66266e-05
7.96309e-05
-1.73832e-05
7.05452e-05
-1.75636e-05
6.13295e-05
-1.7216e-05
5.22333e-05
-1.64054e-05
4.34578e-05
-1.52067e-05
3.51605e-05
-1.37046e-05
2.7457e-05
-1.19826e-05
2.04214e-05
-1.0121e-05
1.4093e-05
-8.19514e-06
8.48447e-06
-6.27013e-06
3.59373e-06
-4.4015e-06
-5.96223e-07
-2.63246e-06
-4.1226e-06
-9.87807e-07
-7.02522e-06
5.4328e-07
-9.37038e-06
1.89539e-06
-1.11555e-05
3.09072e-06
-1.23722e-05
4.13397e-06
-1.31718e-05
5.02283e-06
-1.35605e-05
5.78902e-06
-1.35421e-05
6.43482e-06
-1.31332e-05
6.98162e-06
-1.23601e-05
7.44449e-06
-1.12525e-05
7.83292e-06
-9.84086e-06
8.15599e-06
-8.1618e-06
8.4207e-06
-6.25824e-06
8.63103e-06
-4.17858e-06
8.78633e-06
-1.97847e-06
8.88609e-06
7.75148e-06
1.15256e-05
7.09752e-06
2.45515e-05
7.6706e-06
3.69427e-05
6.79906e-06
4.83881e-05
5.53735e-06
5.8587e-05
3.95406e-06
6.73266e-05
2.0846e-06
7.43489e-05
1.33372e-07
7.96113e-05
-1.96545e-06
8.30854e-05
-4.06485e-06
8.48277e-05
-6.05506e-06
8.48624e-05
-7.7957e-06
8.33288e-05
-9.25658e-06
8.0406e-05
-1.039e-05
7.63029e-05
-1.11654e-05
7.12459e-05
-1.15695e-05
6.54643e-05
-1.16017e-05
5.91819e-05
-1.12807e-05
5.26075e-05
-1.064e-05
4.59276e-05
-9.72365e-06
3.93145e-05
-8.5929e-06
3.29029e-05
-7.29333e-06
2.68003e-05
-5.87995e-06
2.1089e-05
-4.40864e-06
1.58265e-05
-2.93216e-06
1.10504e-05
-1.49521e-06
6.79285e-06
-1.45006e-07
3.08649e-06
1.07432e-06
-6.32696e-08
2.16268e-06
-2.75071e-06
3.23009e-06
-4.97638e-06
4.11996e-06
-6.74256e-06
4.85667e-06
-8.06264e-06
5.45405e-06
-8.97485e-06
5.93414e-06
-9.51262e-06
6.32534e-06
-9.68595e-06
6.6069e-06
-9.5196e-06
6.81423e-06
-9.04013e-06
6.96382e-06
-8.27804e-06
7.06941e-06
-7.26614e-06
7.14258e-06
-6.03982e-06
7.19296e-06
-4.63643e-06
7.22632e-06
-3.09802e-06
7.24672e-06
-1.4715e-06
7.25853e-06
6.27982e-06
7.65228e-06
-5.53182e-07
1.6269e-05
-9.44854e-07
2.44999e-05
-1.43288e-06
3.21206e-05
-2.08302e-06
3.89468e-05
-2.8703e-06
4.47721e-05
-3.74047e-06
4.95391e-05
-4.63359e-06
5.3081e-05
-5.50665e-06
5.53281e-05
-6.31131e-06
5.627e-05
-6.99659e-06
5.59904e-05
-7.5156e-06
5.45759e-05
-7.84094e-06
5.21408e-05
-7.95321e-06
4.88224e-05
-7.84528e-06
4.47715e-05
-7.5176e-06
4.0163e-05
-6.99263e-06
3.51717e-05
-6.28862e-06
2.99476e-05
-5.41448e-06
2.4618e-05
-4.39245e-06
1.93706e-05
-3.34491e-06
1.43022e-05
-2.22528e-06
9.49754e-06
-1.0756e-06
5.03625e-06
5.30599e-08
9.71222e-07
1.13303e-06
-2.65962e-06
2.13472e-06
-5.83804e-06
3.03235e-06
-8.57874e-06
3.81498e-06
-1.08883e-05
4.47255e-06
-1.26797e-05
5.02101e-06
-1.40073e-05
5.44644e-06
-1.49044e-05
5.75296e-06
-1.54048e-05
5.95403e-06
-1.55345e-05
6.06293e-06
-1.5281e-05
6.07067e-06
-1.47084e-05
6.03308e-06
-1.38389e-05
5.9439e-06
-1.26962e-05
5.82045e-06
-1.13062e-05
5.67877e-06
-9.70261e-06
5.53835e-06
-7.91986e-06
5.40951e-06
-5.9936e-06
5.29934e-06
-3.95887e-06
5.21127e-06
-1.85221e-06
5.15122e-06
4.4275e-06
4.19863e-06
-4.75067e-06
8.92022e-06
-5.66555e-06
1.33984e-05
-5.91156e-06
1.74656e-05
-6.14933e-06
2.09677e-05
-6.37129e-06
2.37734e-05
-6.54658e-06
2.57872e-05
-6.64715e-06
2.69314e-05
-6.64949e-06
2.71555e-05
-6.53429e-06
2.64563e-05
-6.29642e-06
2.48778e-05
-5.93589e-06
2.25005e-05
-5.46206e-06
1.94387e-05
-4.88948e-06
1.57974e-05
-4.20215e-06
1.16562e-05
-3.37524e-06
7.19221e-06
-2.52823e-06
2.56278e-06
-1.65893e-06
-2.10575e-06
-7.45248e-07
-6.72197e-06
2.24722e-07
-1.11906e-05
1.12414e-06
-1.53434e-05
1.92716e-06
-1.91552e-05
2.73592e-06
-2.25645e-05
3.46266e-06
-2.5518e-05
4.08675e-06
-2.79786e-05
4.5948e-06
-2.9929e-05
4.9819e-06
-3.13607e-05
5.24636e-06
-3.22789e-05
5.39079e-06
-3.26853e-05
5.4269e-06
-3.26031e-05
5.36318e-06
-3.20611e-05
5.20998e-06
-3.10855e-05
4.97781e-06
-2.97064e-05
4.68308e-06
-2.79928e-05
4.35628e-06
-2.59742e-05