/*--------------------------------*- C++ -*----------------------------------*\
  =========                 |
  \\      /  F ield         | OpenFOAM: The Open Source CFD Toolbox
   \\    /   O peration     | Website:  https://openfoam.org
    \\  /    A nd           | Version:  7
     \\/     M anipulation  |
\*---------------------------------------------------------------------------*/
FoamFile
{
    version     2.0;
    format      ascii;
    class       volScalarField;
    location    "0.4";
    object      p;
}
// * * * * * * * * * * * * * * * * * * * * * * * * * * * * * * * * * * * * * //

dimensions      [0 2 -2 0 0 0 0];

internalField   nonuniform List<scalar> 
900
(
5.64732e-09
-8.16806e-05
-6.75252e-05
0.000144693
0.000457405
0.000943437
0.00153197
0.00226091
0.00308903
0.00402489
0.00505151
0.00614955
0.00730915
0.008516
0.00975364
0.0110057
0.0122562
0.0134883
0.0146836
0.015825
0.0169028
0.017896
0.0187808
0.0195697
0.0202075
0.0207453
0.0210864
0.0213276
0.0213438
0.0212694
0.000110557
1.92209e-05
5.87899e-05
0.000274329
0.000586523
0.00106759
0.00164613
0.00236559
0.00318124
0.00410426
0.00511846
0.00620124
0.00734555
0.00853722
0.00975941
0.0109961
0.0122314
0.013449
0.0146295
0.0157555
0.0168214
0.0178026
0.018675
0.0194555
0.0200818
0.0206148
0.0209552
0.0212005
0.0212468
0.0211604
5.90618e-05
-4.98334e-05
-8.12769e-06
0.000210369
0.000522292
0.00100833
0.00158576
0.00231129
0.00312799
0.00405693
0.00507714
0.00616552
0.00731637
0.0085153
0.00974536
0.0109904
0.0122344
0.0134608
0.01465
0.0157837
0.0168584
0.0178491
0.0187254
0.0195156
0.0201426
0.0206835
0.0210252
0.0212752
0.0213249
0.0212189
-0.00013367
-0.000258586
-0.000219146
2.51516e-06
0.000318769
0.000814605
0.00140057
0.00214043
0.00297058
0.00391726
0.00495685
0.0060656
0.0072384
0.00846073
0.00971534
0.0109857
0.0122554
0.0135076
0.0147223
0.0158806
0.0169797
0.0179938
0.0188888
0.0196991
0.0203391
0.0208945
0.0212438
0.0214997
0.0215487
0.0214266
-0.000471694
-0.000610332
-0.000572494
-0.000345692
-2.01906e-05
0.00049038
0.0010939
0.00185658
0.0027119
0.00368765
0.00475965
0.00590308
0.00711271
0.00837402
0.00966929
0.0109813
0.0122932
0.0135876
0.0148441
0.0160435
0.0171824
0.0182334
0.0191615
0.0200025
0.0206672
0.0212438
0.0216074
0.021872
0.0219216
0.0217869
-0.000963117
-0.00111438
-0.00107659
-0.000842034
-0.000502408
2.90402e-05
0.000658847
0.0014537
0.00234592
0.00336298
0.00448107
0.0056741
0.00693629
0.00825296
0.00960569
0.0109765
0.0123479
0.0137021
0.0150178
0.0162752
0.0174701
0.018573
0.0195488
0.0204327
0.0211335
0.0217398
0.0221242
0.0224014
0.0224535
0.0223067
-0.00161445
-0.00177845
-0.00173902
-0.0014936
-0.00113466
-0.000575884
8.9114e-05
0.000926163
0.00186716
0.00293833
0.00411679
0.00537491
0.00670598
0.00809491
0.00952252
0.01097
0.0124192
0.0138515
0.0152443
0.0165777
0.017846
0.0190167
0.0200557
0.0209957
0.0217447
0.0223896
0.0228022
0.0230963
0.023153
0.022993
-0.00243392
-0.00261168
-0.00256912
-0.00230957
-0.0019257
-0.00133253
-0.00062304
0.000266841
0.00126907
0.00240784
0.00366162
0.00500095
0.0064178
0.00789656
0.00941723
0.0109601
0.0125063
0.0140357
0.0155249
0.0169533
0.0183134
0.0195693
0.0206881
0.0216987
0.0225091
0.0232029
0.0236519
0.0239678
0.0240311
0.0238557
-0.00343174
-0.00362546
-0.00357845
-0.00330122
-0.00288653
-0.00225126
-0.0014874
-0.000533221
0.000543528
0.00176428
0.00310902
0.00454641
0.00606678
0.00765384
0.00928673
0.0109448
0.0126079
0.0142548
0.0158607
0.0174046
0.0188764
0.0202364
0.0214531
0.0225508
0.0234372
0.0241919
0.0246863
0.0250298
0.0251018
0.0249081
-0.00462051
-0.00483341
-0.00478087
-0.00448218
-0.00403038
-0.00334463
-0.00251566
-0.00148469
-0.000319192
0.000998831
0.00245107
0.00400435
0.00564703
0.00736192
0.00912718
0.0109211
0.0127226
0.0145085
0.0162531
0.0179345
0.0195397
0.0210247
0.0223596
0.0235629
0.0245419
0.0253711
0.0259215
0.0262994
0.0263826
0.026167
-0.00601618
-0.00625224
-0.00619317
-0.00586891
-0.00537304
-0.00462748
-0.00372163
-0.00260023
-0.00133064
0.000101179
0.00167864
0.00336678
0.00515164
0.00701495
0.00893386
0.0108857
0.0128479
0.0147961
0.0167031
0.0185459
0.020308
0.0219412
0.0234173
0.0247475
0.0258384
0.0267581
0.0273771
0.0277972
0.0278947
0.0276533
-0.00763837
-0.00790219
-0.00783546
-0.00748095
-0.00693315
-0.00611729
-0.00512155
-0.00389471
-0.00250418
-0.000940486
0.000781314
0.00262456
0.00457265
0.00660609
0.0087011
0.0108339
0.0129808
0.0151159
0.0172108
0.0192413
0.0211864
0.0229939
0.0246371
0.0261189
0.0273444
0.0283738
0.0290762
0.0295483
0.0296638
0.0293919
-0.00951046
-0.00980734
-0.00973162
-0.00934138
-0.00873267
-0.00783455
-0.00673424
-0.00538512
-0.00385494
-0.00213949
-0.000252613
0.00176739
0.00390105
0.00612755
0.00842227
0.0107605
0.0131173
0.0154656
0.0177758
0.0200222
0.0221792
0.0241906
0.026031
0.0276933
0.02908
0.0302424
0.0310465
0.0315828
0.031721
0.0314128
-0.0116602
-0.0119964
-0.01191
-0.0114775
-0.0107973
-0.00980292
-0.00858118
-0.00709059
-0.00539981
-0.00351059
-0.0014361
0.000783889
0.00312682
0.0055705
0.00808966
0.0106588
0.013252
0.0158411
0.0183959
0.0208889
0.02329
0.0255391
0.0276112
0.029488
0.0310684
0.0323924
0.033321
0.0339368
0.0341036
0.0337519
-0.0141206
-0.0145036
-0.0144045
-0.0139217
-0.0131571
-0.0120498
-0.0106868
-0.00903264
-0.00715744
-0.00506989
-0.00278313
-0.000338274
0.00223903
0.00492515
0.00769436
0.0105208
0.0133777
0.0162366
0.019067
0.0218399
0.0245204
0.0270454
0.0293898
0.0315216
0.033335
0.0348564
0.0359388
0.0366542
0.0368574
0.0364528
-0.0169309
-0.0173701
-0.0172554
-0.0167119
-0.0158471
-0.0146065
-0.0130788
-0.0112352
-0.00914827
-0.00683465
-0.00430848
-0.00161202
0.0012261
0.00418089
0.00722643
0.0103368
0.0134854
0.016644
0.0197824
0.0228706
0.0258694
0.0287138
0.0313772
0.0338127
0.0359078
0.0376722
0.0389464
0.0397883
0.0400386
0.0395692
-0.0201384
-0.0206457
-0.0205114
-0.0198937
-0.0189083
-0.0175091
-0.0157881
-0.0137245
-0.0113941
-0.00882294
-0.00602719
-0.00305035
7.62489e-05
0.00332658
0.0066749
0.0100959
0.013564
0.0170522
0.0205316
0.0239722
0.0273316
0.030544
0.0335809
0.0363785
0.0388162
0.0408825
0.0423995
0.043405
0.0437176
0.0431672
-0.0238009
-0.0243918
-0.024232
-0.0235217
-0.0223891
-0.020799
-0.0188492
-0.0165285
-0.0139176
-0.0110528
-0.00795398
-0.00466573
-0.00122183
0.00235109
0.00602821
0.00978565
0.0135999
0.0174466
0.0212997
0.0251303
0.0288949
0.0325294
0.0360026
0.0392327
0.0420894
0.0445349
0.0463642
0.0475859
0.0479834
0.0473303
-0.0279908
-0.0286856
-0.028491
-0.0276623
-0.0263467
-0.0245236
-0.0222998
-0.0196767
-0.0167411
-0.0135415
-0.0101022
-0.00646913
-0.00267815
0.00124419
0.00527483
0.00939244
0.0135771
0.0178088
0.022066
0.0263233
0.0305389
0.0346536
0.0386341
0.0423808
0.0457532
0.0486803
0.0509188
0.0524341
0.0529517
0.0521657
-0.0328007
-0.0336263
-0.0333817
-0.0323969
-0.0308488
-0.0287369
-0.0261813
-0.0231992
-0.019886
-0.0163035
-0.012482
-0.00846846
-0.0043
-2.40507e-06
0.00440417
0.00890233
0.0134774
0.0181159
0.0228032
0.0275201
0.0322309
0.0368858
0.041452
0.0458144
0.0498237
0.0533693
0.0561547
0.058081
0.0587764
0.0578162
-0.0383536
-0.0393456
-0.0390245
-0.0378267
-0.0359762
-0.0334997
-0.0305371
-0.0271252
-0.0233703
-0.019349
-0.0150985
-0.0106664
-0.00609013
-0.00139336
0.003408
0.00830241
0.0132813
0.018341
0.0234766
0.0286786
0.033923
0.0391757
0.0444093
0.0495
0.0542965
0.0586431
0.0621743
0.0646955
0.0656694
0.0644813
-0.0448204
-0.0460241
-0.0455779
-0.0440791
-0.0418256
-0.0388806
-0.0354117
-0.0314804
-0.0272059
-0.0226805
-0.0179487
-0.013058
-0.00804426
-0.0029276
0.00228198
0.00758025
0.0129685
0.0184536
0.0240439
0.0297442
0.0355484
0.041446
0.0474242
0.0533645
0.0591277
0.064516
0.0690821
0.0724933
0.0739323
0.0724595
-0.0524539
-0.0539195
-0.0532551
-0.0513163
-0.0485125
-0.0449549
-0.0408479
-0.036283
-0.0313941
-0.0262886
-0.0210176
-0.0156268
-0.0101481
-0.00459564
0.00102859
0.00672982
0.0125207
0.0184217
0.0244569
0.0306497
0.0370187
0.043586
0.050367
0.0572719
0.0642025
0.0709379
0.0769568
0.0817389
0.0840006
0.0822393
-0.0616572
-0.0634112
-0.062348
-0.0597453
-0.0561742
-0.0518025
-0.0468817
-0.0415377
-0.0359195
-0.0301465
-0.0242737
-0.0183414
-0.0123742
-0.00637681
-0.000340652
0.00575128
0.0119248
0.0182152
0.0246644
0.0313175
0.0382235
0.0454463
0.0530458
0.0609954
0.0692841
0.0777238
0.0857831
0.0927245
0.0965105
0.0947175
-0.073132
-0.0750724
-0.0732548
-0.069628
-0.0649686
-0.0595012
-0.0535323
-0.0472245
-0.0407391
-0.0342008
-0.0276613
-0.0211499
-0.0146775
-0.00823548
-0.00180135
0.00465603
0.0111767
0.0178109
0.0246184
0.0316668
0.0390381
0.0468427
0.0551996
0.0641856
0.0739414
0.0844286
0.0953001
0.105688
0.112455
0.111753
-0.0882338
-0.0897834
-0.0865044
-0.0812851
-0.0750649
-0.0681055
-0.0607761
-0.0532735
-0.0457609
-0.0383534
-0.0310869
-0.023968
-0.016986
-0.0101126
-0.00330794
0.0034754
0.0102932
0.0172057
0.0242901
0.0316337
0.0393475
0.0475829
0.0565202
0.066368
0.0774764
0.0901411
0.104616
0.120397
0.133215
0.137044
-0.110072
-0.108979
-0.102778
-0.0950535
-0.0865599
-0.0775421
-0.0684414
-0.0594723
-0.0507676
-0.0424023
-0.0343723
-0.0266432
-0.0191709
-0.0119
-0.00476989
0.00228406
0.00933043
0.0164474
0.023711
0.0312269
0.0391233
0.0475719
0.0567951
0.0671124
0.0790697
0.0934526
0.111686
0.135005
0.159059
0.175952
-0.146302
-0.134294
-0.122532
-0.110778
-0.0989255
-0.0871211
-0.0758147
-0.0651695
-0.0552011
-0.0458849
-0.0371402
-0.0288688
-0.0209789
-0.0133862
-0.0060041
0.00124625
0.0084464
0.0156837
0.0230359
0.030615
0.0385514
0.0470143
0.0562428
0.0666125
0.0787868
0.0940513
0.115319
0.147477
0.188043
0.239632
-0.207486
-0.160743
-0.142363
-0.124544
-0.108481
-0.0938482
-0.0805699
-0.0686049
-0.057747
-0.0478167
-0.0386427
-0.030065
-0.0219547
-0.0141984
-0.00669791
0.00063819
0.00789665
0.0151608
0.0225305
0.0300941
0.037982
0.0463674
0.0554985
0.0658274
0.0782595
0.0948865
0.12058
0.165565
0.229108
0.378889
-0.383996
-0.177227
-0.134331
-0.115993
-0.101126
-0.0880783
-0.0764187
-0.0657003
-0.0557112
-0.0463708
-0.0376025
-0.0293152
-0.0214179
-0.0138268
-0.00645965
0.000762012
0.00791398
0.0150701
0.0223189
0.02976
0.0375017
0.0457024
0.0546197
0.0647813
0.0773919
0.0958578
0.128407
0.198205
0.331302
0.650019
)
;

boundaryField
{
    movingWall
    {
        type            zeroGradient;
    }
    fixedWalls
    {
        type            zeroGradient;
    }
    frontAndBack
    {
        type            empty;
    }
}


// ************************************************************************* //
