/*--------------------------------*- C++ -*----------------------------------*\
  =========                 |
  \\      /  F ield         | OpenFOAM: The Open Source CFD Toolbox
   \\    /   O peration     | Website:  https://openfoam.org
    \\  /    A nd           | Version:  7
     \\/     M anipulation  |
\*---------------------------------------------------------------------------*/
FoamFile
{
    version     2.0;
    format      ascii;
    class       volScalarField;
    location    "1.53";
    object      p;
}
// * * * * * * * * * * * * * * * * * * * * * * * * * * * * * * * * * * * * * //

dimensions      [0 2 -2 0 0 0 0];

internalField   nonuniform List<scalar> 
1936
(
-1.92035e-05
-3348.58
-6344.84
-5427.84
-4196.91
-3610.31
-3388.94
-3876.81
-5875.92
-7277.44
-5553.67
-3517.42
-3001.45
-3011.81
-3704.86
-5583.75
-6816.96
-5417.84
-3475.98
-2850.55
-2864.57
-3541.7
-5813.06
-7254.47
-5454.85
-3348.88
-2778.37
-2796
-3455.1
-5340.44
-6841.5
-5606.18
-3488.32
-2797.98
-2833.54
-3687.9
-6182.94
-7163.05
-4869.86
-2961.73
-2653.92
-2771.44
-4150.97
-6641.92
-85.4364
-3300.27
-6283.38
-5424.09
-4217.97
-3649.72
-3431.17
-3880.33
-5826.25
-7203.11
-5507.34
-3526.26
-3050.69
-3065.99
-3728.55
-5562.21
-6768.14
-5393.23
-3501.87
-2907.91
-2913.42
-3542.03
-5753.23
-7177.19
-5412.6
-3357.35
-2827.28
-2852.36
-3482.65
-5324.8
-6791.56
-5573.41
-3510.81
-2857.84
-2883.15
-3682.27
-6116.73
-7088.5
-4837.74
-2985.6
-2711.85
-2823.5
-4153.46
-6595.65
-361.563
-3166.5
-6051.6
-5416.88
-4293.29
-3747.62
-3532.9
-3912.04
-5699.2
-6969.67
-5393.81
-3571.01
-3165.44
-3202.3
-3813.46
-5505.39
-6606.77
-5329.25
-3591.29
-3048.69
-3029.78
-3567.81
-5596.12
-6934.45
-5311.76
-3404.55
-2942.6
-2991.98
-3578.38
-5288.54
-6625.96
-5482.9
-3592.73
-3003.67
-3002.98
-3695.78
-5932.88
-6853.84
-4775.17
-3066.22
-2842.74
-2965.16
-4187.5
-6446.85
-747.574
-3026.14
-5698.97
-5363.14
-4385.48
-3876.78
-3678.52
-3982.98
-5528.36
-6625.17
-5245.26
-3659.57
-3328.9
-3383.96
-3928.65
-5410.43
-6354
-5229.94
-3715.01
-3235.74
-3196.13
-3631.94
-5385.21
-6573.55
-5174.59
-3496.45
-3109.71
-3178.55
-3708.54
-5221.26
-6365.37
-5346.94
-3708.11
-3197.86
-3175.41
-3743.09
-5677.76
-6503.38
-4698.1
-3200.63
-3026.14
-3159.37
-4233.03
-6210.42
-1186.13
-2925.84
-5285.14
-5250.83
-4464.46
-4011.1
-3843.51
-4083.17
-5342.96
-6229
-5088.57
-3781.86
-3518.87
-3578.2
-4046.76
-5287.22
-6049.32
-5107.65
-3844.72
-3435.64
-3388.65
-3727.68
-5159.18
-6155.25
-5022.9
-3622.43
-3307.41
-3380.17
-3843.87
-5126.7
-6050.24
-5185.55
-3829.97
-3404.99
-3374.55
-3819.5
-5397.94
-6096.85
-4618.77
-3371.15
-3236.81
-3368.94
-4273.52
-5923.13
-1639.1
-2893.26
-4866.64
-5078.99
-4511.87
-4133.02
-4007.13
-4195.26
-5161.59
-5828.08
-4941.2
-3924.22
-3717.6
-3767.16
-4152.15
-5143.73
-5724.15
-4971.35
-3964.47
-3630.34
-3588.67
-3843.96
-4945.07
-5729.5
-4871.15
-3768.62
-3516.85
-3579.12
-3968.2
-5008.39
-5713.12
-5013.53
-3943.77
-3605.13
-3579.73
-3915.99
-5127.48
-5682.4
-4544.4
-3559.15
-3455.48
-3572.53
-4300.09
-5614.13
-2079.4
-2935.71
-4493.69
-4864.31
-4518.92
-4233.44
-4150.6
-4298.85
-4994.29
-5456.8
-4813.49
-4069.65
-3909.31
-3939.92
-4240.09
-4990.32
-5404.35
-4831.99
-4069.73
-3809.64
-3779.99
-3966.22
-4760.38
-5334.36
-4729.81
-3917.24
-3721.36
-3764.48
-4075.52
-4874.63
-5381.4
-4845.04
-4045.04
-3787.95
-3773.64
-4019.4
-4889.2
-5296.84
-4478.88
-3745.53
-3665.08
-3757.33
-4315.24
-5307.62
-2488.77
-3044.89
-4201.59
-4636.58
-4487.69
-4304.86
-4260.62
-4377.96
-4843.77
-5137.58
-4708.07
-4202.85
-4080.33
-4091.33
-4310.57
-4837.98
-5111.92
-4702.11
-4159.96
-3967.87
-3950.24
-4081.28
-4611.63
-4996.92
-4604.98
-4053.09
-3906.17
-3930
-4164.99
-4736.47
-5078.15
-4693.76
-4132.86
-3947.7
-3943.89
-4117.22
-4693.64
-4966.67
-4422.66
-3914.75
-3852.17
-3917.11
-4324.06
-5024.71
-2854.57
-3202.12
-4006.93
-4428.05
-4426.89
-4341.49
-4330.67
-4424.62
-4712.46
-4882.19
-4623.41
-4311.24
-4220.4
-4217.72
-4362.56
-4699.37
-4863.93
-4591.16
-4234.51
-4102.03
-4090.84
-4178.65
-4499.79
-4732.58
-4502.79
-4164.68
-4060.36
-4071.38
-4234.25
-4608.05
-4821.43
-4568.34
-4205.84
-4081.58
-4082.34
-4199.27
-4544.57
-4706.94
-4376.85
-4055.43
-4008.33
-4050.83
-4328.04
-4781.65
-3167.46
-3382.06
-3907.48
-4263.36
-4349.95
-4343.51
-4362.71
-4438.51
-4602.51
-4691.98
-4557.08
-4386.75
-4324.21
-4314.06
-4395.92
-4585.04
-4670.68
-4505.48
-4292.38
-4207.94
-4198.52
-4251.14
-4422.4
-4545.75
-4427.23
-4245.39
-4179
-4182.86
-4283
-4501.72
-4622.24
-4473.25
-4262.04
-4186.06
-4186.85
-4258.73
-4440.4
-4522.4
-4343.15
-4162.35
-4129.37
-4156.53
-4327.29
-4589.6
-3422.36
-3559.98
-3884.71
-4154.46
-4274.2
-4320.51
-4364.06
-4426.27
-4514.57
-4560.34
-4505.59
-4428.53
-4391.06
-4377.68
-4412.51
-4499.92
-4534.41
-4445.55
-4332.53
-4283.18
-4273.72
-4298.57
-4374.69
-4429.52
-4378.66
-4296.88
-4261.26
-4261.23
-4313.52
-4423.8
-4482.81
-4407.65
-4300.37
-4259.07
-4259.05
-4295.99
-4375.39
-4407.16
-4322.38
-4235.03
-4215.94
-4232.05
-4322.9
-4453.24
-3621.46
-3715.44
-3910.72
-4099.22
-4215.75
-4287.65
-4345.29
-4397.59
-4447.18
-4474.99
-4465.48
-4442.22
-4424.38
-4410.82
-4416.01
-4442.91
-4449.1
-4407.27
-4355.54
-4329.4
-4320.34
-4325.94
-4349.96
-4368.55
-4352.81
-4325.55
-4310.9
-4308.59
-4329.07
-4373.64
-4397.09
-4366.7
-4322.1
-4303.46
-4302.73
-4315.94
-4340.63
-4346.83
-4313.01
-4279.03
-4270.88
-4278.6
-4317.18
-4369.06
-3771.41
-3840
-3959.38
-4083.67
-4181.67
-4256.82
-4316.52
-4362.57
-4397.41
-4421.43
-4433.57
-4436.57
-4431.77
-4419.94
-4410.54
-4408.28
-4402.29
-4384.66
-4364.98
-4352.75
-4344.75
-4339.88
-4340.64
-4343.75
-4342.31
-4338.86
-4335.43
-4331.96
-4334.62
-4345.87
-4352.32
-4344
-4331.34
-4325.81
-4324.58
-4324.88
-4325.98
-4322.65
-4311.56
-4302.47
-4300.59
-4302.32
-4312.46
-4325.9
-3886.81
-3933.97
-4009.36
-4092.04
-4168.3
-4234.42
-4288.79
-4330.35
-4361.66
-4386.81
-4407.12
-4420.16
-4422.61
-4414.06
-4400.34
-4388.47
-4379.45
-4371.97
-4366.13
-4361.09
-4354.4
-4346.15
-4339.71
-4337.88
-4339.92
-4343.36
-4343.9
-4340.03
-4335.16
-4333.22
-4333.35
-4333.23
-4333.37
-4333.92
-4332.54
-4328.22
-4322.43
-4317.34
-4313.98
-4313.35
-4313.53
-4311.74
-4309.98
-4309.15
-3977.41
-4006.91
-4054.83
-4110.64
-4167.59
-4220.94
-4267.28
-4305.08
-4335.68
-4361.73
-4383.65
-4398.86
-4404.18
-4399.23
-4388.07
-4376.59
-4368.64
-4364.96
-4363.61
-4361.42
-4356.17
-4348.52
-4341.76
-4339.06
-4340.58
-4343.75
-4344.46
-4340.58
-4334.19
-4328.93
-4327.31
-4329.14
-4332.55
-4334.92
-4333.88
-4329.18
-4323.29
-4318.84
-4317.35
-4317.78
-4317.57
-4314.46
-4309.62
-4305.52
-4049.33
-4066.35
-4096.07
-4133.32
-4174.16
-4215.2
-4253.11
-4286.53
-4315.52
-4340.65
-4361.47
-4376.18
-4382.9
-4381.71
-4375.36
-4367.99
-4362.78
-4360.59
-4359.9
-4358.36
-4354.43
-4348.8
-4343.76
-4341.22
-4341.39
-4342.5
-4342.04
-4338.65
-4333.48
-4329.09
-4327.41
-4328.72
-4331.42
-4333.21
-4332.34
-4329.01
-4324.84
-4321.63
-4320.1
-4319.52
-4318.3
-4315.13
-4310.96
-4307.74
-4106.12
-4115.62
-4133.57
-4157.75
-4185.93
-4215.84
-4245.65
-4273.63
-4299.15
-4321.7
-4340.42
-4354.12
-4361.94
-4364.19
-4362.61
-4359.64
-4357.26
-4356.11
-4355.45
-4354.1
-4351.38
-4347.75
-4344.39
-4342.28
-4341.47
-4341.01
-4339.67
-4336.89
-4333.3
-4330.29
-4328.94
-4329.33
-4330.55
-4331.23
-4330.49
-4328.41
-4325.81
-4323.47
-4321.74
-4320.3
-4318.48
-4315.91
-4313.16
-4311.18
-4150.51
-4155.91
-4166.72
-4182.1
-4200.98
-4222.03
-4244.02
-4265.91
-4286.72
-4305.62
-4321.75
-4334.31
-4342.88
-4347.72
-4349.76
-4350.28
-4350.32
-4350.33
-4350.11
-4349.27
-4347.65
-4345.51
-4343.42
-4341.79
-4340.61
-4339.48
-4337.94
-4335.82
-4333.45
-4331.46
-4330.32
-4330.05
-4330.12
-4329.99
-4329.22
-4327.81
-4326.08
-4324.32
-4322.68
-4321.06
-4319.3
-4317.39
-4315.66
-4314.52
-4184.87
-4188.1
-4194.74
-4204.52
-4216.95
-4231.33
-4246.93
-4263.02
-4278.88
-4293.77
-4307.04
-4318.13
-4326.73
-4332.94
-4337.18
-4339.97
-4341.85
-4343.07
-4343.71
-4343.72
-4343.13
-4342.15
-4341.03
-4339.94
-4338.92
-4337.83
-4336.53
-4335.03
-4333.49
-4332.13
-4331.13
-4330.49
-4330
-4329.42
-4328.57
-4327.47
-4326.19
-4324.84
-4323.47
-4322.08
-4320.68
-4319.36
-4318.28
-4317.63
-4211.18
-4213.22
-4217.43
-4223.73
-4231.89
-4241.56
-4252.32
-4263.71
-4275.29
-4286.51
-4296.96
-4306.25
-4314.15
-4320.6
-4325.72
-4329.69
-4332.73
-4334.97
-4336.53
-4337.45
-4337.84
-4337.83
-4337.55
-4337.1
-4336.54
-4335.84
-4335.01
-4334.07
-4333.09
-4332.16
-4331.35
-4330.63
-4329.95
-4329.22
-4328.41
-4327.49
-4326.5
-4325.46
-4324.41
-4323.37
-4322.38
-4321.51
-4320.85
-4320.46
-4231.08
-4232.42
-4235.16
-4239.29
-4244.7
-4251.19
-4258.54
-4266.47
-4274.7
-4282.96
-4290.94
-4298.4
-4305.15
-4311.1
-4316.22
-4320.54
-4324.11
-4326.99
-4329.25
-4330.95
-4332.15
-4332.95
-4333.42
-4333.64
-4333.65
-4333.48
-4333.16
-4332.72
-4332.2
-4331.63
-4331.05
-4330.46
-4329.86
-4329.21
-4328.52
-4327.8
-4327.04
-4326.28
-4325.53
-4324.81
-4324.16
-4323.6
-4323.2
-4322.97
-4245.79
-4246.7
-4248.54
-4251.32
-4254.97
-4259.39
-4264.45
-4269.99
-4275.86
-4281.89
-4287.89
-4293.72
-4299.25
-4304.37
-4309.03
-4313.2
-4316.85
-4320
-4322.66
-4324.87
-4326.66
-4328.08
-4329.17
-4329.97
-4330.53
-4330.88
-4331.05
-4331.07
-4330.96
-4330.75
-4330.46
-4330.11
-4329.7
-4329.25
-4328.77
-4328.25
-4327.72
-4327.2
-4326.7
-4326.23
-4325.81
-4325.47
-4325.23
-4325.09
-4255.51
-4256.17
-4257.48
-4259.47
-4262.1
-4265.29
-4268.98
-4273.06
-4277.44
-4282.02
-4286.69
-4291.35
-4295.91
-4300.28
-4304.4
-4308.23
-4311.74
-4314.9
-4317.7
-4320.16
-4322.28
-4324.08
-4325.59
-4326.82
-4327.8
-4328.56
-4329.12
-4329.5
-4329.74
-4329.84
-4329.83
-4329.72
-4329.54
-4329.3
-4329.02
-4328.7
-4328.36
-4328.03
-4327.7
-4327.4
-4327.13
-4326.92
-4326.77
-4326.69
-4261.02
-4261.54
-4262.58
-4264.15
-4266.24
-4268.78
-4271.74
-4275.04
-4278.61
-4282.39
-4286.3
-4290.26
-4294.21
-4298.08
-4301.82
-4305.37
-4308.71
-4311.81
-4314.63
-4317.19
-4319.47
-4321.47
-4323.21
-4324.69
-4325.94
-4326.96
-4327.78
-4328.41
-4328.88
-4329.2
-4329.39
-4329.48
-4329.47
-4329.39
-4329.25
-4329.07
-4328.86
-4328.65
-4328.43
-4328.23
-4328.05
-4327.9
-4327.8
-4327.75
-4263.87
-4264.32
-4265.22
-4266.58
-4268.39
-4270.6
-4273.18
-4276.08
-4279.23
-4282.59
-4286.1
-4289.68
-4293.3
-4296.89
-4300.4
-4303.79
-4307.02
-4310.06
-4312.89
-4315.49
-4317.85
-4319.96
-4321.84
-4323.47
-4324.87
-4326.05
-4327.03
-4327.82
-4328.43
-4328.89
-4329.21
-4329.41
-4329.51
-4329.53
-4329.48
-4329.39
-4329.26
-4329.11
-4328.96
-4328.81
-4328.67
-4328.57
-4328.49
-4328.45
-4265.2
-4265.61
-4266.43
-4267.69
-4269.35
-4271.4
-4273.8
-4276.49
-4279.44
-4282.58
-4285.88
-4289.28
-4292.73
-4296.18
-4299.57
-4302.88
-4306.06
-4309.09
-4311.92
-4314.56
-4316.98
-4319.16
-4321.12
-4322.85
-4324.35
-4325.63
-4326.7
-4327.58
-4328.29
-4328.83
-4329.22
-4329.5
-4329.66
-4329.74
-4329.74
-4329.69
-4329.6
-4329.49
-4329.36
-4329.24
-4329.13
-4329.04
-4328.97
-4328.94
-4265.65
-4266.04
-4266.83
-4268.03
-4269.63
-4271.61
-4273.91
-4276.51
-4279.36
-4282.42
-4285.63
-4288.96
-4292.34
-4295.73
-4299.09
-4302.37
-4305.55
-4308.58
-4311.44
-4314.11
-4316.58
-4318.82
-4320.83
-4322.62
-4324.18
-4325.52
-4326.66
-4327.59
-4328.35
-4328.93
-4329.37
-4329.68
-4329.87
-4329.97
-4330
-4329.96
-4329.89
-4329.79
-4329.68
-4329.56
-4329.46
-4329.38
-4329.32
-4329.29
-4265.61
-4266
-4266.77
-4267.96
-4269.54
-4271.49
-4273.77
-4276.35
-4279.17
-4282.21
-4285.4
-4288.71
-4292.08
-4295.47
-4298.84
-4302.13
-4305.33
-4308.38
-4311.28
-4313.98
-4316.48
-4318.76
-4320.81
-4322.63
-4324.23
-4325.61
-4326.77
-4327.73
-4328.5
-4329.11
-4329.56
-4329.87
-4330.07
-4330.17
-4330.2
-4330.17
-4330.09
-4329.99
-4329.88
-4329.76
-4329.66
-4329.57
-4329.51
-4329.48
-4265.4
-4265.79
-4266.56
-4267.74
-4269.33
-4271.28
-4273.57
-4276.15
-4278.99
-4282.04
-4285.25
-4288.58
-4291.97
-4295.39
-4298.78
-4302.1
-4305.32
-4308.41
-4311.32
-4314.05
-4316.58
-4318.88
-4320.95
-4322.79
-4324.4
-4325.78
-4326.94
-4327.9
-4328.67
-4329.26
-4329.7
-4330.01
-4330.19
-4330.28
-4330.29
-4330.24
-4330.15
-4330.04
-4329.91
-4329.79
-4329.68
-4329.59
-4329.53
-4329.5
-4265.19
-4265.58
-4266.35
-4267.54
-4269.14
-4271.12
-4273.43
-4276.04
-4278.92
-4282
-4285.24
-4288.61
-4292.03
-4295.48
-4298.9
-4302.25
-4305.5
-4308.6
-4311.54
-4314.28
-4316.81
-4319.11
-4321.18
-4323.01
-4324.61
-4325.97
-4327.11
-4328.05
-4328.78
-4329.35
-4329.75
-4330.02
-4330.18
-4330.23
-4330.21
-4330.14
-4330.03
-4329.89
-4329.75
-4329.61
-4329.49
-4329.39
-4329.33
-4329.3
-4265.1
-4265.48
-4266.26
-4267.46
-4269.09
-4271.09
-4273.44
-4276.09
-4279
-4282.12
-4285.4
-4288.8
-4292.26
-4295.73
-4299.18
-4302.55
-4305.81
-4308.92
-4311.86
-4314.6
-4317.12
-4319.41
-4321.46
-4323.26
-4324.82
-4326.15
-4327.25
-4328.14
-4328.82
-4329.34
-4329.69
-4329.9
-4330
-4330.01
-4329.94
-4329.83
-4329.68
-4329.52
-4329.35
-4329.2
-4329.07
-4328.97
-4328.9
-4328.87
-4265.18
-4265.57
-4266.35
-4267.58
-4269.23
-4271.26
-4273.64
-4276.32
-4279.26
-4282.41
-4285.72
-4289.14
-4292.62
-4296.11
-4299.57
-4302.95
-4306.21
-4309.33
-4312.26
-4314.98
-4317.48
-4319.74
-4321.76
-4323.52
-4325.03
-4326.31
-4327.35
-4328.17
-4328.8
-4329.24
-4329.52
-4329.66
-4329.69
-4329.63
-4329.5
-4329.32
-4329.12
-4328.92
-4328.72
-4328.55
-4328.41
-4328.3
-4328.23
-4328.2
-4265.51
-4265.89
-4266.68
-4267.92
-4269.59
-4271.64
-4274.04
-4276.73
-4279.68
-4282.84
-4286.16
-4289.59
-4293.07
-4296.57
-4300.03
-4303.41
-4306.67
-4309.77
-4312.68
-4315.39
-4317.86
-4320.08
-4322.06
-4323.77
-4325.23
-4326.45
-4327.42
-4328.17
-4328.72
-4329.08
-4329.28
-4329.34
-4329.28
-4329.13
-4328.92
-4328.66
-4328.39
-4328.12
-4327.87
-4327.66
-4327.49
-4327.38
-4327.31
-4327.29
-4266.1
-4266.49
-4267.27
-4268.51
-4270.18
-4272.22
-4274.6
-4277.27
-4280.21
-4283.35
-4286.66
-4290.08
-4293.56
-4297.05
-4300.51
-4303.88
-4307.12
-4310.21
-4313.11
-4315.79
-4318.23
-4320.42
-4322.35
-4324.02
-4325.42
-4326.57
-4327.48
-4328.16
-4328.63
-4328.9
-4329.01
-4328.97
-4328.82
-4328.57
-4328.26
-4327.9
-4327.52
-4327.16
-4326.83
-4326.55
-4326.34
-4326.2
-4326.14
-4326.14
-4267.01
-4267.39
-4268.15
-4269.34
-4270.96
-4272.94
-4275.26
-4277.89
-4280.78
-4283.89
-4287.17
-4290.57
-4294.04
-4297.52
-4300.97
-4304.33
-4307.56
-4310.63
-4313.51
-4316.17
-4318.58
-4320.74
-4322.63
-4324.25
-4325.6
-4326.7
-4327.54
-4328.15
-4328.54
-4328.73
-4328.75
-4328.62
-4328.36
-4328.01
-4327.58
-4327.1
-4326.61
-4326.12
-4325.66
-4325.27
-4324.96
-4324.76
-4324.69
-4324.7
-4268.3
-4268.63
-4269.32
-4270.38
-4271.87
-4273.74
-4275.97
-4278.52
-4281.35
-4284.41
-4287.66
-4291.03
-4294.48
-4297.95
-4301.38
-4304.73
-4307.95
-4311.01
-4313.88
-4316.51
-4318.9
-4321.03
-4322.89
-4324.47
-4325.77
-4326.81
-4327.6
-4328.14
-4328.46
-4328.58
-4328.51
-4328.29
-4327.94
-4327.48
-4326.93
-4326.33
-4325.7
-4325.06
-4324.44
-4323.88
-4323.42
-4323.06
-4322.94
-4322.93
-4270.09
-4270.21
-4270.75
-4271.54
-4272.86
-4274.56
-4276.66
-4279.11
-4281.86
-4284.87
-4288.08
-4291.43
-4294.86
-4298.31
-4301.74
-4305.08
-4308.3
-4311.35
-4314.2
-4316.82
-4319.19
-4321.29
-4323.12
-4324.67
-4325.93
-4326.93
-4327.66
-4328.15
-4328.41
-4328.46
-4328.32
-4328.02
-4327.58
-4327.02
-4326.37
-4325.64
-4324.86
-4324.06
-4323.26
-4322.47
-4321.78
-4321.15
-4320.89
-4320.71
-4272.5
-4272.11
-4272.35
-4272.75
-4273.82
-4275.32
-4277.28
-4279.62
-4282.3
-4285.25
-4288.42
-4291.75
-4295.17
-4298.61
-4302.03
-4305.37
-4308.58
-4311.63
-4314.47
-4317.08
-4319.43
-4321.52
-4323.32
-4324.84
-4326.08
-4327.04
-4327.73
-4328.18
-4328.38
-4328.38
-4328.18
-4327.81
-4327.29
-4326.64
-4325.89
-4325.05
-4324.14
-4323.17
-4322.18
-4321.14
-4320.16
-4319.11
-4318.59
-4317.92
-4275.69
-4274.22
-4274.01
-4273.9
-4274.68
-4275.97
-4277.79
-4280.03
-4282.64
-4285.55
-4288.69
-4292
-4295.4
-4298.85
-4302.26
-4305.6
-4308.81
-4311.85
-4314.69
-4317.29
-4319.64
-4321.71
-4323.5
-4325
-4326.21
-4327.14
-4327.8
-4328.21
-4328.37
-4328.32
-4328.07
-4327.65
-4327.07
-4326.35
-4325.52
-4324.58
-4323.56
-4322.44
-4321.26
-4319.97
-4318.68
-4317.08
-4316.15
-4314.4
-4279.72
-4276.36
-4275.57
-4274.88
-4275.38
-4276.48
-4278.18
-4280.34
-4282.89
-4285.76
-4288.88
-4292.17
-4295.57
-4299.01
-4302.43
-4305.76
-4308.98
-4312.02
-4314.85
-4317.45
-4319.79
-4321.86
-4323.63
-4325.12
-4326.31
-4327.22
-4327.86
-4328.24
-4328.38
-4328.29
-4328.01
-4327.54
-4326.91
-4326.14
-4325.25
-4324.24
-4323.12
-4321.89
-4320.55
-4319.02
-4317.43
-4315.23
-4313.75
-4310.1
-4284.52
-4278.32
-4276.88
-4275.63
-4275.89
-4276.84
-4278.44
-4280.54
-4283.05
-4285.89
-4289
-4292.29
-4295.69
-4299.12
-4302.54
-4305.88
-4309.09
-4312.13
-4314.97
-4317.57
-4319.9
-4321.96
-4323.73
-4325.21
-4326.39
-4327.29
-4327.91
-4328.27
-4328.39
-4328.28
-4327.97
-4327.47
-4326.81
-4326.01
-4325.07
-4324
-4322.82
-4321.5
-4320.05
-4318.34
-4316.49
-4313.73
-4311.61
-4305.08
-4289.75
-4279.88
-4277.79
-4276.12
-4276.22
-4277.05
-4278.6
-4280.65
-4283.14
-4285.97
-4289.07
-4292.35
-4295.75
-4299.19
-4302.61
-4305.95
-4309.16
-4312.2
-4315.04
-4317.64
-4319.97
-4322.03
-4323.79
-4325.26
-4326.44
-4327.33
-4327.94
-4328.29
-4328.39
-4328.27
-4327.95
-4327.44
-4326.76
-4325.93
-4324.96
-4323.87
-4322.64
-4321.27
-4319.74
-4317.91
-4315.88
-4312.69
-4309.95
-4299.71
-4294.69
-4280.86
-4278.29
-4276.37
-4276.38
-4277.16
-4278.67
-4280.71
-4283.18
-4286.01
-4289.1
-4292.38
-4295.78
-4299.22
-4302.64
-4305.98
-4309.19
-4312.24
-4315.07
-4317.67
-4320
-4322.06
-4323.82
-4325.29
-4326.46
-4327.34
-4327.95
-4328.3
-4328.4
-4328.27
-4327.94
-4327.42
-4326.73
-4325.89
-4324.91
-4323.8
-4322.56
-4321.16
-4319.59
-4317.7
-4315.57
-4312.15
-4308.91
-4294.71
-4298.64
-4281.3
-4278.46
-4276.46
-4276.43
-4277.19
-4278.7
-4280.73
-4283.2
-4286.02
-4289.11
-4292.39
-4295.79
-4299.23
-4302.64
-4305.99
-4309.2
-4312.24
-4315.08
-4317.68
-4320.01
-4322.06
-4323.83
-4325.29
-4326.46
-4327.35
-4327.96
-4328.3
-4328.4
-4328.27
-4327.94
-4327.41
-4326.72
-4325.88
-4324.9
-4323.78
-4322.53
-4321.12
-4319.55
-4317.63
-4315.47
-4311.96
-4308.47
-4290.73
)
;

boundaryField
{
    movingWall
    {
        type            zeroGradient;
    }
    fixedWalls
    {
        type            zeroGradient;
    }
    frontAndBack
    {
        type            empty;
    }
    defaultFaces
    {
        type            empty;
    }
}


// ************************************************************************* //
