/*--------------------------------*- C++ -*----------------------------------*\
  =========                 |
  \\      /  F ield         | OpenFOAM: The Open Source CFD Toolbox
   \\    /   O peration     | Website:  https://openfoam.org
    \\  /    A nd           | Version:  7
     \\/     M anipulation  |
\*---------------------------------------------------------------------------*/
FoamFile
{
    version     2.0;
    format      ascii;
    class       volScalarField;
    location    "5.6";
    object      p;
}
// * * * * * * * * * * * * * * * * * * * * * * * * * * * * * * * * * * * * * //

dimensions      [0 2 -2 0 0 0 0];

internalField   nonuniform List<scalar> 
900
(
2.71536e-08
-0.000125617
-0.00026727
-0.000383404
-0.000444574
-0.000435143
-0.000349652
-0.000187566
4.97517e-05
0.000360308
0.000741728
0.00119089
0.00170319
0.00227169
0.00288623
0.00353277
0.00419314
0.00484508
0.00546336
0.00602138
0.00649357
0.00685828
0.00710086
0.00721634
0.00721131
0.00710478
0.00692797
0.00672117
0.0065386
0.00643883
0.000123942
-3.69751e-06
-0.000101705
-0.000170153
-0.000192753
-0.000157291
-5.8602e-05
0.000105048
0.00033382
0.000626913
0.00098268
0.00139835
0.00186953
0.00238954
0.00294882
0.00353443
0.00413006
0.00471617
0.00527081
0.00577131
0.00619625
0.00652801
0.00675533
0.00687545
0.00689544
0.00683225
0.00671172
0.0065668
0.0064339
0.00633793
0.000270703
9.06244e-05
-9.66658e-06
-6.65163e-05
-7.6294e-05
-3.07109e-05
7.3256e-05
0.000236536
0.000459375
0.000741449
0.00108173
0.00147811
0.0019269
0.00242217
0.00295516
0.00351377
0.00408317
0.00464416
0.00517587
0.00565643
0.00606508
0.00638469
0.0066044
0.0067217
0.00674358
0.00668619
0.00657348
0.00643549
0.00629881
0.00616205
0.00039442
0.000151528
3.39896e-05
-2.48305e-05
-3.18836e-05
1.70946e-05
0.000122403
0.000283547
0.00050043
0.000773037
0.00110102
0.00148318
0.00191685
0.00239718
0.00291645
0.00346352
0.0040238
0.00457864
0.00510685
0.00558578
0.0059935
0.00631161
0.00652805
0.00663957
0.00665287
0.00658407
0.00645708
0.00630187
0.00613969
0.00595058
0.000457385
0.000153251
1.45362e-05
-5.19974e-05
-6.17513e-05
-1.37602e-05
8.97531e-05
0.000246898
0.00045722
0.000721044
0.00103882
0.00141044
0.0018345
0.00230742
0.00282269
0.00337004
0.00393515
0.00449926
0.00503998
0.00553272
0.00595299
0.00627958
0.00649795
0.0066032
0.00660159
0.00651001
0.00635408
0.00616638
0.00596751
0.00572515
0.000431478
7.11622e-05
-8.98063e-05
-0.000167331
-0.00018355
-0.000140054
-4.11444e-05
0.000110152
0.000313183
0.000568746
0.000878236
0.00124283
0.0016626
0.00213548
0.00265633
0.00321585
0.00379993
0.0043892
0.00495938
0.00548283
0.00593106
0.0062784
0.00650628
0.00660703
0.00658618
0.00646209
0.006264
0.00602998
0.00578426
0.00548733
0.000296708
-0.000113894
-0.000296654
-0.000386779
-0.000411897
-0.000375584
-0.000283764
-0.000140261
5.43043e-05
0.000301388
0.000603518
0.000963372
0.00138275
0.00186141
0.00239587
0.00297807
0.00359419
0.00422421
0.00484139
0.00541406
0.00590821
0.00629184
0.00654031
0.00664156
0.00659959
0.00643476
0.00618177
0.00588728
0.00558304
0.00522605
3.77212e-05
-0.000417846
-0.000621365
-0.000724845
-0.000760592
-0.000733781
-0.000651585
-0.00051833
-0.00033437
-9.73989e-05
0.000196444
0.000551575
0.000971836
0.00145922
0.00201242
0.0026251
0.00328423
0.00396957
0.00465172
0.00529426
0.00585614
0.00629671
0.00658251
0.00669447
0.00663337
0.0064214
0.00610049
0.00572927
0.00535079
0.00491982
-0.000358187
-0.000854494
-0.00107786
-0.00119533
-0.0012434
-0.00122863
-0.00115921
-0.00103975
-0.000870181
-0.000647211
-0.00036548
-1.86049e-05
0.00039966
0.000894068
0.00146623
0.0021125
0.00282148
0.00357421
0.00433893
0.00507436
0.00573107
0.00625704
0.0066061
0.00674793
0.00667667
0.00641484
0.00601283
0.00554521
0.00507044
0.00453974
-0.000902003
-0.00143591
-0.00167863
-0.00181105
-0.00187359
-0.00187413
-0.00182178
-0.0017214
-0.00157248
-0.00137068
-0.00110911
-0.000779257
-0.000372164
0.000120288
0.000703633
0.00137821
0.00213588
0.00296233
0.00382424
0.00467669
0.00546139
0.00611207
0.00656465
0.00677078
0.00671145
0.00640533
0.00591111
0.00532387
0.00472269
0.00405132
-0.00160339
-0.00217268
-0.0024348
-0.00258366
-0.00266354
-0.00268373
-0.00265438
-0.0025807
-0.00246188
-0.00229278
-0.00206508
-0.00176825
-0.00139045
-0.000919704
-0.000345489
0.000338627
0.00113107
0.00202425
0.00298887
0.00397934
0.00492994
0.00575805
0.00637523
0.00670492
0.00670334
0.00637598
0.00578634
0.00505472
0.00428791
0.00341623
-0.00247075
-0.00307399
-0.00335608
-0.00352346
-0.00362436
-0.00366976
-0.00367114
-0.00363444
-0.00355899
-0.00343929
-0.0032662
-0.00302759
-0.00270904
-0.00229458
-0.00176777
-0.00111317
-0.000319685
0.000607362
0.00166036
0.00279768
0.00395115
0.00502257
0.00589269
0.00644268
0.00658483
0.00629292
0.0056246
0.00472825
0.00374817
0.00259408
-0.00351113
-0.00414761
-0.00445068
-0.00463913
-0.00476535
-0.0048425
-0.00488397
-0.00489708
-0.00488207
-0.00483405
-0.00474404
-0.00459952
-0.00438452
-0.0040797
-0.00366242
-0.0031072
-0.00238854
-0.00148993
-0.000396027
0.000868982
0.00224813
0.00363493
0.00487606
0.00579378
0.00622774
0.00608692
0.00539843
0.00433469
0.00308951
0.0015449
-0.00473003
-0.00539988
-0.00572526
-0.00593736
-0.00609326
-0.006209
-0.00630076
-0.00637824
-0.0064438
-0.00649456
-0.0065235
-0.00651967
-0.00646775
-0.00634696
-0.00612956
-0.00577918
-0.0052503
-0.00449255
-0.00346738
-0.00214635
-0.000556137
0.00120575
0.00295745
0.00444777
0.00540656
0.00562501
0.00505107
0.00386003
0.00230464
0.000233111
-0.00613122
-0.00683584
-0.00718488
-0.00742263
-0.00761156
-0.00777168
-0.00792319
-0.00807958
-0.00824691
-0.0084263
-0.00861511
-0.00880702
-0.00899087
-0.00914817
-0.00924913
-0.00924764
-0.00907644
-0.00864642
-0.00786041
-0.00662855
-0.00490927
-0.00275729
-0.000361012
0.00195234
0.00376478
0.00467709
0.00447408
0.00327928
0.00139755
-0.00136493
-0.00771693
-0.0084597
-0.00883338
-0.00909702
-0.00931968
-0.00952683
-0.00974435
-0.00999125
-0.0102793
-0.0106159
-0.0110058
-0.0114514
-0.0119502
-0.0124916
-0.0130489
-0.01357
-0.0139661
-0.0141035
-0.0138082
-0.0129016
-0.0112307
-0.00876008
-0.00564077
-0.00225322
0.000815521
0.00289589
0.0034859
0.00254936
0.000392385
-0.00324573
-0.00948847
-0.0102759
-0.0106743
-0.0109606
-0.0112126
-0.0114633
-0.0117464
-0.0120884
-0.0125089
-0.0130242
-0.0136498
-0.0144006
-0.0152885
-0.0163168
-0.0174694
-0.018694
-0.0198835
-0.0208581
-0.0213598
-0.0210775
-0.0197333
-0.0171359
-0.0133336
-0.00870161
-0.00397602
-0.000153037
0.00183295
0.00160919
-0.000649109
-0.00534993
-0.0114478
-0.0122914
-0.0127123
-0.0130123
-0.0132809
-0.0135616
-0.0138987
-0.0143285
-0.0148804
-0.0155819
-0.0164617
-0.0175512
-0.0188814
-0.0204759
-0.0223354
-0.0244151
-0.0265954
-0.028653
-0.0302419
-0.0309067
-0.030233
-0.0278114
-0.0235206
-0.0176446
-0.0109888
-0.00486358
-0.000751701
0.000404176
-0.00159598
-0.0075123
-0.0136004
-0.0145189
-0.0149565
-0.0152515
-0.0155109
-0.0157933
-0.016157
-0.0166503
-0.0173139
-0.0181877
-0.0193157
-0.0207479
-0.0225373
-0.0247313
-0.0273527
-0.0303696
-0.0336558
-0.0369517
-0.0398382
-0.0417442
-0.0420296
-0.0401245
-0.0356726
-0.028768
-0.0201552
-0.0113495
-0.0043995
-0.00103662
-0.00219425
-0.00938266
-0.0159608
-0.0169833
-0.0174247
-0.0176808
-0.0178864
-0.0181219
-0.0184637
-0.0189745
-0.0197069
-0.0207135
-0.0220534
-0.0237949
-0.0260134
-0.0287806
-0.0321414
-0.0360787
-0.0404646
-0.045011
-0.04924
-0.0524882
-0.0539268
-0.0528196
-0.0485702
-0.0410192
-0.0307085
-0.0191652
-0.008872
-0.00245431
-0.00198365
-0.0103106
-0.0185616
-0.0197316
-0.0201499
-0.0203089
-0.0203893
-0.0205029
-0.0207498
-0.0212081
-0.0219419
-0.0230149
-0.0244995
-0.0264801
-0.0290511
-0.0323047
-0.0363043
-0.041044
-0.0463946
-0.0520474
-0.0574776
-0.0619462
-0.0645353
-0.0643267
-0.0605302
-0.0527221
-0.0411474
-0.0271311
-0.0133242
-0.00315765
-0.000179998
-0.0091923
-0.0214717
-0.0228481
-0.0231897
-0.0231547
-0.0230009
-0.0228854
-0.0229371
-0.0232494
-0.0238954
-0.024947
-0.0264856
-0.0286074
-0.0314202
-0.03503
-0.0395106
-0.04486
-0.0509437
-0.0574357
-0.0637781
-0.0691819
-0.0726759
-0.0732178
-0.0698778
-0.062005
-0.0495319
-0.033432
-0.0162178
-0.00185057
0.0044701
-0.004294
-0.0248308
-0.0264806
-0.0266382
-0.0262494
-0.0257006
-0.0252112
-0.024941
-0.0249953
-0.0254509
-0.0263822
-0.0278746
-0.0300298
-0.0329609
-0.0367815
-0.0415645
-0.0473021
-0.053847
-0.0608551
-0.0677432
-0.0736876
-0.0776784
-0.0785999
-0.0754227
-0.0673388
-0.0539983
-0.0359983
-0.0154898
0.00339722
0.013845
0.00691758
-0.028924
-0.0308826
-0.0306397
-0.0296348
-0.0284604
-0.027411
-0.0266711
-0.0263468
-0.0265089
-0.0272261
-0.0285811
-0.0306745
-0.0336108
-0.0375129
-0.0424363
-0.0483594
-0.0551125
-0.0623264
-0.0693889
-0.0754454
-0.0794473
-0.0802371
-0.0766778
-0.0678937
-0.0532249
-0.0330023
-0.00893957
0.0150188
0.0305977
0.0278963
-0.0343445
-0.0364779
-0.0353966
-0.0333507
-0.0312299
-0.0293939
-0.0280251
-0.027208
-0.0269903
-0.0274232
-0.0285787
-0.0305538
-0.0334036
-0.0373034
-0.0422495
-0.0481982
-0.0549524
-0.0621092
-0.069023
-0.0748016
-0.0783471
-0.0784368
-0.0738328
-0.0634713
-0.0466215
-0.0232704
0.00525319
0.0356832
0.0581839
0.0629373
-0.0423766
-0.0439544
-0.0411395
-0.0373846
-0.0338895
-0.0310067
-0.028855
-0.0274569
-0.0268111
-0.026934
-0.0278711
-0.0296959
-0.0324839
-0.036321
-0.0412156
-0.0470836
-0.0536874
-0.0605832
-0.0670835
-0.0722476
-0.0749119
-0.07375
-0.0673828
-0.0545524
-0.0343236
-0.00647467
0.0280328
0.0675394
0.100208
0.116881
-0.0561166
-0.0544168
-0.0480298
-0.0415527
-0.0361371
-0.0319304
-0.0288743
-0.0268668
-0.0258168
-0.0256803
-0.0264607
-0.0281975
-0.0309436
-0.0347394
-0.0395639
-0.0452917
-0.0516402
-0.0581198
-0.0639966
-0.0682769
-0.0697264
-0.0668769
-0.0581685
-0.0420793
-0.0173426
0.0167102
0.05975
0.110578
0.158405
0.196624
-0.0834336
-0.0691247
-0.0560747
-0.0453849
-0.0373533
-0.0315885
-0.0276165
-0.0251013
-0.0237989
-0.0235662
-0.0243428
-0.0261228
-0.0289215
-0.0327401
-0.0375193
-0.0430922
-0.0491333
-0.0551088
-0.0602374
-0.0634707
-0.0635213
-0.0588017
-0.047568
-0.0279105
0.00195579
0.0435462
0.0975519
0.164109
0.233479
0.31596
-0.135787
-0.084484
-0.0629985
-0.0464533
-0.0353545
-0.0282865
-0.0238948
-0.0213604
-0.0202235
-0.0202364
-0.0212798
-0.0233093
-0.0263108
-0.0302578
-0.0350643
-0.0405366
-0.046325
-0.0518753
-0.0563873
-0.0587756
-0.05765
-0.0514726
-0.0383577
-0.0159835
0.0181206
0.066949
0.133539
0.222758
0.331041
0.500951
-0.308261
-0.094143
-0.0456316
-0.0277291
-0.0180557
-0.0132181
-0.0112998
-0.0109501
-0.0115565
-0.0129253
-0.0150187
-0.0178529
-0.0214562
-0.0258324
-0.0309186
-0.0365413
-0.0423709
-0.0478792
-0.0523046
-0.0546312
-0.0535805
-0.0474824
-0.0343208
-0.0118729
0.0227257
0.0739666
0.148483
0.263805
0.439249
0.783199
)
;

boundaryField
{
    movingWall
    {
        type            zeroGradient;
    }
    fixedWalls
    {
        type            zeroGradient;
    }
    frontAndBack
    {
        type            empty;
    }
}


// ************************************************************************* //
