/*--------------------------------*- C++ -*----------------------------------*\
  =========                 |
  \\      /  F ield         | OpenFOAM: The Open Source CFD Toolbox
   \\    /   O peration     | Website:  https://openfoam.org
    \\  /    A nd           | Version:  7
     \\/     M anipulation  |
\*---------------------------------------------------------------------------*/
FoamFile
{
    version     2.0;
    format      ascii;
    class       volScalarField;
    location    "6";
    object      p;
}
// * * * * * * * * * * * * * * * * * * * * * * * * * * * * * * * * * * * * * //

dimensions      [0 2 -2 0 0 0 0];

internalField   nonuniform List<scalar> 
900
(
8.82728e-09
-0.000129186
-0.000276649
-0.000398937
-0.000465945
-0.000461586
-0.000380204
-0.000221144
1.43729e-05
0.000324533
0.00070714
0.00115919
0.00167606
0.00225054
0.0028719
0.00352518
0.00419102
0.00484558
0.00546203
0.00601238
0.00647018
0.00681372
0.00702929
0.00711397
0.00707725
0.00694171
0.00674212
0.00651903
0.00633356
0.0062396
0.000127316
-4.01828e-06
-0.000106312
-0.000179297
-0.000206218
-0.000174579
-7.90942e-05
8.20474e-05
0.000309095
0.000601361
0.000957303
0.00137421
0.00184762
0.00237065
0.00293323
0.00352159
0.00411895
0.00470413
0.00525411
0.00574521
0.00615544
0.00646727
0.00667034
0.00676363
0.00675656
0.00666884
0.00652894
0.00637127
0.0062335
0.0061456
0.000280253
9.43444e-05
-1.03317e-05
-7.12127e-05
-8.46653e-05
-4.22939e-05
5.89122e-05
0.000219872
0.000440864
0.000721643
0.00106127
0.00145771
0.00190726
0.00240384
0.00293827
0.0034978
0.00406721
0.00462578
0.00515167
0.00562208
0.00601569
0.00631544
0.0065113
0.00660243
0.00659806
0.00651693
0.0063854
0.0062351
0.0060944
0.00596695
0.000410549
0.000159235
3.66551e-05
-2.61536e-05
-3.65918e-05
9.50951e-06
0.000112272
0.00027108
0.00048581
0.000756505
0.00108293
0.001464
0.00189711
0.00237737
0.00289677
0.00344364
0.00400293
0.00455466
0.0050766
0.00554508
0.00593751
0.00623538
0.00642742
0.00651197
0.00649802
0.00640437
0.00625742
0.0060889
0.00592192
0.00574064
0.000479069
0.000163623
1.89992e-05
-5.17002e-05
-6.4773e-05
-1.95483e-05
8.1409e-05
0.000235972
0.000443608
0.000704692
0.00101982
0.00138907
0.00181121
0.00228276
0.00279708
0.00334359
0.00390701
0.0044678
0.00500233
0.00548476
0.00588969
0.00619561
0.00638856
0.0064652
0.00643421
0.0063153
0.00613687
0.00593355
0.0057281
0.00549299
0.000456092
8.15216e-05
-8.63181e-05
-0.000168333
-0.000188002
-0.000147405
-5.13401e-05
9.68311e-05
0.000296333
0.000548016
0.00085347
0.00121416
0.00163046
0.00210054
0.00261931
0.00317733
0.00375946
0.00434569
0.0049103
0.00542415
0.0058575
0.00618403
0.00638545
0.00645554
0.00640232
0.00624726
0.00602276
0.00576941
0.00551395
0.00522172
0.000320091
-0.000107551
-0.000298137
-0.000393169
-0.000422053
-0.000389037
-0.000300684
-0.000161243
2.85103e-05
0.000270096
0.0005663
0.000920191
0.00133402
0.00180797
0.00233882
0.00291851
0.00353248
0.00415997
0.00477271
0.00533725
0.00581787
0.00618139
0.006403
0.00647178
0.00639419
0.00619393
0.0059094
0.00559042
0.00527168
0.00491464
5.4256e-05
-0.0004208
-0.000633018
-0.000741888
-0.000781911
-0.000759111
-0.000681436
-0.000553709
-0.000376477
-0.000147354
0.000137831
0.000483992
0.000895594
0.00137528
0.00192226
0.00253053
0.00318663
0.00386975
0.00454893
0.00518572
0.00573685
0.00615975
0.00641999
0.00649897
0.00639964
0.00614766
0.00578917
0.00538685
0.00498731
0.00454884
-0.000355471
-0.000873201
-0.001106
-0.00122942
-0.00128251
-0.00127288
-0.00120959
-0.00109786
-0.000937845
-0.00072618
-0.00045717
-0.000123849
0.000280816
0.000762493
0.00132373
0.00196163
0.00266493
0.00341468
0.00417775
0.00491078
0.0055616
0.00607528
0.00640341
0.00651488
0.00640507
0.00609973
0.00565388
0.00514729
0.00464288
0.00409384
-0.000921244
-0.00147783
-0.00173055
-0.00186955
-0.00193817
-0.0019455
-0.00190167
-0.00181221
-0.00167691
-0.00149147
-0.00124868
-0.000939428
-0.000553829
-8.25604e-05
0.000481358
0.00113974
0.00188546
0.00270551
0.00356579
0.00441973
0.00520602
0.0058543
0.00629632
0.00648069
0.00638758
0.00603778
0.00549467
0.00485997
0.0042185
0.00351399
-0.00165361
-0.00224597
-0.00251844
-0.00267465
-0.00276207
-0.00279137
-0.00277386
-0.00271558
-0.00261617
-0.00247066
-0.00227061
-0.00200499
-0.00166101
-0.0012252
-0.000684996
-3.13371e-05
0.000737045
0.00161438
0.00257365
0.0035687
0.00453099
0.0053727
0.00599852
0.00632514
0.0063041
0.00594009
0.00530044
0.00451365
0.00369431
0.00277043
-0.00256147
-0.00318715
-0.00347971
-0.00365536
-0.00376573
-0.00382335
-0.00384105
-0.00382578
-0.0037776
-0.00369154
-0.00355865
-0.00336666
-0.00310036
-0.00274216
-0.0022729
-0.00167315
-0.000926778
-3.39776e-05
0.00100276
0.00214417
0.00332089
0.00442886
0.00533877
0.00591956
0.00607226
0.00576401
0.00505324
0.00409766
0.00305251
0.00182317
-0.00365185
-0.00430897
-0.00462237
-0.00482018
-0.00495829
-0.00505164
-0.00511515
-0.00515746
-0.00517998
-0.00517888
-0.00514605
-0.00506945
-0.00493284
-0.00471537
-0.00439107
-0.00392882
-0.00329504
-0.00246352
-0.00140888
-0.000148096
0.00126428
0.00271654
0.00404221
0.00504431
0.00554149
0.00542582
0.00471828
0.00359994
0.00227948
0.000633688
-0.00492961
-0.00561703
-0.00595227
-0.00617496
-0.00634564
-0.00648233
-0.00660303
-0.00671919
-0.00683494
-0.00694927
-0.00705704
-0.00714884
-0.00721004
-0.00721884
-0.00714371
-0.00694079
-0.00655261
-0.00591267
-0.00496678
-0.0036709
-0.00204362
-0.000185223
0.00170736
0.00335641
0.00445841
0.00477252
0.00422763
0.00300268
0.00136872
-0.000830589
-0.00639718
-0.00711495
-0.00747303
-0.00772261
-0.00792947
-0.00811584
-0.00830407
-0.00850991
-0.00874203
-0.0090045
-0.00929792
-0.00961903
-0.00995875
-0.0102984
-0.0106043
-0.0108206
-0.0108638
-0.0106222
-0.00997136
-0.00880019
-0.00705055
-0.00477537
-0.00217788
0.000382815
0.00244314
0.00355342
0.00345952
0.00227624
0.000326143
-0.00258752
-0.00805467
-0.00880486
-0.00918631
-0.00946284
-0.00970651
-0.00994523
-0.0102074
-0.010515
-0.0108833
-0.0113241
-0.0118469
-0.012459
-0.0131618
-0.0139455
-0.0147792
-0.0155986
-0.0162934
-0.0166989
-0.0166038
-0.0158062
-0.0141232
-0.0115136
-0.00814137
-0.00442015
-0.000989942
0.00141297
0.00222343
0.00137467
-0.000819443
-0.00462321
-0.00990048
-0.0106884
-0.0110927
-0.0113925
-0.011668
-0.0119548
-0.0122897
-0.0127028
-0.0132183
-0.0138583
-0.0146448
-0.0155994
-0.0167398
-0.018071
-0.0195717
-0.0211745
-0.0227447
-0.0240646
-0.0248346
-0.0246994
-0.0233603
-0.0206173
-0.0165298
-0.011503
-0.006323
-0.00205821
0.000274091
0.000241506
-0.00199655
-0.00686091
-0.0119329
-0.0127691
-0.0131936
-0.0135067
-0.0137999
-0.0141195
-0.0145133
-0.0150221
-0.0156809
-0.0165242
-0.0175891
-0.0189152
-0.0205404
-0.0224901
-0.0247583
-0.0272807
-0.0299037
-0.0323589
-0.0342524
-0.035087
-0.0344193
-0.0318459
-0.0272589
-0.0209675
-0.0138162
-0.00717566
-0.0026135
-0.00115696
-0.00305665
-0.00910966
-0.0141533
-0.015056
-0.015494
-0.0158003
-0.0160832
-0.0164043
-0.0168259
-0.0174017
-0.018179
-0.019206
-0.020536
-0.0222282
-0.024343
-0.0269285
-0.0299976
-0.0334934
-0.0372491
-0.0409531
-0.0441325
-0.0461699
-0.0464448
-0.0443689
-0.0396197
-0.0323201
-0.0232391
-0.0139249
-0.00648752
-0.00274641
-0.00371832
-0.0109867
-0.0165713
-0.0175698
-0.0180075
-0.0182711
-0.0184959
-0.0187656
-0.0191617
-0.0197527
-0.020599
-0.0217621
-0.0233112
-0.0253243
-0.027883
-0.0310572
-0.0348778
-0.0392965
-0.0441374
-0.0490555
-0.053521
-0.0568432
-0.0581814
-0.0568456
-0.0522848
-0.0443761
-0.0336783
-0.0217195
-0.0109986
-0.00419908
-0.00348453
-0.0118077
-0.0192147
-0.0203532
-0.0207628
-0.0209229
-0.021014
-0.0211522
-0.0214435
-0.0219731
-0.0228136
-0.0240383
-0.0257297
-0.0279813
-0.0308919
-0.0345485
-0.0389949
-0.0441882
-0.0499451
-0.0558961
-0.0614649
-0.065891
-0.0682731
-0.0677488
-0.0635983
-0.0554545
-0.0435849
-0.0292961
-0.0152074
-0.00474963
-0.00153102
-0.0104444
-0.0221473
-0.0234865
-0.0238134
-0.0237699
-0.0236135
-0.0235072
-0.0235872
-0.0239554
-0.0246943
-0.0258858
-0.0276211
-0.0300042
-0.033145
-0.0371396
-0.0420374
-0.047794
-0.054217
-0.0609179
-0.0672901
-0.0725282
-0.0756917
-0.0758116
-0.0720454
-0.0638207
-0.0511101
-0.0348699
-0.0175528
-0.00305823
0.0034258
-0.00516122
-0.0255044
-0.0271141
-0.0272498
-0.0268391
-0.0262693
-0.025768
-0.0255046
-0.0255945
-0.0261248
-0.02718
-0.0288548
-0.0312574
-0.0345009
-0.0386822
-0.0438467
-0.0499402
-0.0567558
-0.0638887
-0.0707126
-0.0763901
-0.0799449
-0.0803388
-0.0766504
-0.0681563
-0.0545817
-0.0365135
-0.0160476
0.00278579
0.0132662
0.00654605
-0.0295678
-0.031487
-0.0312136
-0.0301698
-0.0289516
-0.027865
-0.0271069
-0.0267955
-0.0270127
-0.0278373
-0.0293602
-0.0316864
-0.0349245
-0.0391636
-0.0444366
-0.0506721
-0.0576421
-0.064916
-0.0718402
-0.077552
-0.0810393
-0.0812336
-0.0771023
-0.0678113
-0.0528798
-0.0325942
-0.00864086
0.0151293
0.0306028
0.0280741
-0.0349302
-0.0370286
-0.0359072
-0.0338027
-0.0316128
-0.0297129
-0.0283009
-0.0274751
-0.0272951
-0.0278218
-0.029133
-0.0313219
-0.0344856
-0.0386964
-0.0439649
-0.0501937
-0.0571257
-0.0643008
-0.0710347
-0.0764296
-0.0794245
-0.0788744
-0.0736404
-0.0627476
-0.0455624
-0.0221121
0.00631782
0.0365209
0.0588129
0.0636465
-0.0428808
-0.0444318
-0.0415674
-0.0377342
-0.034146
-0.0311751
-0.0289589
-0.0275351
-0.0269145
-0.0271229
-0.0282119
-0.0302544
-0.0333246
-0.0374699
-0.0426711
-0.0487969
-0.0555539
-0.0624461
-0.0687512
-0.0735239
-0.0756345
-0.0738249
-0.066811
-0.0534269
-0.0328174
-0.00480516
0.0296382
0.0689858
0.101396
0.118036
-0.0565313
-0.054817
-0.0483736
-0.0418023
-0.0362749
-0.0319623
-0.028827
-0.0267831
-0.0257512
-0.025696
-0.0266253
-0.0285766
-0.0315921
-0.0356856
-0.0408016
-0.046769
-0.0532542
-0.0597207
-0.0654037
-0.0693065
-0.0702251
-0.0667479
-0.0574069
-0.0407657
-0.0156299
0.0186282
0.0616772
0.112355
0.159966
0.198115
-0.0837816
-0.0694768
-0.0563642
-0.0455702
-0.0374142
-0.0315317
-0.0274724
-0.0249149
-0.0236267
-0.0234721
-0.0243934
-0.0263808
-0.0294367
-0.0335374
-0.0385894
-0.044383
-0.0505464
-0.0565043
-0.0614489
-0.0643309
-0.0638943
-0.058591
-0.0467597
-0.0265752
0.00368092
0.0454868
0.0995341
0.165993
0.235185
0.317637
-0.136122
-0.0848485
-0.0632816
-0.0466287
-0.0353975
-0.0282043
-0.0237189
-0.0211373
-0.0200099
-0.0200955
-0.0212759
-0.0235015
-0.0267446
-0.0309551
-0.0360146
-0.0416902
-0.0475904
-0.0531245
-0.0574679
-0.0595315
-0.0579462
-0.0512591
-0.0375999
-0.0147335
0.0197407
0.0687808
0.135424
0.224585
0.332758
0.502617
-0.308645
-0.0945346
-0.0459575
-0.0279376
-0.018125
-0.0131553
-0.0111348
-0.010728
-0.0113328
-0.0127614
-0.0149774
-0.0179918
-0.02182
-0.0264442
-0.0317715
-0.0375922
-0.0435384
-0.0490479
-0.0533373
-0.0553884
-0.0539417
-0.0473458
-0.0336716
-0.0107574
0.0242092
0.075681
0.150282
0.265571
0.440929
0.784835
)
;

boundaryField
{
    movingWall
    {
        type            zeroGradient;
    }
    fixedWalls
    {
        type            zeroGradient;
    }
    frontAndBack
    {
        type            empty;
    }
}


// ************************************************************************* //
