/*--------------------------------*- C++ -*----------------------------------*\
  =========                 |
  \\      /  F ield         | OpenFOAM: The Open Source CFD Toolbox
   \\    /   O peration     | Website:  https://openfoam.org
    \\  /    A nd           | Version:  7
     \\/     M anipulation  |
\*---------------------------------------------------------------------------*/
FoamFile
{
    version     2.0;
    format      ascii;
    class       volScalarField;
    location    "6.6";
    object      p;
}
// * * * * * * * * * * * * * * * * * * * * * * * * * * * * * * * * * * * * * //

dimensions      [0 2 -2 0 0 0 0];

internalField   nonuniform List<scalar> 
900
(
4.92796e-09
-0.000134577
-0.000291474
-0.000423958
-0.000500981
-0.000505757
-0.000432316
-0.000279827
-4.93048e-05
0.000257718
0.000639356
0.00109284
0.00161356
0.00219397
0.00282251
0.00348282
0.00415367
0.00480896
0.00541958
0.00595555
0.00638921
0.00669886
0.00687238
0.00690993
0.00682537
0.00664663
0.00641445
0.00616809
0.00597824
0.00589417
0.000132507
-4.4768e-06
-0.000113815
-0.000194559
-0.000229221
-0.000204883
-0.000116083
3.91136e-05
0.000261114
0.00054943
0.000902724
0.00131843
0.00179207
0.00231647
0.00288091
0.00347046
0.00406717
0.00464796
0.00518813
0.00566259
0.00604856
0.00632873
0.00649419
0.00654653
0.00649873
0.00637453
0.00620637
0.00603072
0.00588723
0.00580909
0.000295518
0.00010056
-1.13456e-05
-7.92652e-05
-9.95334e-05
-6.36093e-05
3.14817e-05
0.000186644
0.000402236
0.000678174
0.00101372
0.00140702
0.00185441
0.00234964
0.00288311
0.00344141
0.00400725
0.0045592
0.00507369
0.00552651
0.00589556
0.00616397
0.00632306
0.00637445
0.00633076
0.00621451
0.00605543
0.0058873
0.00574085
0.00562494
0.000436801
0.000172367
4.15223e-05
-2.82971e-05
-4.51784e-05
-5.11876e-06
9.17193e-05
0.000244534
0.000453195
0.000717885
0.0010386
0.00141453
0.00184324
0.00231986
0.0028361
0.00337965
0.00393409
0.00447825
0.00498823
0.00543883
0.0058065
0.00607273
0.00622742
0.00627136
0.00621696
0.00608684
0.00591088
0.00572313
0.00554964
0.005382
0.000515075
0.000181939
2.76771e-05
-5.03396e-05
-6.98268e-05
-3.05966e-05
6.42487e-05
0.000212231
0.000412728
0.000666249
0.000973682
0.0013355
0.00175083
0.00221641
0.00272544
0.00326659
0.00382478
0.00437785
0.00490062
0.00536556
0.00574595
0.00601992
0.00617445
0.00620856
0.00613442
0.00597581
0.00576494
0.00553919
0.00532437
0.0051001
0.000498079
0.000101178
-7.78302e-05
-0.000167709
-0.000194079
-0.000159817
-7.05054e-05
6.99904e-05
0.00026074
0.000502736
0.000797949
0.00114838
0.00155497
0.00201638
0.00252758
0.00307844
0.00365507
0.00423394
0.00478779
0.00528545
0.00569537
0.00599032
0.0061525
0.00617782
0.00607782
0.00587837
0.00561615
0.00533512
0.0050654
0.00477889
0.000361851
-9.25013e-05
-0.000295778
-0.000399378
-0.000435549
-0.000409643
-0.000329239
-0.000199232
-2.06096e-05
0.000208308
0.000490777
0.000830575
0.00123078
0.00169238
0.00221278
0.00278439
0.0033908
0.00401119
0.00461486
0.00516573
0.00562563
0.00595963
0.00614262
0.00616525
0.00603734
0.00578722
0.00545819
0.00510427
0.00476411
0.00440458
8.72763e-05
-0.000418346
-0.00064465
-0.000762905
-0.000811124
-0.000796733
-0.000728918
-0.000613288
-0.000450663
-0.000238498
2.79264e-05
0.000354402
0.000746504
0.00120806
0.00173944
0.00233544
0.00298201
0.00365801
0.00433031
0.00495756
0.00549323
0.00589186
0.00611738
0.00615161
0.00600016
0.00569329
0.00528264
0.00483633
0.00440568
0.00395258
-0.000341835
-0.000893214
-0.00114129
-0.00127502
-0.00133763
-0.00133837
-0.00128781
-0.00119208
-0.00105171
-0.000863238
-0.000620387
-0.000315186
6.07943e-05
0.000514907
0.00105153
0.0016694
0.00235786
0.00309854
0.00385661
0.0045859
0.00523019
0.0057301
0.00603348
0.00610741
0.00594823
0.00558552
0.00508028
0.00451933
0.00397151
0.00339111
-0.000939491
-0.00153176
-0.00180069
-0.00195111
-0.00203106
-0.00205162
-0.00202462
-0.00195673
-0.00184829
-0.00169504
-0.00148928
-0.00122088
-0.000878312
-0.000450029
7.37185e-05
0.000697696
0.0014171
0.00222163
0.0030767
0.00393377
0.00472704
0.00537983
0.00581695
0.00598137
0.00585073
0.00544738
0.0048405
0.00414092
0.00344141
0.00268379
-0.00171767
-0.00234644
-0.00263576
-0.00280469
-0.00290591
-0.00295238
-0.0029574
-0.00292838
-0.00286585
-0.00276521
-0.00261785
-0.00241186
-0.00213274
-0.00176426
-0.00128992
-0.000695651
2.52456e-05
0.000871382
0.00181965
0.00282379
0.00381119
0.00468575
0.00534094
0.00568176
0.00565081
0.00524939
0.00454885
0.003689
0.00279562
0.00179192
-0.0026861
-0.00334732
-0.003657
-0.00384696
-0.00397435
-0.00405436
-0.00410211
-0.00412635
-0.00412852
-0.00410458
-0.00404607
-0.00394036
-0.00377071
-0.00351634
-0.00315282
-0.00265313
-0.00199165
-0.00115916
-0.000149649
0.0010021
0.00222485
0.00340501
0.00439691
0.00504931
0.005244
0.00493544
0.00418097
0.003151
0.00201671
0.000676746
-0.00385182
-0.0045418
-0.00487218
-0.00508612
-0.00524527
-0.00536755
-0.00547061
-0.00556542
-0.00565552
-0.00573896
-0.00580915
-0.00585467
-0.0058584
-0.00579612
-0.00563515
-0.0053336
-0.00484312
-0.0041202
-0.00312555
-0.00186323
-0.000385286
0.00118727
0.00266677
0.00382575
0.00444922
0.00440139
0.00369142
0.00251142
0.00109177
-0.000697643
-0.00521873
-0.00593433
-0.00628592
-0.00652675
-0.00672314
-0.0068965
-0.00706802
-0.00725221
-0.00745636
-0.00768268
-0.00792905
-0.00818824
-0.00844584
-0.00867686
-0.00884156
-0.00888159
-0.00871857
-0.00826022
-0.00742524
-0.00615083
-0.00444558
-0.0024164
-0.000284413
0.00163239
0.00298017
0.00346915
0.00299764
0.00174752
1.57764e-05
-0.00235888
-0.00678719
-0.00752637
-0.00789955
-0.00816926
-0.00840685
-0.00863833
-0.0088898
-0.00918099
-0.00952498
-0.00993075
-0.0104039
-0.0109453
-0.0115477
-0.0121897
-0.0128275
-0.0133865
-0.013755
-0.013785
-0.0133122
-0.0122021
-0.0103748
-0.00788607
-0.00496353
-0.00201264
0.000438392
0.00186763
0.00196338
0.000824941
-0.00120172
-0.00431576
-0.00855404
-0.0093168
-0.00971137
-0.0100097
-0.0102888
-0.0105809
-0.0109188
-0.0113294
-0.0118338
-0.0124506
-0.0131967
-0.0140856
-0.0151223
-0.0162942
-0.0175586
-0.018827
-0.0199524
-0.0207214
-0.0208665
-0.0201833
-0.0184346
-0.0155843
-0.0118201
-0.00760139
-0.00363788
-0.000755207
0.00039406
-0.000302414
-0.0025238
-0.00653865
-0.0105133
-0.0113031
-0.0117176
-0.0120399
-0.0123545
-0.0127017
-0.013123
-0.0136548
-0.0143287
-0.0151754
-0.0162264
-0.0175117
-0.0190536
-0.0208542
-0.0228768
-0.0250236
-0.0271142
-0.028878
-0.0299675
-0.0299558
-0.0285502
-0.0255497
-0.0210341
-0.015447
-0.00963543
-0.0047558
-0.00193204
-0.00167872
-0.00386342
-0.00892595
-0.0126577
-0.0134835
-0.0139143
-0.0142491
-0.0145828
-0.0149666
-0.0154541
-0.0160929
-0.0169272
-0.0180016
-0.0193646
-0.0210655
-0.023147
-0.0256297
-0.0284877
-0.0316185
-0.034814
-0.0377445
-0.0399613
-0.0409204
-0.0401647
-0.0373175
-0.0322977
-0.0254454
-0.0176447
-0.010331
-0.0051719
-0.0033028
-0.00504623
-0.0112523
-0.0149821
-0.0158614
-0.0163006
-0.0166256
-0.0169468
-0.0173313
-0.0178478
-0.0185582
-0.0195198
-0.0207925
-0.022442
-0.0245374
-0.0271428
-0.0302979
-0.0339896
-0.0381142
-0.0424421
-0.0465937
-0.0500366
-0.0521123
-0.0522548
-0.0498745
-0.0447006
-0.0368912
-0.0272338
-0.0173
-0.00926012
-0.00503615
-0.00575348
-0.0130943
-0.0174893
-0.0184515
-0.0188838
-0.0191599
-0.019416
-0.0197419
-0.0202265
-0.0209478
-0.0219771
-0.0233886
-0.025264
-0.0276903
-0.0307504
-0.0345008
-0.0389392
-0.0439621
-0.0493226
-0.054602
-0.0592207
-0.0624805
-0.063554
-0.0618351
-0.0568383
-0.0484853
-0.0373426
-0.0249202
-0.0137148
-0.00646451
-0.00544224
-0.0137295
-0.0201997
-0.0212901
-0.0216865
-0.021849
-0.0219583
-0.0221378
-0.0225025
-0.0231483
-0.0241601
-0.0256243
-0.027635
-0.0302933
-0.0336954
-0.0379092
-0.0429382
-0.0486769
-0.0548658
-0.0610574
-0.0666296
-0.0708272
-0.0728055
-0.0717889
-0.0671543
-0.0586033
-0.0464182
-0.0318657
-0.0175038
-0.00674117
-0.00324316
-0.0120068
-0.0231698
-0.0244517
-0.024756
-0.0247001
-0.0245417
-0.0244534
-0.0245829
-0.0250447
-0.0259347
-0.0273477
-0.0293859
-0.032158
-0.035767
-0.0402848
-0.0457135
-0.0519407
-0.0587001
-0.0655164
-0.0717433
-0.0765907
-0.0792089
-0.0787052
-0.0743701
-0.0657228
-0.0527693
-0.0364313
-0.0190715
-0.00449237
0.00215479
-0.00619778
-0.026528
-0.0280755
-0.0281773
-0.027734
-0.0271348
-0.0266204
-0.0263754
-0.0265299
-0.027186
-0.0284407
-0.0303983
-0.0331685
-0.0368535
-0.0415204
-0.0471613
-0.0536475
-0.0607305
-0.0678694
-0.0744211
-0.079564
-0.0825071
-0.0821346
-0.0777732
-0.068793
-0.0549731
-0.0368862
-0.0165481
0.00214744
0.0126212
0.00615749
-0.0305509
-0.0324082
-0.0320877
-0.0309857
-0.0297043
-0.0285678
-0.0277926
-0.0275147
-0.0278319
-0.0288352
-0.0306234
-0.0332993
-0.0369568
-0.0416511
-0.0473607
-0.0539422
-0.0610927
-0.068302
-0.0748882
-0.0800094
-0.0827438
-0.0821165
-0.0772333
-0.0673744
-0.0521428
-0.0318302
-0.00807171
0.0154076
0.0307087
0.028382
-0.0358293
-0.037872
-0.0366886
-0.0344961
-0.0322055
-0.0302171
-0.0287531
-0.0279322
-0.0278305
-0.0285208
-0.0300863
-0.0326142
-0.036184
-0.0408289
-0.0465047
-0.053043
-0.0601107
-0.0671825
-0.0735463
-0.0783232
-0.080524
-0.0791107
-0.0730703
-0.0615449
-0.0439829
-0.0204536
0.00781112
0.0376933
0.0596946
0.0646126
-0.0436584
-0.0451652
-0.0422238
-0.0382724
-0.0345476
-0.0314536
-0.0291563
-0.0277158
-0.0271597
-0.0275232
-0.0288624
-0.0312406
-0.0347094
-0.039276
-0.0448657
-0.0512781
-0.0581493
-0.0649251
-0.0708567
-0.075016
-0.0763376
-0.0736605
-0.0658232
-0.0517705
-0.0307281
-0.00256037
0.0317569
0.0708932
0.102956
0.119544
-0.0571712
-0.0554308
-0.0488987
-0.042184
-0.0364918
-0.0320305
-0.0287946
-0.0267214
-0.0257469
-0.0258445
-0.0270222
-0.0293063
-0.0327134
-0.0372167
-0.0427053
-0.0489431
-0.0555316
-0.0618828
-0.0672087
-0.0705277
-0.0706934
-0.0663755
-0.0562288
-0.0389176
-0.0133242
0.0211427
0.0641626
0.114634
0.161965
0.20002
-0.0843147
-0.0700106
-0.0567983
-0.0458449
-0.0375053
-0.0314575
-0.0272871
-0.0246938
-0.0234591
-0.0234544
-0.0246196
-0.0269313
-0.0303656
-0.0348581
-0.0402625
-0.046309
-0.0525673
-0.0584167
-0.0630294
-0.0653733
-0.0642527
-0.0581599
-0.0455628
-0.0247346
0.0059719
0.0480018
0.102062
0.168376
0.237342
0.319755
-0.136628
-0.0853939
-0.0636971
-0.0468791
-0.0354521
-0.0280831
-0.0234778
-0.0208533
-0.019773
-0.0200001
-0.0214129
-0.0239469
-0.0275481
-0.0321275
-0.0375171
-0.0434296
-0.0494206
-0.0548589
-0.0589003
-0.0604632
-0.0582205
-0.0508583
-0.0364986
-0.0130242
0.0218831
0.0711479
0.137822
0.226887
0.334917
0.504717
-0.309223
-0.0951188
-0.0464353
-0.0282347
-0.0182153
-0.0130583
-0.0109038
-0.0104382
-0.0110719
-0.0126222
-0.015049
-0.0183495
-0.0225145
-0.0274899
-0.0331372
-0.0391956
-0.0452482
-0.0506943
-0.0547319
-0.0563532
-0.0543373
-0.047068
-0.0327289
-0.00923013
0.0261769
0.0779053
0.152579
0.267805
0.443049
0.786904
)
;

boundaryField
{
    movingWall
    {
        type            zeroGradient;
    }
    fixedWalls
    {
        type            zeroGradient;
    }
    frontAndBack
    {
        type            empty;
    }
}


// ************************************************************************* //
