/*--------------------------------*- C++ -*----------------------------------*\
  =========                 |
  \\      /  F ield         | OpenFOAM: The Open Source CFD Toolbox
   \\    /   O peration     | Website:  https://openfoam.org
    \\  /    A nd           | Version:  7
     \\/     M anipulation  |
\*---------------------------------------------------------------------------*/
FoamFile
{
    version     2.0;
    format      ascii;
    class       volVectorField;
    location    "6.6";
    object      U;
}
// * * * * * * * * * * * * * * * * * * * * * * * * * * * * * * * * * * * * * //

dimensions      [0 1 -1 0 0 0 0];

internalField   nonuniform List<vector> 
900
(
(7.58101e-05 -7.48025e-05 0)
(5.66499e-05 4.97169e-06 0)
(-0.000270707 0.000101843 0)
(-0.00083857 0.000174119 0)
(-0.00157926 0.000219229 0)
(-0.00242971 0.000243139 0)
(-0.00333757 0.00025274 0)
(-0.00426367 0.00025309 0)
(-0.0051784 0.000246981 0)
(-0.00605717 0.000235395 0)
(-0.00687664 0.000218062 0)
(-0.0076123 0.000193962 0)
(-0.00823716 0.000161793 0)
(-0.00872171 0.000120423 0)
(-0.00903536 6.93627e-05 0)
(-0.00914899 9.11895e-06 0)
(-0.00903799 -5.88892e-05 0)
(-0.00868686 -0.000130959 0)
(-0.00809418 -0.000202136 0)
(-0.00727585 -0.000266262 0)
(-0.00626765 -0.000316552 0)
(-0.00512534 -0.000346544 0)
(-0.00392176 -0.00035115 0)
(-0.00274101 -0.000327599 0)
(-0.00167042 -0.000275997 0)
(-0.000790229 -0.000199391 0)
(-0.000158598 -0.000105012 0)
(0.000176891 -1.04238e-05 0)
(0.000224046 7.41482e-05 0)
(9.20274e-05 9.14868e-05 0)
(-2.69422e-06 -5.88943e-05 0)
(-0.000390905 0.000386963 0)
(-0.00143883 0.000864764 0)
(-0.00298143 0.00124225 0)
(-0.00489885 0.00150096 0)
(-0.00706967 0.00165471 0)
(-0.00938138 0.00172553 0)
(-0.0117403 0.00173246 0)
(-0.0140687 0.00168778 0)
(-0.0162981 0.00159702 0)
(-0.018364 0.00146045 0)
(-0.0202007 0.0012751 0)
(-0.0217399 0.00103695 0)
(-0.0229108 0.000743217 0)
(-0.0236434 0.000394613 0)
(-0.0238746 -2.71595e-06 0)
(-0.0235539 -0.00043554 0)
(-0.0226533 -0.000882606 0)
(-0.0211778 -0.00131538 0)
(-0.0191708 -0.00169977 0)
(-0.0167185 -0.00199954 0)
(-0.01395 -0.00218111 0)
(-0.0110299 -0.00221879 0)
(-0.00814607 -0.00209975 0)
(-0.00549129 -0.00182747 0)
(-0.00324168 -0.00142336 0)
(-0.00153239 -0.000929499 0)
(-0.000440124 -0.000418067 0)
(5.13492e-05 2.69989e-05 0)
(7.82724e-05 0.000222103 0)
(-0.000107522 0.000274282 0)
(-0.000919952 0.00144754 0)
(-0.00270267 0.00259016 0)
(-0.00514327 0.00350217 0)
(-0.00807742 0.00414599 0)
(-0.0113495 0.00454165 0)
(-0.0148096 0.00472837 0)
(-0.0183276 0.00474342 0)
(-0.021791 0.00461285 0)
(-0.0250981 0.00434976 0)
(-0.0281518 0.00395643 0)
(-0.0308547 0.00342839 0)
(-0.0331071 0.00275935 0)
(-0.034808 0.0019466 0)
(-0.0358598 0.000996243 0)
(-0.0361755 -7.21361e-05 0)
(-0.0356882 -0.00122159 0)
(-0.034363 -0.00239721 0)
(-0.0322095 -0.00352688 0)
(-0.0292905 -0.00452604 0)
(-0.0257274 -0.00530608 0)
(-0.0216995 -0.00578556 0)
(-0.0174354 -0.00590286 0)
(-0.0131956 -0.00562822 0)
(-0.00924762 -0.00497278 0)
(-0.00583668 -0.00399346 0)
(-0.00315312 -0.00279584 0)
(-0.0013005 -0.00153815 0)
(-0.000270779 -0.000431338 0)
(2.34171e-05 0.000204617 0)
(-0.000200048 0.000894229 0)
(-0.00141236 0.00310134 0)
(-0.00389351 0.00508939 0)
(-0.00716331 0.0066528 0)
(-0.0110049 0.00775771 0)
(-0.0152331 0.00843936 0)
(-0.019671 0.00875722 0)
(-0.0241639 0.00876774 0)
(-0.0285756 0.00851117 0)
(-0.0327814 0.0080085 0)
(-0.0366605 0.00726427 0)
(-0.040092 0.00627286 0)
(-0.0429526 0.00502648 0)
(-0.045118 0.00352406 0)
(-0.046468 0.00177998 0)
(-0.0468958 -0.000168141 0)
(-0.0463181 -0.00225444 0)
(-0.0446892 -0.00438105 0)
(-0.0420169 -0.00642162 0)
(-0.0383723 -0.00822885 0)
(-0.0338984 -0.00964845 0)
(-0.0288107 -0.0105382 0)
(-0.0233879 -0.0107901 0)
(-0.0179515 -0.0103514 0)
(-0.0128361 -0.00924142 0)
(-0.00835145 -0.00756018 0)
(-0.00474238 -0.0054906 0)
(-0.00214678 -0.00329586 0)
(-0.000580238 -0.00131501 0)
(-2.45097e-05 5.13352e-06 0)
(-0.000275927 0.00176723 0)
(-0.00184509 0.00530497 0)
(-0.00496626 0.00830605 0)
(-0.00899353 0.0106146 0)
(-0.0136542 0.0122313 0)
(-0.0187334 0.0132219 0)
(-0.024032 0.0136727 0)
(-0.029378 0.0136619 0)
(-0.0346204 0.0132443 0)
(-0.0396193 0.0124486 0)
(-0.0442388 0.0112809 0)
(-0.0483414 0.00973408 0)
(-0.0517858 0.00779821 0)
(-0.0544279 0.00547366 0)
(-0.0561268 0.00278338 0)
(-0.0567538 -0.000215722 0)
(-0.0562033 -0.003425 0)
(-0.0544095 -0.00669938 0)
(-0.0513656 -0.00985042 0)
(-0.0471371 -0.0126571 0)
(-0.041875 -0.0148858 0)
(-0.0358198 -0.0163184 0)
(-0.0292949 -0.016786 0)
(-0.0226843 -0.0162023 0)
(-0.016397 -0.014591 0)
(-0.0108199 -0.0120994 0)
(-0.00626655 -0.00899927 0)
(-0.00292341 -0.00567417 0)
(-0.000838105 -0.00259956 0)
(-5.41743e-05 -0.000345728 0)
(-0.000337912 0.00285932 0)
(-0.00222 0.00800533 0)
(-0.00591727 0.0121826 0)
(-0.010632 0.0153253 0)
(-0.0160368 0.0174979 0)
(-0.0218879 0.0188146 0)
(-0.027967 0.0193984 0)
(-0.0340901 0.0193533 0)
(-0.0400978 0.0187506 0)
(-0.045843 0.0176262 0)
(-0.0511813 0.0159871 0)
(-0.0559648 0.0138223 0)
(-0.0600387 0.0111176 0)
(-0.0632415 0.00787165 0)
(-0.0654093 0.00411303 0)
(-0.0663858 -8.47442e-05 0)
(-0.0660335 -0.00458958 0)
(-0.0642521 -0.00920901 0)
(-0.0610017 -0.0136861 0)
(-0.0563231 -0.0177147 0)
(-0.050358 -0.0209647 0)
(-0.0433609 -0.0231206 0)
(-0.0356973 -0.02393 0)
(-0.0278226 -0.0232537 0)
(-0.0202397 -0.0211087 0)
(-0.0134395 -0.0176911 0)
(-0.0078325 -0.0133749 0)
(-0.00367575 -0.00868625 0)
(-0.00105676 -0.00426007 0)
(-6.68073e-05 -0.000812288 0)
(-0.000389803 0.00413975 0)
(-0.00254637 0.0111462 0)
(-0.00675924 0.0166536 0)
(-0.0120968 0.0207166 0)
(-0.0181818 0.0234887 0)
(-0.0247435 0.0251506 0)
(-0.0315481 0.025873 0)
(-0.0384045 0.025792 0)
(-0.0451512 0.0249976 0)
(-0.0516401 0.0235337 0)
(-0.0577255 0.0214061 0)
(-0.0632552 0.0185969 0)
(-0.0680649 0.0150826 0)
(-0.071977 0.0108544 0)
(-0.0748022 0.00593922 0)
(-0.0763471 0.000420257 0)
(-0.0764299 -0.00554495 0)
(-0.0748976 -0.0117171 0)
(-0.071652 -0.0177674 0)
(-0.0666839 -0.0232925 0)
(-0.0601019 -0.0278446 0)
(-0.0521577 -0.0309808 0)
(-0.0432547 -0.0323297 0)
(-0.0339312 -0.0316667 0)
(-0.0248124 -0.0289799 0)
(-0.016534 -0.0245103 0)
(-0.00964703 -0.0187512 0)
(-0.00451397 -0.0124055 0)
(-0.00127734 -0.00631058 0)
(-6.95035e-05 -0.00137682 0)
(-0.000434455 0.0055841 0)
(-0.0028334 0.0146781 0)
(-0.00750806 0.0216599 0)
(-0.0134107 0.0267278 0)
(-0.0201205 0.0301463 0)
(-0.0273441 0.0321795 0)
(-0.0348359 0.0330575 0)
(-0.0424032 0.032956 0)
(-0.0498883 0.0319872 0)
(-0.0571496 0.0302032 0)
(-0.0640471 0.0276067 0)
(-0.0704306 0.0241686 0)
(-0.0761316 0.0198489 0)
(-0.0809577 0.0146214 0)
(-0.0846915 0.00849965 0)
(-0.0870957 0.00156329 0)
(-0.0879277 -0.00601812 0)
(-0.0869573 -0.013966 0)
(-0.084 -0.0218799 0)
(-0.0789626 -0.0292487 0)
(-0.071888 -0.0354806 0)
(-0.0629981 -0.0399645 0)
(-0.052722 -0.0421594 0)
(-0.0416893 -0.0417024 0)
(-0.0306806 -0.0385131 0)
(-0.0205306 -0.0328626 0)
(-0.0119941 -0.0253829 0)
(-0.0055935 -0.0170035 0)
(-0.00155723 -0.00883155 0)
(-7.11413e-05 -0.00204867 0)
(-0.000473507 0.00717296 0)
(-0.0030876 0.0185591 0)
(-0.00817652 0.0271497 0)
(-0.0145926 0.033306 0)
(-0.0218779 0.0374228 0)
(-0.0297213 0.0398632 0)
(-0.0378709 0.0409289 0)
(-0.0461375 0.0408428 0)
(-0.0543743 0.0397442 0)
(-0.0624535 0.0376944 0)
(-0.070249 0.0346912 0)
(-0.0776207 0.0306883 0)
(-0.084402 0.0256199 0)
(-0.0903892 0.0194287 0)
(-0.0953362 0.0120973 0)
(-0.098954 0.00368151 0)
(-0.100924 -0.00565572 0)
(-0.100915 -0.0156147 0)
(-0.0986201 -0.0257305 0)
(-0.0938233 -0.0353756 0)
(-0.0864567 -0.0437865 0)
(-0.0766727 -0.050133 0)
(-0.0648984 -0.0536342 0)
(-0.0518525 -0.0537106 0)
(-0.0385012 -0.0501451 0)
(-0.0259427 -0.0432045 0)
(-0.0152225 -0.0336749 0)
(-0.00710646 -0.0227784 0)
(-0.00196552 -0.0119899 0)
(-8.1295e-05 -0.00287111 0)
(-0.000507661 0.00888983 0)
(-0.00331253 0.0227521 0)
(-0.00877238 0.0330762 0)
(-0.0156535 0.0404034 0)
(-0.0234676 0.0452749 0)
(-0.0318903 0.0481684 0)
(-0.0406685 0.0494692 0)
(-0.049623 0.0494564 0)
(-0.0586244 0.0483018 0)
(-0.0675674 0.0460784 0)
(-0.0763488 0.0427767 0)
(-0.0848478 0.0383272 0)
(-0.0929082 0.032627 0)
(-0.100322 0.0255705 0)
(-0.106814 0.0170861 0)
(-0.112042 0.007178 0)
(-0.115598 -0.00402724 0)
(-0.117025 -0.0162316 0)
(-0.115863 -0.0289265 0)
(-0.111725 -0.0413671 0)
(-0.104381 -0.0525916 0)
(-0.0938565 -0.0614934 0)
(-0.080529 -0.0669632 0)
(-0.0651801 -0.0680951 0)
(-0.0489767 -0.064427 0)
(-0.0333465 -0.0561502 0)
(-0.0197366 -0.0442029 0)
(-0.00927837 -0.0301793 0)
(-0.00258225 -0.0160565 0)
(-0.000110242 -0.00392653 0)
(-0.000536983 0.0107194 0)
(-0.00350933 0.0272226 0)
(-0.00929852 0.0393955 0)
(-0.016597 0.0479729 0)
(-0.024891 0.0536585 0)
(-0.0338476 0.0570588 0)
(-0.0432172 0.0586555 0)
(-0.0528359 0.058794 0)
(-0.0625992 0.0576852 0)
(-0.0724325 0.0554168 0)
(-0.0822652 0.0519715 0)
(-0.0920062 0.0472501 0)
(-0.10152 0.0410999 0)
(-0.110603 0.033347 0)
(-0.11896 0.023838 0)
(-0.126193 0.0124901 0)
(-0.131796 -0.000645336 0)
(-0.135175 -0.0153061 0)
(-0.13569 -0.0309735 0)
(-0.13274 -0.0467958 0)
(-0.125874 -0.0615959 0)
(-0.114924 -0.0739357 0)
(-0.100141 -0.0822773 0)
(-0.0823085 -0.0852472 0)
(-0.0627729 -0.0819785 0)
(-0.043339 -0.0724546 0)
(-0.0259811 -0.057722 0)
(-0.0123658 -0.0398256 0)
(-0.00349893 -0.0214221 0)
(-0.000169284 -0.00534173 0)
(-0.000561176 0.0126463 0)
(-0.00367763 0.0319368 0)
(-0.00975447 0.0460631 0)
(-0.0174204 0.0559653 0)
(-0.0261397 0.0625235 0)
(-0.0355735 0.0664877 0)
(-0.0454795 0.0684494 0)
(-0.055714 0.0688314 0)
(-0.0662033 0.0678921 0)
(-0.0769111 0.0657384 0)
(-0.0878084 0.0623453 0)
(-0.0988445 0.0575785 0)
(-0.109916 0.0512226 0)
(-0.120834 0.0430143 0)
(-0.131296 0.0326876 0)
(-0.140855 0.0200341 0)
(-0.14891 0.004984 0)
(-0.15473 -0.0122937 0)
(-0.157487 -0.0313013 0)
(-0.156332 -0.0511105 0)
(-0.15055 -0.0703323 0)
(-0.139701 -0.0871583 0)
(-0.123813 -0.0995268 0)
(-0.103561 -0.105434 0)
(-0.0803854 -0.103392 0)
(-0.0564644 -0.0929553 0)
(-0.0344139 -0.0751492 0)
(-0.0166522 -0.0525163 0)
(-0.00482007 -0.0286122 0)
(-0.000271439 -0.00729397 0)
(-0.000579862 0.0146546 0)
(-0.00381681 0.0368603 0)
(-0.0101389 0.0530325 0)
(-0.0181186 0.0643255 0)
(-0.0271992 0.0718085 0)
(-0.0370368 0.0763901 0)
(-0.047398 0.0787856 0)
(-0.058162 0.0795079 0)
(-0.0692903 0.0788721 0)
(-0.08079 0.0770108 0)
(-0.0926807 0.0738926 0)
(-0.10496 0.0693443 0)
(-0.117568 0.0630761 0)
(-0.130343 0.0547145 0)
(-0.142987 0.0438504 0)
(-0.155024 0.0301098 0)
(-0.165784 0.0132518 0)
(-0.17441 -0.00670505 0)
(-0.179893 -0.029328 0)
(-0.181153 -0.0536662 0)
(-0.177179 -0.0781497 0)
(-0.1672 -0.100596 0)
(-0.150903 -0.118356 0)
(-0.128696 -0.12864 0)
(-0.101945 -0.129073 0)
(-0.0730953 -0.118452 0)
(-0.0454567 -0.0975049 0)
(-0.0224396 -0.0692216 0)
(-0.00666574 -0.0382991 0)
(-0.000432861 -0.0100185 0)
(-0.000592941 0.016728 0)
(-0.00392774 0.0419583 0)
(-0.0104536 0.0602552 0)
(-0.01869 0.0729912 0)
(-0.0280571 0.0814375 0)
(-0.0382042 0.0866762 0)
(-0.0489056 0.089562 0)
(-0.060064 0.0907107 0)
(-0.0716765 0.0905054 0)
(-0.0837956 0.0891113 0)
(-0.0964921 0.0864943 0)
(-0.109817 0.0824396 0)
(-0.123759 0.0765743 0)
(-0.138198 0.0683975 0)
(-0.152857 0.0573308 0)
(-0.167261 0.042799 0)
(-0.180703 0.0243474 0)
(-0.192241 0.00179851 0)
(-0.200739 -0.0245564 0)
(-0.204932 -0.0537943 0)
(-0.203533 -0.0842361 0)
(-0.195402 -0.113378 0)
(-0.179786 -0.137984 0)
(-0.15663 -0.154372 0)
(-0.126964 -0.159015 0)
(-0.093253 -0.149506 0)
(-0.0594071 -0.125788 0)
(-0.0300269 -0.0910434 0)
(-0.00917404 -0.0513067 0)
(-0.000675175 -0.0138179 0)
(-0.000601047 0.0188513 0)
(-0.00401505 0.0471989 0)
(-0.0107083 0.0676824 0)
(-0.019144 0.0818937 0)
(-0.0287132 0.0913179 0)
(-0.0390526 0.0972269 0)
(-0.0499413 0.100631 0)
(-0.061302 0.102263 0)
(-0.0731647 0.102585 0)
(-0.0856239 0.101803 0)
(-0.0987988 0.0998833 0)
(-0.112792 0.0965714 0)
(-0.127645 0.0914058 0)
(-0.143286 0.0837483 0)
(-0.159481 0.072835 0)
(-0.175786 0.0578667 0)
(-0.19151 0.038146 0)
(-0.205707 0.0132598 0)
(-0.217185 -0.0167045 0)
(-0.224582 -0.0509172 0)
(-0.226421 -0.0877004 0)
(-0.221219 -0.124349 0)
(-0.207715 -0.157136 0)
(-0.18521 -0.181494 0)
(-0.154071 -0.192535 0)
(-0.116368 -0.186153 0)
(-0.0762934 -0.160764 0)
(-0.0396634 -0.11912 0)
(-0.0125 -0.0686015 0)
(-0.00102856 -0.0190738 0)
(-0.000606139 0.0210131 0)
(-0.00409011 0.0525575 0)
(-0.0109273 0.0752705 0)
(-0.019511 0.0909608 0)
(-0.0291917 0.101341 0)
(-0.0395855 0.107892 0)
(-0.0504698 0.111795 0)
(-0.0617818 0.113916 0)
(-0.0735774 0.114805 0)
(-0.0859851 0.114717 0)
(-0.0991641 0.113625 0)
(-0.113261 0.111234 0)
(-0.128367 0.106999 0)
(-0.144464 0.100142 0)
(-0.161379 0.0897137 0)
(-0.178736 0.0746873 0)
(-0.195928 0.0541165 0)
(-0.212088 0.0273397 0)
(-0.226075 -0.00578934 0)
(-0.236567 -0.0446802 0)
(-0.242032 -0.0877144 0)
(-0.240736 -0.132184 0)
(-0.230936 -0.174092 0)
(-0.211167 -0.208144 0)
(-0.180813 -0.228055 0)
(-0.141023 -0.227574 0)
(-0.0956656 -0.202641 0)
(-0.0514578 -0.154447 0)
(-0.0168051 -0.0912514 0)
(-0.00153514 -0.0262569 0)
(-0.000612297 0.0232105 0)
(-0.00417479 0.0580265 0)
(-0.0111575 0.0829896 0)
(-0.0198537 0.100124 0)
(-0.0295564 0.111388 0)
(-0.0398504 0.118492 0)
(-0.050504 0.122811 0)
(-0.0614618 0.125352 0)
(-0.0727967 0.126766 0)
(-0.0846598 0.12736 0)
(-0.0972368 0.127119 0)
(-0.110707 0.125717 0)
(-0.125202 0.122529 0)
(-0.140761 0.116652 0)
(-0.157287 0.106966 0)
(-0.174512 0.0922395 0)
(-0.191962 0.0712954 0)
(-0.20895 0.0432312 0)
(-0.224563 0.00764831 0)
(-0.2376 -0.0351288 0)
(-0.246609 -0.0837102 0)
(-0.249841 -0.135614 0)
(-0.245185 -0.186883 0)
(-0.230415 -0.231841 0)
(-0.203722 -0.263017 0)
(-0.164803 -0.271801 0)
(-0.116369 -0.250684 0)
(-0.0652381 -0.197587 0)
(-0.0222343 -0.120332 0)
(-0.00225321 -0.035932 0)
(-0.000626902 0.0254561 0)
(-0.0043066 0.0636279 0)
(-0.011478 0.0908366 0)
(-0.0202804 0.109328 0)
(-0.0299258 0.121335 0)
(-0.0399567 0.128827 0)
(-0.0501265 0.133392 0)
(-0.0603814 0.136193 0)
(-0.0708032 0.137984 0)
(-0.0815538 0.139132 0)
(-0.0928317 0.139636 0)
(-0.104835 0.139148 0)
(-0.117728 0.136977 0)
(-0.131604 0.132121 0)
(-0.14646 0.123325 0)
(-0.162163 0.109193 0)
(-0.178437 0.0883648 0)
(-0.194848 0.0597305 0)
(-0.210775 0.0226596 0)
(-0.225311 -0.0227697 0)
(-0.237297 -0.0755821 0)
(-0.245128 -0.133732 0)
(-0.246552 -0.193668 0)
(-0.238764 -0.249834 0)
(-0.218761 -0.294083 0)
(-0.184421 -0.315638 0)
(-0.136413 -0.302838 0)
(-0.08039 -0.248271 0)
(-0.0288796 -0.156755 0)
(-0.00326344 -0.0487519 0)
(-0.000662637 0.0277887 0)
(-0.00454615 0.0694319 0)
(-0.0120135 0.0988519 0)
(-0.0209604 0.118543 0)
(-0.0304883 0.131063 0)
(-0.0400903 0.138682 0)
(-0.0495047 0.143222 0)
(-0.0586799 0.146017 0)
(-0.067703 0.147926 0)
(-0.0767388 0.149372 0)
(-0.085988 0.150377 0)
(-0.0956574 0.150576 0)
(-0.105936 0.14924 0)
(-0.116975 0.1453 0)
(-0.128871 0.137415 0)
(-0.141655 0.124086 0)
(-0.155278 0.103838 0)
(-0.169609 0.0754218 0)
(-0.184385 0.0380362 0)
(-0.199083 -0.0085227 0)
(-0.212991 -0.0638225 0)
(-0.22483 -0.126307 0)
(-0.232487 -0.193209 0)
(-0.232909 -0.259681 0)
(-0.222151 -0.317674 0)
(-0.196226 -0.354941 0)
(-0.153096 -0.355598 0)
(-0.0957429 -0.304975 0)
(-0.0367393 -0.201004 0)
(-0.00467988 -0.0654389 0)
(-0.00074132 0.0302897 0)
(-0.00498924 0.0755824 0)
(-0.0129519 0.10714 0)
(-0.0221407 0.127777 0)
(-0.0315151 0.140465 0)
(-0.0405211 0.147833 0)
(-0.0488947 0.15197 0)
(-0.0565981 0.154384 0)
(-0.0637297 0.15604 0)
(-0.0704572 0.157414 0)
(-0.0769806 0.15855 0)
(-0.0835112 0.159082 0)
(-0.0902621 0.158266 0)
(-0.0974435 0.155009 0)
(-0.105261 0.147941 0)
(-0.113915 0.13553 0)
(-0.123598 0.116255 0)
(-0.134477 0.0887981 0)
(-0.146672 0.0522268 0)
(-0.160204 0.00609275 0)
(-0.17473 -0.0495791 0)
(-0.189366 -0.113944 0)
(-0.202529 -0.185247 0)
(-0.211306 -0.259863 0)
(-0.211295 -0.330735 0)
(-0.19699 -0.385309 0)
(-0.163423 -0.404281 0)
(-0.109588 -0.364642 0)
(-0.04568 -0.252798 0)
(-0.00666877 -0.0867593 0)
(-0.000901907 0.0331086 0)
(-0.00578807 0.0823321 0)
(-0.0145704 0.11589 0)
(-0.0241664 0.137082 0)
(-0.0333668 0.149443 0)
(-0.0415958 0.15605 0)
(-0.0486212 0.159291 0)
(-0.054448 0.160852 0)
(-0.0592047 0.161793 0)
(-0.0630734 0.162637 0)
(-0.0662592 0.163447 0)
(-0.0689825 0.16387 0)
(-0.0714844 0.163175 0)
(-0.0740379 0.16029 0)
(-0.0769595 0.15387 0)
(-0.0806186 0.142415 0)
(-0.0854405 0.124432 0)
(-0.0918888 0.0985913 0)
(-0.100425 0.0638714 0)
(-0.111455 0.0196498 0)
(-0.12512 -0.0342992 0)
(-0.141098 -0.0979527 0)
(-0.158346 -0.170606 0)
(-0.17451 -0.250187 0)
(-0.185367 -0.331446 0)
(-0.184607 -0.402964 0)
(-0.164691 -0.443723 0)
(-0.119869 -0.422754 0)
(-0.0553934 -0.310745 0)
(-0.00946907 -0.113498 0)
(-0.00121778 0.0365097 0)
(-0.00719011 0.0900896 0)
(-0.0172748 0.125395 0)
(-0.0274991 0.146545 0)
(-0.0364848 0.157889 0)
(-0.0437014 0.163071 0)
(-0.0490161 0.164814 0)
(-0.0525279 0.164974 0)
(-0.0544304 0.164685 0)
(-0.0549417 0.164498 0)
(-0.054287 0.164493 0)
(-0.052706 0.16434 0)
(-0.0504746 0.163347 0)
(-0.0479304 0.1605 0)
(-0.045495 0.154533 0)
(-0.0436873 0.144033 0)
(-0.0431346 0.127594 0)
(-0.0445597 0.103927 0)
(-0.0486988 0.0719788 0)
(-0.0562586 0.0310122 0)
(-0.0678171 -0.0194893 0)
(-0.0835461 -0.0800829 0)
(-0.103012 -0.151006 0)
(-0.124703 -0.23181 0)
(-0.145198 -0.319595 0)
(-0.15833 -0.405495 0)
(-0.154902 -0.469158 0)
(-0.124449 -0.473795 0)
(-0.0653171 -0.37209 0)
(-0.013389 -0.146433 0)
(-0.00183408 0.0409548 0)
(-0.0096094 0.0994821 0)
(-0.0216527 0.13605 0)
(-0.032722 0.156246 0)
(-0.0413385 0.165627 0)
(-0.0471586 0.168555 0)
(-0.0502636 0.168107 0)
(-0.0509245 0.166278 0)
(-0.0494489 0.164236 0)
(-0.0461222 0.162536 0)
(-0.0412094 0.161259 0)
(-0.0349809 0.160103 0)
(-0.0277515 0.158435 0)
(-0.0199182 0.155333 0)
(-0.0119901 0.149649 0)
(-0.00459424 0.140098 0)
(0.00148435 0.125379 0)
(0.00531874 0.104285 0)
(0.00598196 0.0757887 0)
(0.00256335 0.0390501 0)
(-0.00588885 -0.00668335 0)
(-0.0199164 -0.062235 0)
(-0.0396442 -0.128661 0)
(-0.0645411 -0.206891 0)
(-0.0924517 -0.296473 0)
(-0.118344 -0.392148 0)
(-0.132718 -0.476898 0)
(-0.121228 -0.511924 0)
(-0.0744624 -0.432625 0)
(-0.0187172 -0.186243 0)
(-0.0030461 0.0472621 0)
(-0.0137517 0.111424 0)
(-0.0285271 0.148299 0)
(-0.0404752 0.166139 0)
(-0.0482409 0.172278 0)
(-0.0519313 0.171951 0)
(-0.0520176 0.168563 0)
(-0.0490477 0.164172 0)
(-0.0435037 0.159917 0)
(-0.0357732 0.156306 0)
(-0.0261807 0.153403 0)
(-0.0150332 0.150925 0)
(-0.00267783 0.14831 0)
(0.0104491 0.144742 0)
(0.0237874 0.139215 0)
(0.0366282 0.1306 0)
(0.0481038 0.117721 0)
(0.0571978 0.0994747 0)
(0.0628338 0.0748868 0)
(0.0639248 0.0430522 0)
(0.0594014 0.00307216 0)
(0.0483629 -0.0460282 0)
(0.0300893 -0.105777 0)
(0.00428068 -0.178031 0)
(-0.0283855 -0.264402 0)
(-0.0648446 -0.363668 0)
(-0.0969322 -0.464583 0)
(-0.107918 -0.531445 0)
(-0.0810767 -0.486623 0)
(-0.0254482 -0.233184 0)
(-0.00545359 0.0569184 0)
(-0.0208082 0.127153 0)
(-0.0389177 0.162423 0)
(-0.0511306 0.175756 0)
(-0.0567661 0.176972 0)
(-0.0568296 0.172245 0)
(-0.0524299 0.165179 0)
(-0.0445184 0.157758 0)
(-0.0338152 0.15098 0)
(-0.0208396 0.145242 0)
(-0.00598543 0.140549 0)
(0.0104139 0.136621 0)
(0.0280014 0.132951 0)
(0.0463366 0.128834 0)
(0.064863 0.123412 0)
(0.0828656 0.115718 0)
(0.0994639 0.104739 0)
(0.113626 0.089486 0)
(0.124218 0.0690411 0)
(0.130055 0.0425116 0)
(0.129934 0.00897041 0)
(0.122686 -0.0327313 0)
(0.107161 -0.0841892 0)
(0.082302 -0.147666 0)
(0.0473887 -0.226104 0)
(0.00306261 -0.321917 0)
(-0.0455692 -0.431162 0)
(-0.0813602 -0.526854 0)
(-0.0821503 -0.526605 0)
(-0.032765 -0.286551 0)
(-0.0102315 0.0727288 0)
(-0.032655 0.1481 0)
(-0.0535212 0.177977 0)
(-0.0635495 0.183558 0)
(-0.0639549 0.177741 0)
(-0.0573265 0.167441 0)
(-0.0457147 0.15614 0)
(-0.0305912 0.145496 0)
(-0.0129454 0.136208 0)
(0.00658291 0.128458 0)
(0.0275657 0.122132 0)
(0.0496804 0.116918 0)
(0.0726159 0.112339 0)
(0.0959992 0.107793 0)
(0.119348 0.102561 0)
(0.142024 0.095841 0)
(0.16322 0.0867896 0)
(0.181962 0.0745587 0)
(0.197136 0.0583245 0)
(0.207521 0.0372639 0)
(0.211783 0.0104954 0)
(0.208537 -0.0231111 0)
(0.196274 -0.065042 0)
(0.17331 -0.117521 0)
(0.137822 -0.18396 0)
(0.088249 -0.269295 0)
(0.0253174 -0.376978 0)
(-0.0362524 -0.493022 0)
(-0.0729121 -0.543338 0)
(-0.038436 -0.344418 0)
(-0.0194334 0.0996919 0)
(-0.051467 0.174606 0)
(-0.0700048 0.192182 0)
(-0.0706631 0.185465 0)
(-0.0589821 0.170365 0)
(-0.0399025 0.15375 0)
(-0.0165638 0.138294 0)
(0.00912675 0.124914 0)
(0.0360631 0.113775 0)
(0.0636444 0.104716 0)
(0.0915526 0.0974323 0)
(0.119605 0.0915357 0)
(0.147645 0.0865652 0)
(0.175466 0.0819985 0)
(0.202748 0.077251 0)
(0.229017 0.0716882 0)
(0.253618 0.0646443 0)
(0.275706 0.0554418 0)
(0.294254 0.0434031 0)
(0.308072 0.0278389 0)
(0.31572 0.00801492 0)
(0.31566 -0.0170065 0)
(0.30608 -0.0484363 0)
(0.284804 -0.0881826 0)
(0.249161 -0.139375 0)
(0.196001 -0.207876 0)
(0.122387 -0.302934 0)
(0.0366559 -0.42679 0)
(-0.04588 -0.527149 0)
(-0.0377527 -0.401878 0)
(-0.0347222 0.143719 0)
(-0.0739628 0.199405 0)
(-0.0702172 0.193843 0)
(-0.0448099 0.170511 0)
(-0.00913931 0.14574 0)
(0.0302369 0.124192 0)
(0.0700531 0.106581 0)
(0.108836 0.0925271 0)
(0.146014 0.0814406 0)
(0.181488 0.0727515 0)
(0.215377 0.0659519 0)
(0.247861 0.0605824 0)
(0.279099 0.0562063 0)
(0.309154 0.052392 0)
(0.337953 0.0486983 0)
(0.365245 0.0446708 0)
(0.390578 0.039845 0)
(0.413282 0.0337528 0)
(0.432471 0.0259234 0)
(0.447062 0.0158676 0)
(0.45561 0.00302063 0)
(0.456587 -0.0131024 0)
(0.447952 -0.0333619 0)
(0.427251 -0.0591619 0)
(0.391236 -0.0928522 0)
(0.336062 -0.139588 0)
(0.255443 -0.210618 0)
(0.15141 -0.325177 0)
(0.0144419 -0.465957 0)
(-0.0173897 -0.441544 0)
(-0.0375884 0.235902 0)
(-0.0478739 0.203478 0)
(0.027245 0.152912 0)
(0.0990419 0.117106 0)
(0.166025 0.0905519 0)
(0.226196 0.0710801 0)
(0.279257 0.0570561 0)
(0.325951 0.046913 0)
(0.367304 0.0394774 0)
(0.404312 0.0339652 0)
(0.437833 0.0298402 0)
(0.468567 0.0267055 0)
(0.497042 0.0242409 0)
(0.523608 0.0221687 0)
(0.548423 0.0202329 0)
(0.571443 0.0181873 0)
(0.592409 0.0157924 0)
(0.610841 0.0128157 0)
(0.626027 0.00903576 0)
(0.637001 0.00423993 0)
(0.642662 -0.00179098 0)
(0.641695 -0.00932037 0)
(0.632044 -0.018803 0)
(0.611526 -0.0308793 0)
(0.576692 -0.0467462 0)
(0.523891 -0.0697109 0)
(0.443349 -0.107937 0)
(0.333729 -0.18844 0)
(0.143287 -0.336023 0)
(0.0605649 -0.41284 0)
(0.23128 0.158598 0)
(0.29134 0.117048 0)
(0.440676 0.0758487 0)
(0.53933 0.0505183 0)
(0.606178 0.0342025 0)
(0.655539 0.0234718 0)
(0.693568 0.0165136 0)
(0.723617 0.0120208 0)
(0.74802 0.00908657 0)
(0.768424 0.00714006 0)
(0.78595 0.00582896 0)
(0.801364 0.00492691 0)
(0.815181 0.0042792 0)
(0.827721 0.00377267 0)
(0.839137 0.00331812 0)
(0.849429 0.00284008 0)
(0.858453 0.00227211 0)
(0.865928 0.00155384 0)
(0.871445 0.000637242 0)
(0.874483 -0.000521232 0)
(0.874364 -0.00188275 0)
(0.870261 -0.00359794 0)
(0.861145 -0.00578974 0)
(0.845993 -0.00856395 0)
(0.822386 -0.0121497 0)
(0.788613 -0.0175715 0)
(0.733047 -0.027002 0)
(0.655953 -0.048989 0)
(0.454127 -0.110031 0)
(0.313175 -0.177471 0)
)
;

boundaryField
{
    movingWall
    {
        type            fixedValue;
        value           uniform (1 0 0);
    }
    fixedWalls
    {
        type            noSlip;
    }
    frontAndBack
    {
        type            empty;
    }
}


// ************************************************************************* //
