/*--------------------------------*- C++ -*----------------------------------*\
  =========                 |
  \\      /  F ield         | OpenFOAM: The Open Source CFD Toolbox
   \\    /   O peration     | Website:  https://openfoam.org
    \\  /    A nd           | Version:  7
     \\/     M anipulation  |
\*---------------------------------------------------------------------------*/
FoamFile
{
    version     2.0;
    format      ascii;
    class       volScalarField;
    location    "4.2";
    object      p;
}
// * * * * * * * * * * * * * * * * * * * * * * * * * * * * * * * * * * * * * //

dimensions      [0 2 -2 0 0 0 0];

internalField   nonuniform List<scalar> 
900
(
-3.31775e-09
-0.000115887
-0.000241751
-0.000341314
-0.000387259
-0.000365551
-0.000271665
-0.000105718
0.000130309
0.000433803
0.000801836
0.00123096
0.00171672
0.00225303
0.00283159
0.00344141
0.00406846
0.00469574
0.0053036
0.00587066
0.00637511
0.00679656
0.00711816
0.00732896
0.00742609
0.0074166
0.00731957
0.00716785
0.00700047
0.00688508
0.000114395
-3.03417e-06
-8.97947e-05
-0.000146938
-0.000159682
-0.000116842
-1.37735e-05
0.000150922
0.000377071
0.00066352
0.00100832
0.00140858
0.00186016
0.00235721
0.0028918
0.00345351
0.00402923
0.00460356
0.0051588
0.00567609
0.00613657
0.00652311
0.00682216
0.00702573
0.00713306
0.00715166
0.00709807
0.00699843
0.00688295
0.00676907
0.00024422
8.0606e-05
-8.21397e-06
-5.55301e-05
-5.78754e-05
-7.39897e-06
9.88681e-05
0.000261857
0.000481714
0.000757916
0.00108919
0.00147331
0.00190673
0.00238416
0.0028982
0.00343895
0.00399415
0.00454865
0.00508539
0.00558604
0.0060323
0.00640751
0.00669863
0.00689814
0.00700555
0.00702801
0.00698065
0.00688695
0.00676679
0.00660477
0.00035015
0.000131697
2.76372e-05
-2.19396e-05
-2.27878e-05
2.95779e-05
0.000135947
0.000296205
0.000510377
0.000778336
0.00109947
0.00147232
0.00189415
0.00236045
0.00286452
0.00339707
0.00394611
0.00449669
0.00503159
0.005532
0.00597885
0.00635459
0.00664533
0.00684288
0.00694627
0.00696223
0.00690535
0.00679837
0.00665533
0.0064409
0.000398918
0.000128368
5.89122e-06
-5.09285e-05
-5.49232e-05
-4.27733e-06
9.98233e-05
0.000256238
0.000464821
0.000725822
0.00103933
0.00140477
0.00182034
0.00228247
0.00278525
0.00331999
0.00387488
0.00443485
0.00498189
0.00549588
0.00595599
0.00634266
0.00664005
0.00683844
0.00693605
0.00693943
0.00686373
0.006733
0.00655955
0.00629398
0.000367451
5.02153e-05
-9.13921e-05
-0.000158198
-0.000168393
-0.000122131
-2.21807e-05
0.000129505
0.000332715
0.000588147
0.000896677
0.00125872
0.00167357
0.00213873
0.0026492
0.00319691
0.00377021
0.00435351
0.00492753
0.00547001
0.00595732
0.0063667
0.00667917
0.0068826
0.00697395
0.00696002
0.00685776
0.00669473
0.00648513
0.0061711
0.000240711
-0.000117725
-0.000277976
-0.000356038
-0.000374232
-0.000334143
-0.000239732
-9.35019e-05
0.000104446
0.000355387
0.00066112
0.00102321
0.00144222
0.00191693
0.00244346
0.00301445
0.00361843
0.00423918
0.00485562
0.00544264
0.00597269
0.00641844
0.00675641
0.00697082
0.00705683
0.00702176
0.00688568
0.00668197
0.00642987
0.00606734
8.08824e-06
-0.000387347
-0.000565462
-0.000655304
-0.000682582
-0.000649958
-0.000562279
-0.000422362
-0.00023002
1.67662e-05
0.000320885
0.000685258
0.00111197
0.00160136
0.00215097
0.00275449
0.00340076
0.00407305
0.00474816
0.00539744
0.00598824
0.00648708
0.00686409
0.00709819
0.00718163
0.00712225
0.00694458
0.00669024
0.00638657
0.00596976
-0.000338811
-0.000768793
-0.000964319
-0.00106636
-0.00110366
-0.00107977
-0.00100024
-0.000868043
-0.000682556
-0.000440861
-0.000138789
0.000228179
0.000663973
0.00117089
0.00174842
0.0023918
0.00309061
0.00382813
0.00457897
0.00531042
0.00598361
0.00655693
0.00699162
0.00725871
0.00734555
0.00725985
0.00703163
0.0067137
0.00634473
0.00585969
-0.000807389
-0.00127114
-0.0014842
-0.00159913
-0.00164762
-0.00163411
-0.00156479
-0.00144273
-0.0012668
-0.00103306
-0.000735886
-0.000368903
7.4038e-05
0.000597739
0.00120432
0.00189133
0.00264971
0.00346479
0.00430851
0.00514428
0.00592601
0.00660182
0.0071207
0.00744179
0.00754399
0.00743282
0.00714433
0.00674583
0.00629131
0.00571328
-0.00140476
-0.00190292
-0.00213427
-0.00226321
-0.00232455
-0.00232371
-0.00226766
-0.00215961
-0.00199794
-0.00177765
-0.00149157
-0.00113122
-0.000687857
-0.000153579
0.000477216
0.00120539
0.00202379
0.00292558
0.00387727
0.00484029
0.0057614
0.00657631
0.00721751
0.00762632
0.0077669
0.007638
0.00728066
0.00678043
0.0062117
0.00550124
-0.00213813
-0.00267257
-0.00292355
-0.00306809
-0.00314449
-0.00315942
-0.0031209
-0.00303248
-0.00289222
-0.00269419
-0.00242963
-0.00208793
-0.00165742
-0.00112656
-0.000485269
0.000273442
0.0011511
0.00213112
0.00319697
0.00430697
0.00540117
0.00640155
0.00721935
0.00776967
0.00799149
0.00786734
0.00743874
0.00681287
0.00609115
0.00518907
-0.003015
-0.00358867
-0.00386111
-0.00402322
-0.00411734
-0.00415188
-0.00413631
-0.00407499
-0.00396598
-0.00380271
-0.00357518
-0.00327075
-0.00287489
-0.00237211
-0.00174704
-0.000986001
-8.04966e-05
0.000964568
0.00213845
0.00340483
0.00470308
0.00594347
0.00701228
0.00778782
0.00816738
0.00809951
0.00761432
0.00684123
0.00591701
0.00473803
-0.00404321
-0.00466019
-0.00495631
-0.00513808
-0.00525271
-0.00531101
-0.00532465
-0.00529941
-0.00523397
-0.00512175
-0.00495211
-0.00471103
-0.00438168
-0.00394491
-0.00337992
-0.00266529
-0.00178282
-0.000723335
0.000523846
0.00193122
0.00344837
0.00498293
0.0063973
0.00752203
0.00818911
0.00828192
0.00779291
0.00686599
0.00568183
0.00410762
-0.00523113
-0.00589692
-0.00621907
-0.00642223
-0.00655958
-0.00664537
-0.00669446
-0.00671497
-0.00670713
-0.00666531
-0.00657935
-0.00643514
-0.00621489
-0.00589715
-0.00545685
-0.00486543
-0.00409017
-0.00309701
-0.00187051
-0.000388832
0.00132187
0.00318427
0.00504859
0.00669201
0.007852
0.00829745
0.00793185
0.00688613
0.00538718
0.00325999
-0.00658799
-0.00731
-0.0076604
-0.00788548
-0.00804611
-0.00816135
-0.00825063
-0.0083257
-0.00838955
-0.00843889
-0.00846567
-0.00845772
-0.00839878
-0.00826797
-0.0080387
-0.00767705
-0.00713895
-0.00636898
-0.00530879
-0.00389046
-0.00208514
8.30986e-05
0.00248321
0.0048492
0.00679778
0.00791579
0.00792881
0.00688903
0.00504879
0.0021683
-0.00812461
-0.00891307
-0.00929322
-0.00953831
-0.00971935
-0.00986221
-0.00999277
-0.010128
-0.010275
-0.0104347
-0.0106031
-0.0107729
-0.0109329
-0.0110671
-0.0111527
-0.0111556
-0.011024
-0.0106806
-0.0100156
-0.00890542
-0.00721548
-0.00486583
-0.00191368
0.00137155
0.00448066
0.00674542
0.00758158
0.00683433
0.00470497
0.000833777
-0.00985488
-0.0107242
-0.011134
-0.0113926
-0.0115852
-0.0117473
-0.0119135
-0.0121078
-0.0123433
-0.0126265
-0.0129602
-0.0133449
-0.0137788
-0.0142569
-0.0147673
-0.0152841
-0.0157557
-0.0160883
-0.0161257
-0.015642
-0.0144007
-0.0121332
-0.00874444
-0.00442893
0.000220006
0.00423432
0.00656535
0.00664054
0.0044338
-0.000678507
-0.0117985
-0.0127692
-0.013205
-0.0134632
-0.0136486
-0.0138109
-0.0139965
-0.0142384
-0.0145568
-0.0149656
-0.0154761
-0.0160998
-0.0168489
-0.0177354
-0.0187662
-0.0199338
-0.0211976
-0.0224568
-0.0235162
-0.0240597
-0.0236476
-0.0218462
-0.0183026
-0.0130227
-0.00657675
-0.000197969
0.00448279
0.00620282
0.00438864
-0.00216868
-0.0139857
-0.0150869
-0.0155388
-0.0157692
-0.0159137
-0.0160418
-0.0162156
-0.0164784
-0.0168585
-0.017378
-0.0180579
-0.0189227
-0.0200018
-0.021329
-0.022937
-0.024845
-0.0270334
-0.0294052
-0.031735
-0.0336153
-0.034427
-0.0335251
-0.0302347
-0.0242665
-0.0160157
-0.00683755
0.00106369
0.0054928
0.00486704
-0.00317655
-0.0164663
-0.0177386
-0.0181832
-0.0183371
-0.0183839
-0.0184218
-0.0185324
-0.0187705
-0.019172
-0.0197661
-0.0205838
-0.0216627
-0.0230507
-0.0248052
-0.0269875
-0.0296474
-0.0327915
-0.0363334
-0.0400269
-0.0433912
-0.0456593
-0.0459771
-0.043336
-0.0370885
-0.0273092
-0.0152442
-0.00347738
0.0047819
0.00643155
-0.00278716
-0.0193256
-0.0208223
-0.0212101
-0.0212027
-0.0210608
-0.0209233
-0.020895
-0.0210411
-0.0214026
-0.0220136
-0.0229123
-0.0241485
-0.0257865
-0.0279059
-0.0305941
-0.0339285
-0.037939
-0.0425489
-0.0474957
-0.0522563
-0.0560036
-0.0575261
-0.0557067
-0.0495177
-0.0386247
-0.0239319
-0.00805472
0.00496342
0.0100997
0.000621372
-0.0227183
-0.0244973
-0.0247259
-0.0244111
-0.0239392
-0.0235039
-0.0232334
-0.0231987
-0.0234404
-0.0239926
-0.0248971
-0.0262113
-0.0280125
-0.0303968
-0.0334708
-0.0373299
-0.0420161
-0.0474524
-0.0533574
-0.0591609
-0.0639517
-0.0664632
-0.0653101
-0.0592107
-0.047452
-0.0304747
-0.0105661
0.00781566
0.0176005
0.009629
-0.0269395
-0.0290239
-0.0288817
-0.0280114
-0.0269966
-0.0260955
-0.0254514
-0.0251299
-0.0251612
-0.0255718
-0.0264008
-0.0277082
-0.0295778
-0.0321147
-0.035434
-0.0396355
-0.0447562
-0.0507026
-0.0571643
-0.063529
-0.068823
-0.0717178
-0.0706733
-0.0642314
-0.0513837
-0.032126
-0.00820886
0.016023
0.0316483
0.0279244
-0.0325814
-0.0348239
-0.0338766
-0.0320355
-0.030167
-0.028581
-0.0274084
-0.0266867
-0.0264198
-0.0266154
-0.0273019
-0.0285344
-0.030396
-0.0329912
-0.0364307
-0.0408046
-0.0461275
-0.052273
-0.0588843
-0.0652878
-0.0704423
-0.0729617
-0.0712004
-0.0635788
-0.0488572
-0.0266651
0.00177671
0.0328533
0.0560342
0.060179
-0.0409074
-0.0425642
-0.0399144
-0.0364339
-0.0332799
-0.0307404
-0.0288731
-0.0276486
-0.02702
-0.0269607
-0.0274769
-0.028609
-0.0304305
-0.0330341
-0.0365145
-0.0409338
-0.0462688
-0.0523409
-0.0587305
-0.0646942
-0.0691162
-0.070525
-0.06716
-0.0572848
-0.0394553
-0.0130502
0.0212403
0.0612412
0.0949469
0.111631
-0.0549551
-0.0532879
-0.0470868
-0.0409392
-0.0359344
-0.032142
-0.0294336
-0.0276533
-0.0266645
-0.0263813
-0.0267716
-0.0278495
-0.0296657
-0.0322906
-0.0357898
-0.0401858
-0.0454032
-0.0511982
-0.0570777
-0.062221
-0.0654333
-0.0651317
-0.0594103
-0.0463024
-0.0240744
0.0083298
0.0507918
0.102088
0.150882
0.189362
-0.0824835
-0.0681377
-0.0552924
-0.0449664
-0.0373937
-0.0320912
-0.0285052
-0.026248
-0.0250311
-0.024673
-0.025082
-0.0262333
-0.0281472
-0.0308645
-0.0344152
-0.0387761
-0.0438149
-0.0492198
-0.0544212
-0.0585146
-0.0602293
-0.0578924
-0.0494941
-0.0326855
-0.00525898
0.0346509
0.087928
0.15469
0.224896
0.307482
-0.13485
-0.0834209
-0.0622045
-0.0460354
-0.0354274
-0.0288535
-0.0248758
-0.0226212
-0.0215883
-0.0214948
-0.022195
-0.0236316
-0.0258019
-0.0287236
-0.0323993
-0.0367709
-0.0416642
-0.0467226
-0.0513339
-0.0545478
-0.0550208
-0.0509409
-0.0403809
-0.0206291
0.0112026
0.0584317
0.124265
0.213486
0.322253
0.492466
-0.307144
-0.0929718
-0.0446705
-0.0271777
-0.0180184
-0.013699
-0.0122236
-0.012186
-0.0129319
-0.0142343
-0.0160314
-0.0183289
-0.0211672
-0.0245927
-0.0286247
-0.0332132
-0.0381881
-0.0431975
-0.0476428
-0.0506158
-0.0508758
-0.0468209
-0.0360283
-0.0159809
0.0164643
0.0660976
0.139749
0.254954
0.430751
0.774955
)
;

boundaryField
{
    movingWall
    {
        type            zeroGradient;
    }
    fixedWalls
    {
        type            zeroGradient;
    }
    frontAndBack
    {
        type            empty;
    }
}


// ************************************************************************* //
