/*--------------------------------*- C++ -*----------------------------------*\
  =========                 |
  \\      /  F ield         | OpenFOAM: The Open Source CFD Toolbox
   \\    /   O peration     | Website:  https://openfoam.org
    \\  /    A nd           | Version:  7
     \\/     M anipulation  |
\*---------------------------------------------------------------------------*/
FoamFile
{
    version     2.0;
    format      ascii;
    class       surfaceScalarField;
    location    "4.2";
    object      phi;
}
// * * * * * * * * * * * * * * * * * * * * * * * * * * * * * * * * * * * * * //

dimensions      [0 3 -1 0 0 0 0];

internalField   nonuniform List<scalar> 
1740
(
3.30801e-07
-3.30798e-07
-6.74544e-07
1.00535e-06
-3.06594e-06
2.39139e-06
-6.50602e-06
3.44009e-06
-1.06214e-05
4.11538e-06
-1.5096e-05
4.47455e-06
-1.96912e-05
4.59525e-06
-2.42351e-05
4.54386e-06
-2.86009e-05
4.36587e-06
-3.2688e-05
4.08706e-06
-3.64059e-05
3.71793e-06
-3.96647e-05
3.25881e-06
-4.23694e-05
2.7047e-06
-4.44191e-05
2.04966e-06
-4.57098e-05
1.2907e-06
-4.61411e-05
4.3128e-07
-4.56255e-05
-5.15585e-07
-4.41008e-05
-1.5247e-06
-4.15442e-05
-2.55655e-06
-3.7987e-05
-3.55729e-06
-3.35268e-05
-4.46012e-06
-2.83377e-05
-5.18915e-06
-2.26721e-05
-5.66554e-06
-1.6857e-05
-5.81518e-06
-1.12799e-05
-5.57704e-06
-6.36773e-06
-4.91218e-06
-2.54999e-06
-3.81775e-06
-1.91391e-07
-2.3586e-06
5.56639e-07
-7.4803e-07
5.56638e-07
-1.00322e-06
6.72421e-07
-4.91875e-06
4.92088e-06
-1.16126e-05
9.08523e-06
-2.04775e-05
1.2305e-05
-3.08247e-05
1.44625e-05
-4.20145e-05
1.56643e-05
-5.35118e-05
1.60926e-05
-6.48911e-05
1.59231e-05
-7.58144e-05
1.52892e-05
-8.60023e-05
1.4275e-05
-9.52069e-05
1.29226e-05
-0.000103192
1.12439e-05
-0.000109722
9.23437e-06
-0.000114558
6.88619e-06
-0.000117468
4.20072e-06
-0.000118236
1.1986e-06
-0.000116685
-2.066e-06
-0.000112703
-5.50714e-06
-0.00010627
-8.98927e-06
-9.74915e-05
-1.23358e-05
-8.66202e-05
-1.53314e-05
-7.40743e-05
-1.7735e-05
-6.04399e-05
-1.92999e-05
-4.64549e-05
-1.98002e-05
-3.29711e-05
-1.90608e-05
-2.08919e-05
-1.69915e-05
-1.10777e-05
-1.36319e-05
-4.21517e-06
-9.22108e-06
-6.7197e-07
-4.29123e-06
-1.15334e-07
-2.49163e-06
3.16405e-06
-9.42267e-06
1.18519e-05
-2.00663e-05
1.97289e-05
-3.35547e-05
2.57934e-05
-4.89791e-05
2.98869e-05
-6.54994e-05
3.21846e-05
-8.23943e-05
3.29875e-05
-9.90687e-05
3.25975e-05
-0.000115034
3.12544e-05
-0.000129877
2.91182e-05
-0.000143231
2.62762e-05
-0.000154749
2.27617e-05
-0.000164092
1.85778e-05
-0.000170927
1.37217e-05
-0.000174935
8.2079e-06
-0.000175826
2.09006e-06
-0.000173368
-4.52399e-06
-0.000167424
-1.14509e-05
-0.000157989
-1.84251e-05
-0.000145224
-2.50999e-05
-0.0001295
-3.10562e-05
-0.000111405
-3.58293e-05
-9.17569e-05
-3.89483e-05
-7.15683e-05
-3.99889e-05
-5.19946e-05
-3.86345e-05
-3.42427e-05
-3.47433e-05
-1.94497e-05
-2.8425e-05
-8.53694e-06
-2.01338e-05
-2.03728e-06
-1.07909e-05
-2.15262e-06
-3.78536e-06
6.9494e-06
-1.34385e-05
2.1505e-05
-2.76226e-05
3.3913e-05
-4.5123e-05
4.32938e-05
-6.48184e-05
4.95824e-05
-8.57145e-05
5.30807e-05
-0.000106963
5.42365e-05
-0.000127859
5.34933e-05
-0.000147813
5.12086e-05
-0.000166323
4.76273e-05
-0.000182935
4.28885e-05
-0.000197226
3.70524e-05
-0.000208781
3.01335e-05
-0.000217197
2.21379e-05
-0.000222087
1.30978e-05
-0.000223104
3.10625e-06
-0.000219967
-7.6604e-06
-0.000212513
-1.89048e-05
-0.000200734
-3.02041e-05
-0.000184829
-4.10055e-05
-0.000165241
-5.06435e-05
-0.000142689
-5.83815e-05
-0.000118161
-6.34764e-05
-9.28842e-05
-6.52658e-05
-6.8252e-05
-6.32667e-05
-4.57156e-05
-5.72797e-05
-2.6647e-05
-4.74936e-05
-1.21938e-05
-3.45871e-05
-3.15784e-06
-1.98268e-05
-5.31046e-06
-4.84138e-06
1.17908e-05
-1.68458e-05
3.35095e-05
-3.41244e-05
5.11916e-05
-5.51098e-05
6.42791e-05
-7.84634e-05
7.2936e-05
-0.000103052
7.76695e-05
-0.000127932
7.91162e-05
-0.000152322
7.78834e-05
-0.000175571
7.44577e-05
-0.000197118
6.91746e-05
-0.000216458
6.22281e-05
-0.00023311
5.37046e-05
-0.000246606
4.36291e-05
-0.000256481
3.20132e-05
-0.000262288
1.89048e-05
-0.000263617
4.43507e-06
-0.000260131
-1.11468e-05
-0.000251614
-2.74215e-05
-0.000238029
-4.37887e-05
-0.000219575
-5.94594e-05
-0.000196739
-7.34794e-05
-0.000170333
-8.47879e-05
-0.000141495
-9.23143e-05
-0.000111655
-9.51061e-05
-8.24449e-05
-9.24766e-05
-5.55723e-05
-8.41523e-05
-3.26625e-05
-7.04034e-05
-1.51091e-05
-5.21405e-05
-3.97071e-06
-3.09652e-05
-9.28117e-06
-5.69506e-06
1.74858e-05
-1.97026e-05
4.7517e-05
-3.96704e-05
7.11594e-05
-6.37038e-05
8.83125e-05
-9.02532e-05
9.94854e-05
-0.000118055
0.000105471
-0.000146085
0.000107146
-0.000173511
0.000105309
-0.000199644
0.000100591
-0.000223892
9.34231e-05
-0.000245718
8.40539e-05
-0.000264606
7.25919e-05
-0.00028004
5.90637e-05
-0.000291504
4.34768e-05
-0.000298481
2.58823e-05
-0.000300485
6.43872e-06
-0.000297092
-1.45397e-05
-0.000288001
-3.65125e-05
-0.000273101
-5.86889e-05
-0.000252545
-8.00149e-05
-0.000226825
-9.91995e-05
-0.000196821
-0.000114792
-0.000163819
-0.000125316
-0.000129474
-0.000129452
-9.57037e-05
-0.000126246
-6.45348e-05
-0.000115321
-3.79049e-05
-9.70332e-05
-1.74833e-05
-7.25622e-05
-4.55018e-06
-4.38983e-05
-1.38313e-05
-6.40291e-06
2.38887e-05
-2.2138e-05
6.32521e-05
-4.44728e-05
9.34942e-05
-7.12213e-05
0.000115061
-0.000100637
0.000128901
-0.000131335
0.000136169
-0.000162222
0.000138033
-0.000192431
0.000135518
-0.000221257
0.000129417
-0.000248096
0.000120262
-0.000272397
0.000108355
-0.000293622
9.38166e-05
-0.00031122
7.66616e-05
-0.000324617
5.68735e-05
-0.000333219
3.44846e-05
-0.000336437
9.65688e-06
-0.000333726
-1.72512e-05
-0.000324646
-4.5592e-05
-0.000308955
-7.43796e-05
-0.000286701
-0.000102269
-0.000258325
-0.000127576
-0.000224744
-0.000148373
-0.000187395
-0.000162665
-0.000148201
-0.000168646
-0.000109452
-0.000164996
-7.35985e-05
-0.000151175
-4.29924e-05
-0.000127639
-1.96352e-05
-9.59194e-05
-5.00444e-06
-5.85291e-05
-1.88358e-05
-7.01906e-06
3.09078e-05
-2.42945e-05
8.05276e-05
-4.87738e-05
0.000117973
-7.80128e-05
0.0001443
-0.000110084
0.000160973
-0.000143493
0.000169578
-0.00017709
0.00017163
-0.000209987
0.000168416
-0.000241479
0.000160909
-0.000270969
0.000149752
-0.00029791
0.000135296
-0.000321756
0.000117663
-0.000341928
9.68334e-05
-0.000357795
7.27405e-05
-0.000368673
4.53626e-05
-0.000373843
1.48268e-05
-0.000372593
-1.85013e-05
-0.000364283
-5.39015e-05
-0.000348461
-9.02015e-05
-0.000324984
-0.000125746
-0.000294162
-0.000158398
-0.000256896
-0.000185639
-0.000214762
-0.000204799
-0.000170005
-0.000213404
-0.0001254
-0.0002096
-8.39835e-05
-0.000192591
-4.86823e-05
-0.000162941
-2.19393e-05
-0.000122662
-5.44336e-06
-7.5025e-05
-2.42792e-05
-7.58761e-06
3.84954e-05
-2.62998e-05
9.92398e-05
-5.27987e-05
0.000144472
-8.44052e-05
0.000175906
-0.000119026
0.000195594
-0.000155067
0.000205619
-0.000191333
0.000207897
-0.000226933
0.000204015
-0.000261178
0.000195153
-0.000293499
0.000182073
-0.000323372
0.000165169
-0.000350261
0.000144552
-0.000373572
0.000120144
-0.000392622
9.17906e-05
-0.000406628
5.93692e-05
-0.000414718
2.29162e-05
-0.000415966
-1.72534e-05
-0.000409454
-6.0413e-05
-0.000394421
-0.000105234
-0.000370412
-0.000149755
-0.000337485
-0.000191325
-0.000296421
-0.000226703
-0.00024889
-0.000252331
-0.000197499
-0.000264795
-0.000145655
-0.000261444
-9.72061e-05
-0.00024104
-5.5905e-05
-0.000204242
-2.48358e-05
-0.000153732
-5.98221e-06
-9.38786e-05
-3.02614e-05
-8.14228e-06
4.66377e-05
-2.82581e-05
0.000119356
-5.67369e-05
0.000172951
-9.0674e-05
0.000209844
-0.000127819
0.000232738
-0.000166488
0.000244287
-0.000205455
0.000246864
-0.00024384
0.0002424
-0.000280992
0.000232306
-0.000316393
0.000217474
-0.000349569
0.000198345
-0.000380018
0.000175001
-0.000407154
0.00014728
-0.000430258
0.000114895
-0.000448455
7.75653e-05
-0.000460696
3.5158e-05
-0.000465813
-1.21366e-05
-0.00046251
-6.37161e-05
-0.000449598
-0.000118146
-0.000426148
-0.000173205
-0.000391776
-0.000225697
-0.000346967
-0.000271512
-0.000293368
-0.000305929
-0.000233954
-0.000324209
-0.000172922
-0.000322477
-0.00011524
-0.000298722
-6.58731e-05
-0.000253609
-2.88893e-05
-0.000190715
-6.76171e-06
-0.000116006
-3.70231e-05
-8.70802e-06
5.53457e-05
-3.02507e-05
0.000140898
-6.07375e-05
0.000203438
-9.70348e-05
0.000246141
-0.000136736
0.00027244
-0.000178075
0.000285626
-0.000219808
0.000288598
-0.000261085
0.000283677
-0.000301317
0.000272538
-0.000340067
0.000256224
-0.000376941
0.00023522
-0.000411511
0.000209571
-0.000443235
0.000179004
-0.000471395
0.000143055
-0.000495041
0.000101212
-0.00051295
5.30669e-05
-0.000523707
-1.38e-06
-0.000525507
-6.19156e-05
-0.000516623
-0.00012703
-0.000495427
-0.000194402
-0.000460825
-0.000260299
-0.000412723
-0.000319614
-0.000352519
-0.000366132
-0.000283471
-0.000393258
-0.000210707
-0.000395241
-0.000140711
-0.000368718
-8.02275e-05
-0.000314092
-3.48703e-05
-0.000236073
-7.97448e-06
-0.000142902
-4.49976e-05
-9.30353e-06
6.46492e-05
-3.23403e-05
0.000163935
-6.49157e-05
0.000236013
-0.000103649
0.000284875
-0.000145972
0.000314762
-0.000190037
0.000329692
-0.000234598
0.000333158
-0.000278853
0.000327932
-0.000322306
0.000315991
-0.000364632
0.000298549
-0.000405563
0.000276151
-0.000444792
0.0002488
-0.000481879
0.000216091
-0.000516163
0.000177339
-0.000546675
0.000131724
-0.000572072
7.84637e-05
-0.000590525
1.70729e-05
-0.000599922
-5.2519e-05
-0.000597668
-0.000129284
-0.000581212
-0.000210858
-0.000548404
-0.000293107
-0.00049816
-0.000369858
-0.000431241
-0.00043305
-0.000350949
-0.00047355
-0.000263402
-0.000482788
-0.000177042
-0.000455077
-0.000101175
-0.00038996
-4.38386e-05
-0.000293409
-9.89201e-06
-0.000176849
-5.48896e-05
-9.94443e-06
7.45937e-05
-3.45798e-05
0.00018857
-6.93655e-05
0.000270799
-0.000110642
0.000326151
-0.00015566
0.000359779
-0.000202494
0.000376526
-0.000249902
0.000380566
-0.000297156
0.000375186
-0.00034388
0.000362715
-0.000389902
0.000344571
-0.000435131
0.00032138
-0.000479442
0.000293111
-0.000522568
0.000259217
-0.000563987
0.000218757
-0.000602791
0.000170528
-0.00063756
0.000113233
-0.000666223
4.5735e-05
-0.000686129
-3.26128e-05
-0.000693768
-0.000121645
-0.000685404
-0.000219222
-0.000657418
-0.000321092
-0.000607206
-0.00042007
-0.000534314
-0.000505942
-0.000441614
-0.00056625
-0.000336057
-0.000588344
-0.000228424
-0.000562711
-0.00013155
-0.000486833
-5.72059e-05
-0.000367753
-1.28865e-05
-0.000221168
-6.77761e-05
-1.06474e-05
8.52411e-05
-3.70239e-05
0.000214947
-7.41794e-05
0.000307955
-0.000118125
0.000370097
-0.000165904
0.000407558
-0.000215505
0.000426127
-0.000265701
0.000430762
-0.000315858
0.000425343
-0.000365751
0.000412608
-0.000415403
0.000394224
-0.000464951
0.000370927
-0.000514521
0.000342681
-0.000564104
0.000308801
-0.000613417
0.00026807
-0.000661727
0.000218838
-0.000707649
0.000159155
-0.0007489
8.69861e-05
-0.00078248
9.66923e-07
-0.000803659
-0.000100466
-0.000807457
-0.000215424
-0.000788358
-0.000340191
-0.000741646
-0.000466783
-0.00066491
-0.000582678
-0.000559814
-0.000671346
-0.000433596
-0.000714562
-0.000299447
-0.00069686
-0.000174738
-0.000611542
-7.67549e-05
-0.000465736
-1.74461e-05
-0.000280477
-8.52221e-05
-1.14356e-05
9.66767e-05
-3.9744e-05
0.000243255
-7.94721e-05
0.000347683
-0.000126229
0.000416855
-0.00017681
0.000458139
-0.000229107
0.000478423
-0.000281914
0.000483569
-0.000334711
0.00047814
-0.000387451
0.000465348
-0.000440389
0.000447161
-0.000493934
0.000424473
-0.000548527
0.000397274
-0.000604503
0.000364777
-0.000661924
0.000325492
-0.000720362
0.000277276
-0.000778621
0.000217414
-0.000834452
0.000142817
-0.00088395
5.0465e-05
-0.00092231
-6.21058e-05
-0.000942551
-0.000195183
-0.000937133
-0.000345608
-0.000898751
-0.000505165
-0.000822229
-0.000659199
-0.000706942
-0.000786634
-0.000559286
-0.000862217
-0.000394245
-0.000861902
-0.00023436
-0.000771426
-0.000104604
-0.000595492
-2.41887e-05
-0.000360892
-0.000109411
-1.23451e-05
0.000109022
-4.28477e-05
0.000273758
-8.54119e-05
0.000390247
-0.000135143
0.000466585
-0.000188533
0.00051153
-0.000243359
0.000533249
-0.000298445
0.000538655
-0.000353399
0.000533094
-0.000408372
0.000520321
-0.00046387
0.000502659
-0.000520607
0.00048121
-0.000579379
0.000456046
-0.000640924
0.000426321
-0.000705734
0.000390302
-0.000773799
0.000345341
-0.000844259
0.000287874
-0.000914972
0.00021353
-0.000982022
0.000117515
-0.00103967
-4.46214e-06
-0.00107978
-0.000155069
-0.0010928
-0.000332592
-0.0010686
-0.000529358
-0.000998611
-0.000729192
-0.00087863
-0.000906615
-0.000712414
-0.00102843
-0.000514993
-0.00105932
-0.000313645
-0.000972774
-0.0001431
-0.000766038
-3.38874e-05
-0.000470104
-0.000143298
-1.34352e-05
0.000122457
-4.65043e-05
0.000306827
-9.2259e-05
0.000436002
-0.000145156
0.000519483
-0.000201319
0.000567692
-0.00025839
0.00059032
-0.000315229
0.000595494
-0.000371583
0.000589448
-0.00042781
0.000576548
-0.000484669
0.000559518
-0.000543176
0.000539717
-0.000604482
0.000517352
-0.000669738
0.000491578
-0.000739906
0.000460469
-0.000815468
0.000420903
-0.000896032
0.000368438
-0.000979823
0.000297321
-0.00106314
0.000200835
-0.00113982
7.22111e-05
-0.00120118
-9.37031e-05
-0.00123616
-0.000297616
-0.00123218
-0.000533336
-0.00117704
-0.000784332
-0.00106186
-0.0010218
-0.00088543
-0.00120486
-0.000659709
-0.00128504
-0.000414292
-0.00121819
-0.000194565
-0.000985764
-4.75081e-05
-0.000617162
-0.000190806
-1.48024e-05
0.000137259
-5.09808e-05
0.000343005
-0.000100415
0.000485436
-0.000156717
0.000575784
-0.000215558
0.000626533
-0.000274436
0.000649198
-0.000332263
0.000653321
-0.000388936
0.000646122
-0.000445015
0.000632627
-0.000501486
0.000615989
-0.000559623
0.000597854
-0.000620878
0.000578607
-0.000686762
0.000557462
-0.000758661
0.000532368
-0.000837557
0.000499799
-0.000923612
0.000454493
-0.00101564
0.000389348
-0.0011105
0.000295694
-0.00120254
0.000164254
-0.00128298
-1.3261e-05
-0.00134074
-0.00023986
-0.00136167
-0.000512402
-0.00133054
-0.000815465
-0.00123324
-0.00111909
-0.00106136
-0.00137674
-0.000819532
-0.00152687
-0.000534662
-0.00150306
-0.000260743
-0.00125968
-6.62355e-05
-0.000811669
-0.000257042
-1.66039e-05
0.000153863
-5.66944e-05
0.000383096
-0.000110489
0.000539231
-0.000170486
0.000635781
-0.000231822
0.000687869
-0.000291868
0.000709244
-0.000349621
0.000711073
-0.000405152
0.000701654
-0.000459208
0.000686682
-0.000512955
0.000669736
-0.000567841
0.00065274
-0.000625507
0.000636274
-0.000687696
0.000619651
-0.0007561
0.000600772
-0.000832116
0.000575815
-0.000916476
0.000538853
-0.00100876
0.000481635
-0.00110684
0.000393774
-0.00120628
0.000263687
-0.00129986
8.03278e-05
-0.00137701
-0.000162711
-0.00142439
-0.000465029
-0.00142503
-0.000814819
-0.00136022
-0.00118391
-0.00121301
-0.00152395
-0.000976429
-0.00176346
-0.000667372
-0.00181212
-0.000341688
-0.00158537
-9.14237e-05
-0.00106193
-0.000348466
-1.90984e-05
0.000172962
-6.42947e-05
0.000428292
-0.000123384
0.00059832
-0.000187401
0.000699798
-0.000250893
0.000751361
-0.000311168
0.000769519
-0.000367396
0.000767301
-0.000419871
0.000754129
-0.00046952
0.000736331
-0.000517627
0.000717843
-0.000565709
0.000700821
-0.000615449
0.000686014
-0.000668647
0.000672848
-0.000727119
0.000659245
-0.000792532
0.000641228
-0.000866136
0.000612457
-0.000948401
0.0005639
-0.00103857
0.000483947
-0.00113419
0.000359299
-0.00123062
0.000176761
-0.00131951
-7.38222e-05
-0.00139028
-0.000394257
-0.00142644
-0.00077866
-0.00140659
-0.00120375
-0.0013059
-0.00162464
-0.00110311
-0.00196626
-0.000797189
-0.00211803
-0.000434088
-0.00194847
-0.000124389
-0.00137163
-0.000472855
-2.27237e-05
0.000195686
-7.47983e-05
0.000480366
-0.00014042
0.000663942
-0.000208733
0.000768111
-0.000273719
0.000816347
-0.000332807
0.000828607
-0.000385507
0.000820002
-0.000432435
0.000801057
-0.000474721
0.000778616
-0.000513725
0.000756847
-0.000550933
0.000738029
-0.000587929
0.00072301
-0.000626392
0.000711311
-0.000668077
0.00070093
-0.00071475
0.000687901
-0.000768073
0.00066578
-0.000829425
0.000625251
-0.000899644
0.000554166
-0.000978689
0.000438345
-0.00106526
0.000263331
-0.0011548
1.57228e-05
-0.00124093
-0.000308127
-0.00131018
-0.000709419
-0.00134169
-0.00117224
-0.00130565
-0.00166068
-0.00116698
-0.00210492
-0.000901131
-0.00238388
-0.000529557
-0.00232004
-0.000165968
-0.00173522
-0.000638823
-2.82491e-05
0.000223935
-8.98142e-05
0.000541931
-0.00016349
0.000737618
-0.000236091
0.000840712
-0.000301259
0.000881515
-0.000356917
0.000884264
-0.000403222
0.000866308
-0.000441293
0.000839128
-0.000472544
0.000809867
-0.000498418
0.000782722
-0.000520322
0.000759933
-0.00053965
0.000742337
-0.000557842
0.000729504
-0.00057645
0.000719537
-0.000597195
0.000708646
-0.000622024
0.000690609
-0.000653129
0.000656356
-0.000692914
0.000593951
-0.00074381
0.000489241
-0.000807765
0.000327286
-0.000886308
9.42662e-05
-0.00097569
-0.000218745
-0.00106911
-0.000615999
-0.00114968
-0.00109167
-0.00118738
-0.00162298
-0.00113773
-0.00215458
-0.000951873
-0.00256974
-0.000613938
-0.00265798
-0.000215716
-0.00213344
-0.000854539
-3.70826e-05
0.000261017
-0.000111917
0.000616766
-0.000195231
0.000820932
-0.000271267
0.000916749
-0.000333977
0.000944225
-0.000382479
0.000932766
-0.000418076
0.000901904
-0.000442686
0.000863738
-0.000458174
0.000825355
-0.00046615
0.000790698
-0.000467977
0.00076176
-0.00046486
0.00073922
-0.000457972
0.000722615
-0.000448601
0.000710166
-0.000438333
0.000698379
-0.000429268
0.000681544
-0.000424231
0.000651319
-0.000426931
0.000596651
-0.000441956
0.000504266
-0.000474477
0.000359806
-0.000529657
0.000149446
-0.000610097
-0.000138304
-0.000714582
-0.000511514
-0.000833471
-0.000972778
-0.000942288
-0.00151417
-0.000994825
-0.00210204
-0.000923408
-0.00264115
-0.000668358
-0.00291303
-0.000270689
-0.00253111
-0.00112523
-5.18819e-05
0.000312899
-0.000145202
0.000710086
-0.00023901
0.00091474
-0.000315521
0.000993259
-0.000370473
0.000999177
-0.000405382
0.000967676
-0.000423446
0.000919968
-0.000427821
0.000868113
-0.000421084
0.000818619
-0.000405183
0.000774797
-0.000381559
0.000738136
-0.000351312
0.000708974
-0.000315399
0.000686703
-0.000274856
0.000669622
-0.000231076
0.000654599
-0.000186166
0.000636634
-0.000143316
0.00060847
-0.000107128
0.000560463
-8.37258e-05
0.000480863
-8.05105e-05
0.000356591
-0.00010555
0.000174486
-0.000166383
-7.74715e-05
-0.000267874
-0.000410023
-0.000409121
-0.000831531
-0.000576064
-0.00134722
-0.000729852
-0.00194825
-0.000795237
-0.00257577
-0.000671216
-0.00303705
-0.000323781
-0.00287855
-0.00144901
-7.77049e-05
0.000390604
-0.000195841
0.000828221
-0.000297976
0.00101688
-0.000367075
0.00106236
-0.000403661
0.00103576
-0.000413561
0.000977575
-0.000402916
0.000909323
-0.00037669
0.000841887
-0.000338492
0.000780421
-0.000290807
0.000727111
-0.000235287
0.000682615
-0.000173012
0.000646699
-0.000104786
0.000618476
-3.13951e-05
0.000596232
4.60126e-05
0.000577191
0.000125523
0.000557123
0.000203977
0.000530016
0.000276535
0.000487905
0.000336395
0.000421003
0.000374784
0.000318203
0.000381381
0.000167889
0.000345116
-4.12067e-05
0.000256447
-0.000321353
0.000108202
-0.000683286
-9.82464e-05
-0.00114077
-0.000340471
-0.00170603
-0.00055091
-0.00236533
-0.000598682
-0.00298928
-0.000361739
-0.00311549
-0.00181075
-0.000123965
0.000514569
-0.000271371
0.000975627
-0.000370152
0.00111566
-0.000412718
0.00110492
-0.00040987
0.00103292
-0.000374538
0.000942243
-0.000317059
0.000851845
-0.000244706
0.000769533
-0.000162261
0.000697976
-7.27215e-05
0.000637572
2.2139e-05
0.000587755
0.000121319
0.00054752
0.000224302
0.000515493
0.000330646
0.000489888
0.000439616
0.000468222
0.000549713
0.000447025
0.000658168
0.000421561
0.00076043
0.000385643
0.000849767
0.000331667
0.000917088
0.000250882
0.000951065
0.000133911
0.000938551
-2.86925e-05
0.000866348
-0.00024915
0.000720567
-0.000537506
0.000490577
-0.000910784
0.000179703
-0.00139515
-0.000167116
-0.00201851
-0.000420896
-0.0027355
-0.000366615
-0.00316977
-0.00217736
-0.000207077
0.000721647
-0.000371527
0.00114008
-0.000427897
0.00117203
-0.000400183
0.00107721
-0.000318084
0.000950817
-0.000204482
0.000828641
-7.41587e-05
0.000721521
6.39229e-05
0.000631452
0.000204675
0.000557225
0.000345441
0.000496806
0.00048506
0.000448135
0.000623261
0.000409319
0.000760205
0.000378549
0.00089614
0.000353953
0.001031
0.000333358
0.00116398
0.00031405
0.001293
0.000292541
0.00141423
0.000264412
0.00152161
0.000224284
0.00160653
0.000165966
0.00165748
8.29576e-05
0.00166053
-3.17471e-05
0.00159997
-0.000188584
0.00145752
-0.000395055
0.00121357
-0.000666837
0.000851772
-0.00103336
0.0003819
-0.00154864
-8.88213e-05
-0.00226478
-0.000299647
-0.00295894
-0.00247701
-0.000339727
0.00106137
-0.000427674
0.00122802
-0.000337492
0.00108184
-0.000154343
0.000894062
6.65296e-05
0.000729944
0.000296852
0.000598319
0.000522528
0.000495845
0.000737417
0.000416563
0.000939526
0.000355116
0.00112896
0.00030737
0.00130685
0.000270247
0.00147476
0.000241411
0.00163433
0.000218982
0.00178698
0.000201297
0.00193364
0.000186697
0.00207437
0.000173327
0.00220793
0.00015898
0.00233136
0.000140983
0.00243949
0.000116148
0.00252466
8.07988e-05
0.00257617
3.14497e-05
0.00258088
-3.6463e-05
0.00252095
-0.000128647
0.0023763
-0.000250405
0.00212202
-0.000412559
0.00172821
-0.000639547
0.00116637
-0.000986799
0.000485372
-0.00158378
-4.15897e-05
-0.00243198
-0.0025186
-0.000299853
0.00136123
-4.33499e-05
0.000971521
0.000389861
0.000648633
0.000812981
0.000470943
0.00119498
0.000347944
0.00153174
0.000261557
0.00182588
0.00020171
0.00208263
0.000159809
0.00230793
0.000129823
0.00250731
0.000107981
0.00268566
9.19025e-05
0.00284708
7.99853e-05
0.00299499
7.10748e-05
0.00313203
6.42631e-05
0.00325998
5.87423e-05
0.00337961
5.36934e-05
0.00349039
4.82054e-05
0.00359014
4.12337e-05
0.0036747
3.1586e-05
0.0037374
1.80963e-05
0.00376867
1.80878e-07
0.00375944
-2.72359e-05
0.00369152
-6.07253e-05
0.00354624
-0.000105119
0.00329798
-0.0001643
0.00290956
-0.000251133
0.00232292
-0.000400159
0.00148585
-0.000746702
0.000504097
-0.00145023
-0.0020145
0.00136123
0.00233275
0.00298138
0.00345232
0.00380027
0.00406182
0.00426353
0.00442334
0.00455316
0.00466115
0.00475305
0.00483303
0.00490411
0.00496837
0.00502711
0.00508081
0.00512901
0.00517025
0.00520183
0.00521993
0.00522011
0.00519287
0.00513215
0.00502703
0.00486273
0.0046116
0.00421144
0.00346473
0.0020145
)
;

boundaryField
{
    movingWall
    {
        type            calculated;
        value           uniform 0;
    }
    fixedWalls
    {
        type            calculated;
        value           uniform 0;
    }
    frontAndBack
    {
        type            empty;
        value           nonuniform 0();
    }
}


// ************************************************************************* //
