/*--------------------------------*- C++ -*----------------------------------*\
  =========                 |
  \\      /  F ield         | OpenFOAM: The Open Source CFD Toolbox
   \\    /   O peration     | Website:  https://openfoam.org
    \\  /    A nd           | Version:  7
     \\/     M anipulation  |
\*---------------------------------------------------------------------------*/
FoamFile
{
    version     2.0;
    format      ascii;
    class       volVectorField;
    location    "4.2";
    object      U;
}
// * * * * * * * * * * * * * * * * * * * * * * * * * * * * * * * * * * * * * //

dimensions      [0 1 -1 0 0 0 0];

internalField   nonuniform List<vector> 
900
(
(6.12572e-05 -6.05148e-05 0)
(3.08581e-05 1.1194e-05 0)
(-0.000267906 9.53334e-05 0)
(-0.000767786 0.000156148 0)
(-0.00140884 0.000192632 0)
(-0.00213427 0.000210307 0)
(-0.00289761 0.00021531 0)
(-0.00366492 0.000212278 0)
(-0.00441186 0.000204005 0)
(-0.00512002 0.000191821 0)
(-0.0057739 0.000176057 0)
(-0.00635874 0.000156424 0)
(-0.00685922 0.000132338 0)
(-0.00725901 0.000103169 0)
(-0.00754087 6.84624e-05 0)
(-0.0076875 2.81314e-05 0)
(-0.00768289 -1.73539e-05 0)
(-0.00751412 -6.6906e-05 0)
(-0.00717363 -0.000118548 0)
(-0.00666167 -0.000169462 0)
(-0.00598864 -0.000216051 0)
(-0.00517698 -0.000254132 0)
(-0.00426227 -0.000279258 0)
(-0.00329314 -0.000287099 0)
(-0.00232972 -0.000273791 0)
(-0.00144089 -0.000236255 0)
(-0.000699076 -0.000172935 0)
(-0.000169026 -8.63756e-05 0)
(9.37109e-05 9.22324e-06 0)
(7.5742e-05 7.4843e-05 0)
(-9.39757e-06 -3.23245e-05 0)
(-0.000361085 0.00035912 0)
(-0.00127763 0.000766234 0)
(-0.00260375 0.001079 0)
(-0.00423027 0.00128451 0)
(-0.00604806 0.00139645 0)
(-0.00795777 0.00143566 0)
(-0.00987934 0.00142091 0)
(-0.0117501 0.00136562 0)
(-0.0135198 0.00127774 0)
(-0.0151454 0.00116077 0)
(-0.0165871 0.00101521 0)
(-0.0178059 0.000839932 0)
(-0.0187621 0.000633519 0)
(-0.0194163 0.000395434 0)
(-0.0197302 0.000127068 0)
(-0.0196704 -0.000167402 0)
(-0.0192117 -0.000479881 0)
(-0.018342 -0.000798192 0)
(-0.0170674 -0.00110586 0)
(-0.015417 -0.00138258 0)
(-0.0134462 -0.00160541 0)
(-0.011239 -0.00175061 0)
(-0.0089067 -0.0017961 0)
(-0.00658345 -0.00172407 0)
(-0.00441866 -0.001524 0)
(-0.0025637 -0.00119715 0)
(-0.00114929 -0.000765039 0)
(-0.000266678 -0.000286847 0)
(1.6485e-05 9.39154e-05 0)
(-9.82052e-05 0.000269349 0)
(-0.000800706 0.00128348 0)
(-0.00231807 0.00224535 0)
(-0.00437325 0.00299279 0)
(-0.00681746 0.00349776 0)
(-0.00951112 0.0037816 0)
(-0.0123227 0.00388339 0)
(-0.0151422 0.00384206 0)
(-0.0178803 0.00368796 0)
(-0.0204633 0.00344088 0)
(-0.0228273 0.00311114 0)
(-0.0249136 0.00270218 0)
(-0.0266653 0.00221365 0)
(-0.0280265 0.00164445 0)
(-0.028942 0.000995592 0)
(-0.0293604 0.000272775 0)
(-0.0292371 -0.000511326 0)
(-0.0285397 -0.0013349 0)
(-0.0272549 -0.00216623 0)
(-0.0253944 -0.00296344 0)
(-0.0230014 -0.00367575 0)
(-0.0201554 -0.00424658 0)
(-0.0169739 -0.00461834 0)
(-0.013611 -0.00473866 0)
(-0.01025 -0.00456771 0)
(-0.00709233 -0.00408639 0)
(-0.00433874 -0.00330661 0)
(-0.00215859 -0.00228535 0)
(-0.000675864 -0.00114544 0)
(-6.09727e-05 -0.00014011 0)
(-0.000171565 0.000801609 0)
(-0.00118861 0.00268238 0)
(-0.00325216 0.00433951 0)
(-0.00595113 0.00560845 0)
(-0.00909322 0.00646485 0)
(-0.0125135 0.00694532 0)
(-0.0160579 0.00711063 0)
(-0.0195966 0.00702202 0)
(-0.023023 0.00672878 0)
(-0.0262477 0.00626434 0)
(-0.0291921 0.00564739 0)
(-0.0317841 0.00488559 0)
(-0.0339544 0.00398039 0)
(-0.0356344 0.00293201 0)
(-0.0367579 0.00174425 0)
(-0.0372624 0.000428995 0)
(-0.0370945 -0.000989799 0)
(-0.0362153 -0.00247308 0)
(-0.0346086 -0.0039645 0)
(-0.0322887 -0.00539031 0)
(-0.0293078 -0.00666186 0)
(-0.0257622 -0.00768093 0)
(-0.0217946 -0.00834838 0)
(-0.0175914 -0.00857537 0)
(-0.0133746 -0.00829649 0)
(-0.00938652 -0.0074838 0)
(-0.0058684 -0.00616218 0)
(-0.00302395 -0.00442619 0)
(-0.00101621 -0.00245952 0)
(-0.000120319 -0.000586224 0)
(-0.000227556 0.00152757 0)
(-0.00151068 0.00450058 0)
(-0.004052 0.00697786 0)
(-0.00731342 0.00883426 0)
(-0.0110579 0.0100729 0)
(-0.0150957 0.0107579 0)
(-0.0192542 0.0109775 0)
(-0.0233897 0.0108182 0)
(-0.0273845 0.0103497 0)
(-0.0311392 0.0096203 0)
(-0.0345664 0.00865756 0)
(-0.0375849 0.00747382 0)
(-0.0401159 0.00607256 0)
(-0.0420817 0.00445552 0)
(-0.0434056 0.0026296 0)
(-0.0440151 0.000613456 0)
(-0.0438461 -0.00155658 0)
(-0.0428508 -0.00382171 0)
(-0.0410057 -0.0060973 0)
(-0.038322 -0.00827271 0)
(-0.0348552 -0.0102148 0)
(-0.0307127 -0.011776 0)
(-0.0260575 -0.0128079 0)
(-0.0211058 -0.0131784 0)
(-0.0161169 -0.0127918 0)
(-0.0113755 -0.0116099 0)
(-0.00716588 -0.00967064 0)
(-0.00373035 -0.0071059 0)
(-0.00127237 -0.0041538 0)
(-0.000156343 -0.0011881 0)
(-0.000269919 0.00241129 0)
(-0.00177487 0.00668011 0)
(-0.00472874 0.0100961 0)
(-0.00848148 0.0126011 0)
(-0.0127531 0.0142472 0)
(-0.0173293 0.0151394 0)
(-0.022021 0.0154017 0)
(-0.0266739 0.0151499 0)
(-0.0311635 0.0144765 0)
(-0.0353851 0.0134451 0)
(-0.039246 0.0120926 0)
(-0.0426595 0.0104356 0)
(-0.0455404 0.00847881 0)
(-0.0478026 0.00622436 0)
(-0.0493593 0.00368115 0)
(-0.0501258 0.000873712 0)
(-0.0500243 -0.00214955 0)
(-0.0489921 -0.00530921 0)
(-0.0469919 -0.00848975 0)
(-0.0440243 -0.0115387 0)
(-0.0401406 -0.0142711 0)
(-0.0354536 -0.0164807 0)
(-0.0301441 -0.017959 0)
(-0.0244596 -0.0185205 0)
(-0.0187028 -0.0180315 0)
(-0.0132105 -0.0164394 0)
(-0.00832092 -0.013796 0)
(-0.00432407 -0.0102733 0)
(-0.00146437 -0.00616655 0)
(-0.000174402 -0.00190288 0)
(-0.000303227 0.00342346 0)
(-0.00199615 0.00916755 0)
(-0.00530993 0.0136322 0)
(-0.00949813 0.0168444 0)
(-0.0142412 0.0189221 0)
(-0.0193016 0.0200248 0)
(-0.0244749 0.0203206 0)
(-0.029599 0.0199601 0)
(-0.0345457 0.0190611 0)
(-0.0392081 0.0177038 0)
(-0.0434919 0.0159339 0)
(-0.0473077 0.013771 0)
(-0.0505655 0.0112194 0)
(-0.0531717 0.00827918 0)
(-0.0550285 0.00495836 0)
(-0.0560361 0.00128452 0)
(-0.0560978 -0.00268405 0)
(-0.0551287 -0.00684832 0)
(-0.0530683 -0.0110604 0)
(-0.0498966 -0.0151213 0)
(-0.0456504 -0.0187855 0)
(-0.0404405 -0.0217756 0)
(-0.0344624 -0.0238076 0)
(-0.0279987 -0.0246267 0)
(-0.0214066 -0.0240486 0)
(-0.0150917 -0.0219995 0)
(-0.00946509 -0.0185464 0)
(-0.0048793 -0.0139111 0)
(-0.0016234 -0.00846121 0)
(-0.000181283 -0.00270025 0)
(-0.000331275 0.00454433 0)
(-0.00218984 0.0119239 0)
(-0.00582702 0.0175402 0)
(-0.0104123 0.0215169 0)
(-0.0155901 0.0240524 0)
(-0.0211012 0.0253724 0)
(-0.0267279 0.0256981 0)
(-0.0323023 0.0252207 0)
(-0.037695 0.0240865 0)
(-0.0428002 0.0223932 0)
(-0.047525 0.0201952 0)
(-0.0517799 0.0175133 0)
(-0.0554723 0.014348 0)
(-0.0585018 0.0106938 0)
(-0.0607585 0.00655301 0)
(-0.0621243 0.00195121 0)
(-0.0624777 -0.00304815 0)
(-0.0617028 -0.00832998 0)
(-0.0597039 -0.0137142 0)
(-0.0564259 -0.0189513 0)
(-0.0518774 -0.0237253 0)
(-0.0461545 -0.0276709 0)
(-0.0394618 -0.0304067 0)
(-0.0321195 -0.0315845 0)
(-0.0245538 -0.0309482 0)
(-0.0172634 -0.0283911 0)
(-0.0107609 -0.0239982 0)
(-0.00548582 -0.018058 0)
(-0.00178329 -0.0110411 0)
(-0.000182445 -0.00356781 0)
(-0.000356789 0.00576259 0)
(-0.00236891 0.0149253 0)
(-0.00630899 0.0217914 0)
(-0.0112698 0.0265904 0)
(-0.0168627 0.0296126 0)
(-0.0228086 0.0311614 0)
(-0.0288782 0.0315201 0)
(-0.0349001 0.0309267 0)
(-0.0407464 0.0295596 0)
(-0.0463159 0.0275356 0)
(-0.0515202 0.0249166 0)
(-0.0562732 0.0217228 0)
(-0.0604821 0.0179472 0)
(-0.0640414 0.0135729 0)
(-0.066829 0.0085901 0)
(-0.0687061 0.0030145 0)
(-0.0695208 -0.00309324 0)
(-0.0691158 -0.00960943 0)
(-0.067345 -0.016325 0)
(-0.0641002 -0.0229378 0)
(-0.05934 -0.0290508 0)
(-0.0531265 -0.0341902 0)
(-0.045659 -0.0378469 0)
(-0.0372945 -0.0395428 0)
(-0.0285434 -0.0389157 0)
(-0.0200295 -0.0358049 0)
(-0.0124102 -0.0303138 0)
(-0.00625208 -0.0228249 0)
(-0.00198129 -0.013958 0)
(-0.000182291 -0.00451171 0)
(-0.00038164 0.0070734 0)
(-0.00254359 0.0181609 0)
(-0.00677991 0.0263729 0)
(-0.0121095 0.0320522 0)
(-0.018112 0.0355927 0)
(-0.0244897 0.0373861 0)
(-0.0310039 0.0377874 0)
(-0.037482 0.0370881 0)
(-0.0438009 0.0355026 0)
(-0.0498673 0.0331685 0)
(-0.0556018 0.0301553 0)
(-0.0609257 0.0264795 0)
(-0.0657505 0.0221225 0)
(-0.0699689 0.0170493 0)
(-0.0734487 0.0112289 0)
(-0.0760294 0.00465634 0)
(-0.077525 -0.00262264 0)
(-0.0777256 -0.0104883 0)
(-0.0764174 -0.0187113 0)
(-0.0734148 -0.0269394 0)
(-0.0685965 -0.0346862 0)
(-0.0619581 -0.0413455 0)
(-0.0536673 -0.0462397 0)
(-0.0441062 -0.0487076 0)
(-0.0338819 -0.0482257 0)
(-0.0237843 -0.0445398 0)
(-0.014677 -0.0377656 0)
(-0.00731868 -0.0284147 0)
(-0.00226379 -0.0173244 0)
(-0.000185434 -0.00555874 0)
(-0.000407091 0.00847678 0)
(-0.00272158 0.0216305 0)
(-0.00725872 0.0312843 0)
(-0.012962 0.0379027 0)
(-0.0193791 0.0419943 0)
(-0.0261944 0.0440511 0)
(-0.0331615 0.0445096 0)
(-0.0401091 0.0437222 0)
(-0.0469228 0.0419446 0)
(-0.0535216 0.0393373 0)
(-0.0598401 0.0359772 0)
(-0.0658132 0.0318753 0)
(-0.0713628 0.0269965 0)
(-0.0763862 0.0212803 0)
(-0.080746 0.0146632 0)
(-0.0842626 0.00710441 0)
(-0.0867146 -0.00138356 0)
(-0.0878308 -0.0106954 0)
(-0.0873096 -0.0206092 0)
(-0.0848589 -0.0307318 0)
(-0.0802362 -0.0404841 0)
(-0.0733226 -0.0491034 0)
(-0.0642085 -0.0556929 0)
(-0.0532714 -0.0593326 0)
(-0.0412173 -0.059251 0)
(-0.0290474 -0.055029 0)
(-0.0179171 -0.0467696 0)
(-0.00887757 -0.035154 0)
(-0.00269437 -0.0213337 0)
(-0.000198195 -0.00676248 0)
(-0.000434008 0.00997629 0)
(-0.00290879 0.025342 0)
(-0.00776014 0.0365353 0)
(-0.0138507 0.0441514 0)
(-0.0206943 0.0488264 0)
(-0.0279571 0.0511657 0)
(-0.0353861 0.0516985 0)
(-0.0428147 0.0508469 0)
(-0.0501408 0.0489136 0)
(-0.0573011 0.0460854 0)
(-0.0642506 0.0424478 0)
(-0.0709455 0.0380048 0)
(-0.077327 0.0327005 0)
(-0.0833067 0.0264413 0)
(-0.0887524 0.0191192 0)
(-0.0934732 0.0106399 0)
(-0.0972064 0.000960017 0)
(-0.0996222 -0.00986452 0)
(-0.10032 -0.0216453 0)
(-0.0988581 -0.0339721 0)
(-0.0948221 -0.0461831 0)
(-0.0879143 -0.0573411 0)
(-0.0780769 -0.0662718 0)
(-0.0656254 -0.0716951 0)
(-0.0513444 -0.0724613 0)
(-0.0364859 -0.0678627 0)
(-0.0226045 -0.0579254 0)
(-0.0111915 -0.0435358 0)
(-0.00336209 -0.0262911 0)
(-0.000230013 -0.00821428 0)
(-0.000463084 0.0115782 0)
(-0.00311019 0.0293098 0)
(-0.00829657 0.042143 0)
(-0.0147946 0.0508141 0)
(-0.02208 0.0561015 0)
(-0.0297997 0.0587392 0)
(-0.0376952 0.0593624 0)
(-0.045607 0.0584731 0)
(-0.05345 0.0564279 0)
(-0.0611841 0.0534447 0)
(-0.0687926 0.0496202 0)
(-0.0762617 0.0449518 0)
(-0.0835635 0.0393601 0)
(-0.090637 0.0327112 0)
(-0.0973683 0.0248399 0)
(-0.103568 0.0155787 0)
(-0.108949 0.00479794 0)
(-0.113119 -0.00754265 0)
(-0.11556 -0.0213282 0)
(-0.11565 -0.036174 0)
(-0.112752 -0.0513674 0)
(-0.106305 -0.0657925 0)
(-0.0960086 -0.0779397 0)
(-0.0820216 -0.0860445 0)
(-0.0651456 -0.088395 0)
(-0.0468952 -0.0837939 0)
(-0.0293384 -0.0720521 0)
(-0.0146075 -0.0542681 0)
(-0.00438854 -0.032653 0)
(-0.000294586 -0.0100585 0)
(-0.000495095 0.0132915 0)
(-0.00333109 0.0335545 0)
(-0.00888059 0.048131 0)
(-0.0158117 0.0579105 0)
(-0.0235555 0.063832 0)
(-0.0317373 0.0667762 0)
(-0.0400934 0.0674996 0)
(-0.0484745 0.0665962 0)
(-0.0568164 0.0644856 0)
(-0.0651086 0.061423 0)
(-0.0733697 0.0575207 0)
(-0.0816266 0.0527717 0)
(-0.0898945 0.0470733 0)
(-0.0981555 0.0402462 0)
(-0.106332 0.0320556 0)
(-0.114256 0.0222366 0)
(-0.121631 0.0105331 0)
(-0.128019 -0.00323767 0)
(-0.132775 -0.0190704 0)
(-0.135075 -0.0367106 0)
(-0.134009 -0.0554446 0)
(-0.128676 -0.0739972 0)
(-0.118416 -0.0904801 0)
(-0.103099 -0.10251 0)
(-0.0834216 -0.107577 0)
(-0.0611057 -0.103695 0)
(-0.0388134 -0.0901971 0)
(-0.0195593 -0.0683167 0)
(-0.00593285 -0.041071 0)
(-0.00041089 -0.012511 0)
(-0.000531218 0.015128 0)
(-0.00357872 0.0381031 0)
(-0.00952839 0.0545291 0)
(-0.0169238 0.065463 0)
(-0.0251422 0.0720272 0)
(-0.0337837 0.0752714 0)
(-0.0425792 0.0760919 0)
(-0.0513919 0.0751885 0)
(-0.0601826 0.0730541 0)
(-0.0689755 0.0699897 0)
(-0.0778314 0.0661291 0)
(-0.0868266 0.0614668 0)
(-0.0960317 0.0558791 0)
(-0.105488 0.0491402 0)
(-0.115175 0.040936 0)
(-0.12497 0.0308829 0)
(-0.134596 0.0185631 0)
(-0.143554 0.00359455 0)
(-0.15112 -0.014236 0)
(-0.156293 -0.0348643 0)
(-0.157831 -0.0576669 0)
(-0.154436 -0.0812714 0)
(-0.144986 -0.103406 0)
(-0.128902 -0.120957 0)
(-0.10658 -0.130358 0)
(-0.0797805 -0.12843 0)
(-0.0517302 -0.113579 0)
(-0.0265498 -0.0869212 0)
(-0.00819572 -0.0524331 0)
(-0.000605087 -0.0158798 0)
(-0.00057347 0.0171043 0)
(-0.00386424 0.0429926 0)
(-0.010264 0.0613753 0)
(-0.0181625 0.0734968 0)
(-0.026871 0.0806917 0)
(-0.035959 0.0842061 0)
(-0.0451521 0.0850983 0)
(-0.0543276 0.0841898 0)
(-0.0634748 0.0820584 0)
(-0.0726555 0.0790594 0)
(-0.0819772 0.0753572 0)
(-0.091571 0.070955 0)
(-0.101571 0.0657146 0)
(-0.11209 0.0593663 0)
(-0.12318 0.0515117 0)
(-0.134785 0.0416312 0)
(-0.146673 0.0291114 0)
(-0.158355 0.0133111 0)
(-0.169033 -0.00631622 0)
(-0.17754 -0.0299628 0)
(-0.182364 -0.0572208 0)
(-0.181803 -0.0867279 0)
(-0.174205 -0.115888 0)
(-0.158391 -0.14081 0)
(-0.134193 -0.156658 0)
(-0.103085 -0.158592 0)
(-0.0686209 -0.143419 0)
(-0.0361072 -0.111549 0)
(-0.0114248 -0.0678926 0)
(-0.00091521 -0.0205898 0)
(-0.000625342 0.0192449 0)
(-0.00420564 0.048274 0)
(-0.0111248 0.0687199 0)
(-0.0195767 0.0820411 0)
(-0.0287897 0.0898233 0)
(-0.0382975 0.0935439 0)
(-0.0478201 0.094449 0)
(-0.0572511 0.093499 0)
(-0.0666099 0.0913684 0)
(-0.0759969 0.0884758 0)
(-0.0855657 0.0850247 0)
(-0.0955021 0.0810362 0)
(-0.106005 0.0763671 0)
(-0.117259 0.07071 0)
(-0.129402 0.0635831 0)
(-0.142459 0.0543194 0)
(-0.156273 0.0420791 0)
(-0.17041 0.0259105 0)
(-0.184058 0.0048949 0)
(-0.195972 -0.0215677 0)
(-0.204474 -0.053392 0)
(-0.207533 -0.0893717 0)
(-0.202997 -0.126729 0)
(-0.188985 -0.160888 0)
(-0.164494 -0.185655 0)
(-0.130238 -0.194113 0)
(-0.0895587 -0.180602 0)
(-0.0486859 -0.143738 0)
(-0.0159193 -0.0888655 0)
(-0.0014009 -0.0272121 0)
(-0.000692835 0.0215863 0)
(-0.00463189 0.0540214 0)
(-0.0121693 0.0766314 0)
(-0.0212409 0.0911314 0)
(-0.030972 0.0994119 0)
(-0.0408551 0.103226 0)
(-0.0506062 0.104038 0)
(-0.0601387 0.102965 0)
(-0.0695026 0.100788 0)
(-0.0788346 0.0979961 0)
(-0.0883282 0.0948384 0)
(-0.0982154 0.091363 0)
(-0.108749 0.0874314 0)
(-0.120182 0.0827095 0)
(-0.132725 0.0766391 0)
(-0.146498 0.0684075 0)
(-0.161439 0.0569399 0)
(-0.177216 0.0409519 0)
(-0.193107 0.0191079 0)
(-0.207908 -0.00967684 0)
(-0.219937 -0.0457781 0)
(-0.227042 -0.0882778 0)
(-0.226707 -0.134463 0)
(-0.216381 -0.179333 0)
(-0.194015 -0.215506 0)
(-0.159038 -0.233793 0)
(-0.11374 -0.225161 0)
(-0.0644684 -0.184769 0)
(-0.0220216 -0.116965 0)
(-0.00215957 -0.0365021 0)
(-0.000786298 0.0241854 0)
(-0.00518944 0.0603433 0)
(-0.013487 0.0852055 0)
(-0.0232667 0.100812 0)
(-0.0335256 0.109436 0)
(-0.0437144 0.113166 0)
(-0.0535512 0.113717 0)
(-0.0629747 0.11238 0)
(-0.0720669 0.110047 0)
(-0.0809954 0.107281 0)
(-0.0899827 0.10438 0)
(-0.0992903 0.101425 0)
(-0.109205 0.0982893 0)
(-0.120023 0.094625 0)
(-0.132017 0.0898127 0)
(-0.145385 0.082911 0)
(-0.160179 0.0726277 0)
(-0.176212 0.0573603 0)
(-0.192957 0.0353583 0)
(-0.20944 0.00504214 0)
(-0.224159 -0.034505 0)
(-0.235098 -0.0828223 0)
(-0.239694 -0.137564 0)
(-0.234907 -0.193747 0)
(-0.217626 -0.243276 0)
(-0.185574 -0.274913 0)
(-0.139025 -0.275634 0)
(-0.0830331 -0.235092 0)
(-0.0300693 -0.153803 0)
(-0.00334879 -0.0494361 0)
(-0.000924031 0.0271324 0)
(-0.0059532 0.0674014 0)
(-0.0152147 0.0945748 0)
(-0.0258158 0.111136 0)
(-0.0366004 0.119857 0)
(-0.0469851 0.123236 0)
(-0.0567059 0.12328 0)
(-0.0657393 0.121464 0)
(-0.0742028 0.118792 0)
(-0.0822895 0.115894 0)
(-0.0902366 0.113112 0)
(-0.0983134 0.110558 0)
(-0.106814 0.108127 0)
(-0.116046 0.105467 0)
(-0.126314 0.101918 0)
(-0.137877 0.0964465 0)
(-0.150902 0.0875898 0)
(-0.165388 0.0734887 0)
(-0.181089 0.0520427 0)
(-0.197409 0.0212332 0)
(-0.213257 -0.0203734 0)
(-0.227067 -0.0729676 0)
(-0.236576 -0.13485 0)
(-0.23862 -0.201609 0)
(-0.229281 -0.265225 0)
(-0.204489 -0.313177 0)
(-0.161707 -0.328523 0)
(-0.102943 -0.293541 0)
(-0.0402757 -0.200574 0)
(-0.00521134 -0.0672272 0)
(-0.00113981 0.0305727 0)
(-0.00704628 0.0754361 0)
(-0.0175592 0.10492 0)
(-0.0291162 0.122158 0)
(-0.0403897 0.130599 0)
(-0.0507904 0.133251 0)
(-0.0601053 0.132449 0)
(-0.0683716 0.129859 0)
(-0.0757532 0.126583 0)
(-0.0824659 0.123302 0)
(-0.0887499 0.120392 0)
(-0.0948617 0.117988 0)
(-0.101075 0.116004 0)
(-0.107679 0.114094 0)
(-0.114977 0.11159 0)
(-0.123266 0.107409 0)
(-0.132816 0.0999977 0)
(-0.143829 0.087342 0)
(-0.156388 0.0671165 0)
(-0.17038 0.0369942 0)
(-0.18532 -0.00490382 0)
(-0.200338 -0.0595338 0)
(-0.213791 -0.125992 0)
(-0.22289 -0.201007 0)
(-0.22345 -0.277601 0)
(-0.209975 -0.343279 0)
(-0.17685 -0.378242 0)
(-0.12148 -0.356574 0)
(-0.0525192 -0.25736 0)
(-0.00809125 -0.0912837 0)
(-0.00149921 0.0347472 0)
(-0.00867651 0.0848045 0)
(-0.0208341 0.116474 0)
(-0.0334781 0.133914 0)
(-0.0451179 0.141514 0)
(-0.0552255 0.142921 0)
(-0.0636993 0.140833 0)
(-0.0706789 0.137093 0)
(-0.076395 0.132875 0)
(-0.0810931 0.128886 0)
(-0.0850119 0.125509 0)
(-0.0883837 0.12289 0)
(-0.0914436 0.120954 0)
(-0.0944411 0.119375 0)
(-0.0976518 0.117498 0)
(-0.101388 0.114253 0)
(-0.106002 0.108081 0)
(-0.111886 0.0969444 0)
(-0.119448 0.0784412 0)
(-0.129068 0.0500862 0)
(-0.141033 0.00968804 0)
(-0.155209 -0.0442619 0)
(-0.170774 -0.111879 0)
(-0.185861 -0.191389 0)
(-0.196719 -0.277747 0)
(-0.197266 -0.360097 0)
(-0.179292 -0.417889 0)
(-0.134821 -0.418044 0)
(-0.0660473 -0.322279 0)
(-0.0124035 -0.123068 0)
(-0.00213559 0.0400693 0)
(-0.0112051 0.0960311 0)
(-0.0255106 0.129512 0)
(-0.0392966 0.146361 0)
(-0.0509856 0.152308 0)
(-0.060247 0.151783 0)
(-0.0671947 0.147864 0)
(-0.0721354 0.142531 0)
(-0.0754032 0.136987 0)
(-0.0772927 0.131922 0)
(-0.0780506 0.127698 0)
(-0.0778874 0.124447 0)
(-0.0769975 0.122098 0)
(-0.0755826 0.120345 0)
(-0.0738796 0.118575 0)
(-0.0721951 0.115782 0)
(-0.0709404 0.110496 0)
(-0.0706596 0.100774 0)
(-0.0720406 0.0842952 0)
(-0.0759001 0.0585788 0)
(-0.0831205 0.0212957 0)
(-0.0943887 -0.0293668 0)
(-0.109888 -0.0945114 0)
(-0.128845 -0.17391 0)
(-0.14867 -0.265004 0)
(-0.163852 -0.360096 0)
(-0.164858 -0.440725 0)
(-0.138693 -0.469886 0)
(-0.0791733 -0.390803 0)
(-0.0184845 -0.163791 0)
(-0.00332706 0.0472732 0)
(-0.0152713 0.109865 0)
(-0.0322748 0.14428 0)
(-0.0469939 0.159246 0)
(-0.0579935 0.162384 0)
(-0.0653935 0.159051 0)
(-0.0696869 0.152664 0)
(-0.0714411 0.145269 0)
(-0.0711483 0.13802 0)
(-0.0691863 0.131539 0)
(-0.0658329 0.126126 0)
(-0.0612939 0.121876 0)
(-0.0557347 0.118702 0)
(-0.0493144 0.116318 0)
(-0.0422285 0.114169 0)
(-0.0347623 0.111357 0)
(-0.0273492 0.106571 0)
(-0.0206249 0.098069 0)
(-0.0154652 0.0837419 0)
(-0.0129958 0.0612708 0)
(-0.0145468 0.0283652 0)
(-0.021479 -0.0169892 0)
(-0.0348645 -0.0764675 0)
(-0.0551214 -0.15113 0)
(-0.0812795 -0.24091 0)
(-0.109563 -0.342247 0)
(-0.130993 -0.441701 0)
(-0.129072 -0.503501 0)
(-0.0890847 -0.455602 0)
(-0.0262331 -0.213847 0)
(-0.00565276 0.0577179 0)
(-0.0219947 0.127312 0)
(-0.0420101 0.160784 0)
(-0.0567284 0.171802 0)
(-0.0654069 0.170545 0)
(-0.0690524 0.163341 0)
(-0.0687755 0.153816 0)
(-0.065529 0.143934 0)
(-0.0600307 0.134702 0)
(-0.0527814 0.126599 0)
(-0.0441162 0.119819 0)
(-0.0342537 0.11438 0)
(-0.0233424 0.110162 0)
(-0.0115061 0.106886 0)
(0.00110558 0.10406 0)
(0.0142491 0.100915 0)
(0.0275132 0.0963432 0)
(0.0402449 0.0888704 0)
(0.051488 0.0766895 0)
(0.059957 0.0577639 0)
(0.0640617 0.0299917 0)
(0.061991 -0.00864113 0)
(0.0520175 -0.0600447 0)
(0.0326541 -0.126067 0)
(0.00315502 -0.208526 0)
(-0.0352297 -0.307999 0)
(-0.0761957 -0.418304 0)
(-0.102196 -0.511021 0)
(-0.0917747 -0.506921 0)
(-0.0345306 -0.272062 0)
(-0.0102759 0.0740376 0)
(-0.0332141 0.149506 0)
(-0.0553489 0.178239 0)
(-0.0672572 0.182115 0)
(-0.0701079 0.174408 0)
(-0.0664754 0.162194 0)
(-0.0583949 0.148982 0)
(-0.0473286 0.136421 0)
(-0.034262 0.125211 0)
(-0.0198226 0.115595 0)
(-0.00439168 0.107596 0)
(0.0118167 0.101117 0)
(0.0286881 0.0959757 0)
(0.0461497 0.0918839 0)
(0.064116 0.0884061 0)
(0.0824144 0.0849036 0)
(0.100705 0.0804837 0)
(0.118395 0.0739689 0)
(0.134563 0.0639067 0)
(0.14791 0.0486303 0)
(0.156751 0.0263577 0)
(0.159026 -0.00473667 0)
(0.152588 -0.0464954 0)
(0.135147 -0.101029 0)
(0.10456 -0.171102 0)
(0.0594301 -0.26042 0)
(0.00166806 -0.370625 0)
(-0.0533967 -0.48614 0)
(-0.0819463 -0.533442 0)
(-0.0406606 -0.335415 0)
(-0.0192801 0.101064 0)
(-0.0511949 0.176518 0)
(-0.0701291 0.193565 0)
(-0.071759 0.185758 0)
(-0.0615872 0.169354 0)
(-0.044539 0.151375 0)
(-0.0237374 0.134533 0)
(-0.00107966 0.119752 0)
(0.0223244 0.107204 0)
(0.0458743 0.0967715 0)
(0.0692806 0.0882399 0)
(0.092442 0.0813663 0)
(0.115363 0.0758835 0)
(0.138089 0.0714837 0)
(0.160646 0.0677796 0)
(0.182975 0.0642582 0)
(0.20485 0.0602394 0)
(0.225801 0.0548454 0)
(0.245023 0.0469968 0)
(0.261323 0.0354383 0)
(0.273047 0.0187997 0)
(0.278069 -0.00438463 0)
(0.27401 -0.0355957 0)
(0.258035 -0.0767813 0)
(0.227001 -0.130759 0)
(0.177584 -0.202666 0)
(0.107201 -0.30045 0)
(0.0250807 -0.425184 0)
(-0.0522826 -0.523962 0)
(-0.039508 -0.397767 0)
(-0.0344414 0.144681 0)
(-0.0730151 0.201026 0)
(-0.0688443 0.195485 0)
(-0.0434851 0.171598 0)
(-0.00829119 0.146045 0)
(0.030138 0.123631 0)
(0.0685337 0.105118 0)
(0.105429 0.0901513 0)
(0.14024 0.078153 0)
(0.172864 0.0685819 0)
(0.203435 0.0609828 0)
(0.232195 0.0549799 0)
(0.259421 0.0502473 0)
(0.285378 0.0464786 0)
(0.31027 0.0433484 0)
(0.334188 0.0404758 0)
(0.357048 0.0373924 0)
(0.37852 0.0335187 0)
(0.397946 0.0281561 0)
(0.414295 0.0204918 0)
(0.426038 0.00961562 0)
(0.431216 -0.005485 0)
(0.427355 -0.0257235 0)
(0.411332 -0.0525274 0)
(0.37938 -0.0881119 0)
(0.327283 -0.137242 0)
(0.24869 -0.210445 0)
(0.146018 -0.32592 0)
(0.0113257 -0.466042 0)
(-0.0182152 -0.440871 0)
(-0.0374228 0.23623 0)
(-0.0469631 0.20438 0)
(0.0290026 0.153975 0)
(0.101319 0.117991 0)
(0.168601 0.091087 0)
(0.228691 0.0711894 0)
(0.281247 0.0567177 0)
(0.327006 0.0461267 0)
(0.366993 0.0382562 0)
(0.402205 0.0323367 0)
(0.433522 0.0278559 0)
(0.461694 0.0244528 0)
(0.487348 0.0218548 0)
(0.510987 0.0198377 0)
(0.532983 0.0181928 0)
(0.553555 0.0167016 0)
(0.572728 0.0151151 0)
(0.590292 0.0131411 0)
(0.605728 0.0104393 0)
(0.618188 0.00663776 0)
(0.62628 0.00131865 0)
(0.628521 -0.00582733 0)
(0.622631 -0.0154383 0)
(0.605748 -0.0281885 0)
(0.573905 -0.0451449 0)
(0.523084 -0.0693792 0)
(0.443392 -0.108684 0)
(0.333636 -0.189592 0)
(0.142948 -0.336808 0)
(0.0603882 -0.413329 0)
(0.231287 0.158554 0)
(0.291617 0.11723 0)
(0.441516 0.0760815 0)
(0.540724 0.0507547 0)
(0.608003 0.0343811 0)
(0.657568 0.0235543 0)
(0.695535 0.0164859 0)
(0.725251 0.0118819 0)
(0.74906 0.00884304 0)
(0.768624 0.00680388 0)
(0.785094 0.00541826 0)
(0.799279 0.00446822 0)
(0.811761 0.00380979 0)
(0.822955 0.0033413 0)
(0.833142 0.00298304 0)
(0.842466 0.00266334 0)
(0.850933 0.00230902 0)
(0.858388 0.00184103 0)
(0.864492 0.00116863 0)
(0.868716 0.000211153 0)
(0.87031 -0.00113884 0)
(0.868286 -0.00278999 0)
(0.861166 -0.0050419 0)
(0.84768 -0.00805627 0)
(0.825175 -0.0119901 0)
(0.791764 -0.017777 0)
(0.735781 -0.0274835 0)
(0.657708 -0.0495563 0)
(0.454871 -0.11046 0)
(0.313341 -0.177711 0)
)
;

boundaryField
{
    movingWall
    {
        type            fixedValue;
        value           uniform (1 0 0);
    }
    fixedWalls
    {
        type            noSlip;
    }
    frontAndBack
    {
        type            empty;
    }
}


// ************************************************************************* //
