/*--------------------------------*- C++ -*----------------------------------*\
  =========                 |
  \\      /  F ield         | OpenFOAM: The Open Source CFD Toolbox
   \\    /   O peration     | Website:  https://openfoam.org
    \\  /    A nd           | Version:  7
     \\/     M anipulation  |
\*---------------------------------------------------------------------------*/
FoamFile
{
    version     2.0;
    format      ascii;
    class       surfaceScalarField;
    location    "5.4";
    object      phi;
}
// * * * * * * * * * * * * * * * * * * * * * * * * * * * * * * * * * * * * * //

dimensions      [0 3 -1 0 0 0 0];

internalField   nonuniform List<scalar> 
1740
(
3.85706e-07
-3.85731e-07
-6.46549e-07
1.03226e-06
-3.16837e-06
2.52182e-06
-6.83858e-06
3.67021e-06
-1.12707e-05
4.43213e-06
-1.61344e-05
4.86371e-06
-2.11771e-05
5.04272e-06
-2.62117e-05
5.03455e-06
-3.10939e-05
4.88222e-06
-3.57016e-05
4.60769e-06
-3.99182e-05
4.21664e-06
-4.36222e-05
3.704e-06
-4.6682e-05
3.05982e-06
-4.89571e-05
2.27505e-06
-5.03044e-05
1.34726e-06
-5.05902e-05
2.85805e-07
-4.97058e-05
-8.84344e-07
-4.75882e-05
-2.11758e-06
-4.42398e-05
-3.3484e-06
-3.97463e-05
-4.49351e-06
-3.42885e-05
-5.45784e-06
-2.8144e-05
-6.14446e-06
-2.16771e-05
-6.46693e-06
-1.53149e-05
-6.36216e-06
-9.51364e-06
-5.80129e-06
-4.71591e-06
-4.79772e-06
-1.298e-06
-3.41791e-06
5.11332e-07
-1.80933e-06
7.57445e-07
-2.46111e-07
7.57445e-07
-1.03161e-06
6.45884e-07
-5.17391e-06
5.17456e-06
-1.2335e-05
9.6829e-06
-2.18959e-05
1.32312e-05
-3.31466e-05
1.56828e-05
-4.54197e-05
1.71367e-05
-5.81462e-05
1.77692e-05
-7.08596e-05
1.7748e-05
-8.31726e-05
1.71952e-05
-9.47461e-05
1.61811e-05
-0.000105261
1.47319e-05
-0.0001144
1.28431e-05
-0.000121837
1.04968e-05
-0.000127241
7.67892e-06
-0.000130291
4.39677e-06
-0.0001307
6.94964e-07
-0.000128254
-3.33028e-06
-0.000122846
-7.52557e-06
-0.000114523
-1.16717e-05
-0.000103516
-1.55002e-05
-9.02646e-05
-1.87092e-05
-7.54141e-05
-2.09949e-05
-5.97908e-05
-2.20903e-05
-4.43471e-05
-2.18058e-05
-3.00817e-05
-2.00667e-05
-1.79375e-05
-1.6942e-05
-8.6808e-06
-1.26746e-05
-2.76417e-06
-7.72595e-06
-1.72179e-07
-2.8381e-06
5.85266e-07
-2.65009e-06
3.29597e-06
-1.01031e-05
1.26276e-05
-2.16221e-05
2.12018e-05
-3.63151e-05
2.79242e-05
-5.32414e-05
3.26091e-05
-7.15215e-05
3.54169e-05
-9.03849e-05
3.66326e-05
-0.000109174
3.65376e-05
-0.000127326
3.53464e-05
-0.000144334
3.31895e-05
-0.000159725
3.01224e-05
-0.000173029
2.6148e-05
-0.000183779
2.1246e-05
-0.000191505
1.54051e-05
-0.000195764
8.65592e-06
-0.000196174
1.10534e-06
-0.000192445
-7.05946e-06
-0.000184455
-1.55154e-05
-0.000172289
-2.38381e-05
-0.000156286
-3.15032e-05
-0.000137068
-3.79268e-05
-0.000115539
-4.25239e-05
-9.28462e-05
-4.47835e-05
-7.03033e-05
-4.43487e-05
-4.92801e-05
-4.109e-05
-3.10587e-05
-3.51634e-05
-1.66763e-05
-2.70569e-05
-6.76639e-06
-1.76359e-05
-1.40037e-06
-8.20412e-06
-8.15109e-07
-4.10132e-06
7.39729e-06
-1.46207e-05
2.3147e-05
-3.01471e-05
3.67282e-05
-4.94081e-05
4.71852e-05
-7.12328e-05
5.44339e-05
-9.45746e-05
5.87587e-05
-0.000118523
6.05811e-05
-0.000142294
6.03084e-05
-0.000165202
5.82542e-05
-0.000186626
5.4614e-05
-0.00020598
4.94761e-05
-0.000222684
4.28525e-05
-0.000236161
3.47226e-05
-0.000245837
2.50816e-05
-0.000251172
1.39903e-05
-0.000251694
1.62739e-06
-0.000247053
-1.17007e-05
-0.00023709
-2.54779e-05
-0.0002219
-3.90286e-05
-0.000201883
-5.15194e-05
-0.00017779
-6.20207e-05
-0.000150714
-6.95995e-05
-0.000122058
-7.34393e-05
-9.34361e-05
-7.29706e-05
-6.65337e-05
-6.79925e-05
-4.29324e-05
-5.87646e-05
-2.39247e-05
-4.60646e-05
-1.03466e-05
-3.1214e-05
-2.46262e-06
-1.60881e-05
-3.27773e-06
-5.32783e-06
1.27251e-05
-1.85737e-05
3.63928e-05
-3.76978e-05
5.58523e-05
-6.10324e-05
7.05198e-05
-8.7166e-05
8.05675e-05
-0.000114899
8.64919e-05
-0.000143214
8.88956e-05
-0.000171239
8.83334e-05
-0.000198212
8.52271e-05
-0.000223437
7.98397e-05
-0.000246252
7.2291e-05
-0.000265999
6.25988e-05
-0.000282013
5.07369e-05
-0.000293632
3.67009e-05
-0.00030022
2.05777e-05
-0.000301208
2.61582e-06
-0.000296158
-1.67506e-05
-0.000284837
-3.67992e-05
-0.000267295
-5.65706e-05
-0.000243941
-7.4873e-05
-0.000215598
-9.03645e-05
-0.000183513
-0.000101684
-0.000149324
-0.000107628
-0.00011495
-0.000107345
-8.24207e-05
-0.000100522
-5.36606e-05
-8.75247e-05
-3.0264e-05
-6.94612e-05
-1.33079e-05
-4.81701e-05
-3.2519e-06
-2.61441e-05
-6.52963e-06
-6.35451e-06
1.90796e-05
-2.19862e-05
5.20245e-05
-4.43118e-05
7.81779e-05
-7.12904e-05
9.74984e-05
-0.000101274
0.000110551
-0.00013292
0.000118138
-0.000165123
0.000121098
-0.000196953
0.000120163
-0.000227603
0.000115877
-0.000256338
0.000108575
-0.000282448
9.84016e-05
-0.000305222
8.53726e-05
-0.000323927
6.94415e-05
-0.000337813
5.05869e-05
-0.000346137
2.89016e-05
-0.000348207
4.68599e-06
-0.000343448
-2.15097e-05
-0.000331488
-4.87589e-05
-0.000312262
-7.57961e-05
-0.000286112
-0.000101023
-0.00025387
-0.000122606
-0.000216905
-0.00013865
-0.000177096
-0.000147437
-0.000136719
-0.000147722
-9.82397e-05
-0.000139001
-6.40373e-05
-0.000121727
-3.61088e-05
-9.73898e-05
-1.5828e-05
-6.84509e-05
-3.8196e-06
-3.81525e-05
-1.03492e-05
-7.22723e-06
2.63069e-05
-2.49521e-05
6.97494e-05
-5.01348e-05
0.000103361
-8.03999e-05
0.000127764
-0.000113881
0.000144032
-0.000149104
0.000153361
-0.000184892
0.000156886
-0.000220283
0.000155554
-0.000254454
0.000150048
-0.000286658
0.000140778
-0.000316169
0.000127913
-0.000342242
0.000111446
-0.00036409
9.12888e-05
-0.000380874
6.73714e-05
-0.000391727
3.9755e-05
-0.000395793
8.75137e-06
-0.000392295
-2.50072e-05
-0.000380638
-6.0416e-05
-0.000360539
-9.58956e-05
-0.000332165
-0.000129397
-0.000296273
-0.000158499
-0.000254299
-0.000180624
-0.000208375
-0.000193361
-0.000161218
-0.000194879
-0.000115876
-0.000184343
-7.53617e-05
-0.000162241
-4.22436e-05
-0.000130508
-1.82921e-05
-9.24024e-05
-4.28615e-06
-5.21585e-05
-1.46354e-05
-7.98909e-06
3.4296e-05
-2.75772e-05
8.93374e-05
-5.53398e-05
0.000131123
-8.86088e-05
0.000161032
-0.000125322
0.000180745
-0.000163893
0.000191932
-0.000203093
0.000196087
-0.00024195
0.000194411
-0.000279653
0.000187751
-0.000315474
0.000176599
-0.0003487
0.000161138
-0.000378579
0.000141325
-0.000404283
0.000116993
-0.00042489
8.79779e-05
-0.000439386
5.42516e-05
-0.000446705
1.60707e-05
-0.000445798
-2.59146e-05
-0.00043573
-7.04839e-05
-0.000415866
-0.00011576
-0.000386051
-0.000159211
-0.000346827
-0.000197723
-0.000299608
-0.000227843
-0.000246767
-0.000246203
-0.000191549
-0.000250096
-0.000137783
-0.000238109
-8.93813e-05
-0.000210643
-4.97451e-05
-0.000170144
-2.12253e-05
-0.000120922
-4.80222e-06
-6.85815e-05
-1.94376e-05
-8.67324e-06
4.29692e-05
-2.99538e-05
0.000110618
-6.00854e-05
0.000161255
-9.61435e-05
0.000197091
-0.000135895
0.000220497
-0.000177661
0.000233698
-0.000220184
0.00023861
-0.000262507
0.000236734
-0.000303861
0.000229106
-0.000343573
0.000216311
-0.000380976
0.000198542
-0.000415346
0.000175694
-0.000445839
0.000147486
-0.000471458
0.000113597
-0.000491036
7.38293e-05
-0.00050325
2.82854e-05
-0.000506699
-2.24653e-05
-0.000499976
-7.72077e-05
-0.000481919
-0.000133817
-0.000451849
-0.000189281
-0.000409886
-0.000239686
-0.000357257
-0.000280472
-0.000296505
-0.000306954
-0.000231483
-0.000315119
-0.00016703
-0.000302562
-0.000108321
-0.000269352
-5.99905e-05
-0.000218475
-2.52884e-05
-0.000155624
-5.54679e-06
-8.83231e-05
-2.49844e-05
-9.3031e-06
5.22723e-05
-3.21532e-05
0.000133468
-6.44983e-05
0.0001936
-0.000103185
0.000235777
-0.00014583
0.000263142
-0.000190684
0.000278552
-0.000236482
0.000284409
-0.000282312
0.000282564
-0.000327484
0.000274277
-0.000371415
0.000260242
-0.000413534
0.00024066
-0.000453183
0.000215344
-0.000489547
0.00018385
-0.000521582
0.000145632
-0.00054797
0.000100217
-0.000567101
4.74165e-05
-0.000577152
-1.24138e-05
-0.000576082
-7.82774e-05
-0.00056201
-0.000147889
-0.000533467
-0.000217824
-0.000489862
-0.000283291
-0.000431969
-0.000338365
-0.000362333
-0.00037659
-0.000285419
-0.000392032
-0.000207319
-0.000380662
-0.000134931
-0.00034174
-7.47032e-05
-0.000278703
-3.13066e-05
-0.000199021
-6.73802e-06
-0.000112892
-3.17224e-05
-9.8942e-06
6.21665e-05
-3.42264e-05
0.0001578
-6.86704e-05
0.000228044
-0.000109859
0.000276966
-0.000155278
0.000308561
-0.000203121
0.000326395
-0.000252143
0.000333431
-0.000301506
0.000331927
-0.000350636
0.000323406
-0.00039909
0.000308696
-0.000446441
0.000288011
-0.000492162
0.000261065
-0.000535521
0.000227209
-0.000575477
0.000185588
-0.000610591
0.00013533
-0.000638955
7.57808e-05
-0.000658261
6.89187e-06
-0.000665709
-7.0829e-05
-0.000658472
-0.000155126
-0.000633986
-0.000242311
-0.000590581
-0.000326697
-0.000528194
-0.000400751
-0.000449057
-0.000455727
-0.000358111
-0.000482978
-0.000262869
-0.000475904
-0.000172476
-0.000432132
-9.59847e-05
-0.000355194
-4.02989e-05
-0.000254707
-8.64498e-06
-0.000144546
-4.03674e-05
-1.04566e-05
7.26231e-05
-3.62088e-05
0.000183553
-7.26645e-05
0.0002645
-0.000116248
0.000320549
-0.000164316
0.000356629
-0.000215023
0.000377103
-0.000267164
0.000385572
-0.000320005
0.000384767
-0.000373127
0.000376528
-0.000426278
0.000361848
-0.000479238
0.000340971
-0.000531677
0.000313504
-0.000583022
0.000278554
-0.000632308
0.000234873
-0.000678033
0.000181056
-0.000718041
0.000115789
-0.000749388
3.82396e-05
-0.000768627
-5.15899e-05
-0.000771656
-0.000152098
-0.000754539
-0.000259427
-0.000714122
-0.000367114
-0.00064901
-0.000465863
-0.000560618
-0.000544119
-0.000453992
-0.000589604
-0.000338025
-0.000591871
-0.00022458
-0.000545577
-0.000126291
-0.000453483
-5.34932e-05
-0.000327505
-1.15963e-05
-0.000186442
-5.19637e-05
-1.09982e-05
8.36214e-05
-3.81295e-05
0.000210684
-7.65284e-05
0.000302899
-0.000122399
0.00036642
-0.000172966
0.000407195
-0.000226349
0.000430486
-0.000281399
0.000440621
-0.000337512
0.000440881
-0.000394463
0.000433479
-0.000452239
0.000419624
-0.000510885
0.000399616
-0.000570342
0.000372962
-0.000630278
0.00033849
-0.000689895
0.00029449
-0.000747713
0.000238874
-0.000801375
0.00016945
-0.000847467
8.43309e-05
-0.00088167
-1.73861e-05
-0.00089862
-0.000135148
-0.000892792
-0.000265256
-0.000859162
-0.000400744
-0.00079446
-0.000530564
-0.000698588
-0.000639991
-0.00057599
-0.000712202
-0.000436488
-0.000731372
-0.000294847
-0.000687219
-0.000168321
-0.000580009
-7.23202e-05
-0.000423505
-1.5988e-05
-0.000242775
-6.79518e-05
-1.15295e-05
9.51509e-05
-4.00236e-05
0.000239178
-8.03159e-05
0.000343191
-0.000128359
0.000414463
-0.000181228
0.000460064
-0.000237002
0.000486261
-0.000294595
0.000498214
-0.000353554
0.00049984
-0.000413875
0.0004938
-0.00047582
0.000481569
-0.000539749
0.000463545
-0.000605936
0.000439149
-0.000674371
0.000406925
-0.000744512
0.00036463
-0.000815011
0.000309374
-0.000883437
0.000237876
-0.000946033
0.000146926
-0.0009976
3.4181e-05
-0.00103178
-0.000100967
-0.0010413
-0.000255732
-0.0010191
-0.000422951
-0.000959533
-0.000590129
-0.000860185
-0.000739339
-0.000723803
-0.000848585
-0.000560068
-0.000895107
-0.000386174
-0.000861113
-0.000224765
-0.000741418
-9.83811e-05
-0.000549889
-2.22941e-05
-0.000318862
-9.02459e-05
-1.20693e-05
0.00010722
-4.195e-05
0.000269059
-8.41164e-05
0.000385357
-0.000134213
0.00046456
-0.000189128
0.000514978
-0.000246884
0.000544017
-0.000306456
0.000557786
-0.000367548
0.000560933
-0.000430388
0.00055664
-0.00049553
0.000546711
-0.000563672
0.000531687
-0.000635458
0.000510935
-0.000711249
0.000482716
-0.00079084
0.000444222
-0.000873132
0.000391666
-0.000955778
0.000320522
-0.00103487
0.000226023
-0.00110474
0.000104048
-0.00115812
-4.75872e-05
-0.00118641
-0.000227447
-0.00118055
-0.00042881
-0.00113232
-0.000638359
-0.00103619
-0.000835467
-0.00089182
-0.000992954
-0.000706939
-0.00107999
-0.000499634
-0.00106842
-0.000297842
-0.00094321
-0.000133364
-0.000714367
-3.10827e-05
-0.000421143
-0.000121329
-1.26532e-05
0.000119873
-4.40153e-05
0.000300421
-8.80936e-05
0.000429436
-0.000140133
0.0005166
-0.000196777
0.000571622
-0.000255965
0.000603205
-0.000316719
0.00061854
-0.000378893
0.000623106
-0.000442935
0.000620682
-0.000509679
0.000613455
-0.000580145
0.000602154
-0.00065534
0.00058613
-0.000736006
0.000563382
-0.000822319
0.000530535
-0.000913532
0.000482879
-0.00100758
0.000414569
-0.00110072
0.00031916
-0.00118727
0.000190606
-0.00125958
2.47185e-05
-0.00130836
-0.000178669
-0.00132311
-0.000414062
-0.00129319
-0.000668279
-0.0012095
-0.000919155
-0.00106719
-0.00113526
-0.000869621
-0.00127756
-0.000632893
-0.00130515
-0.000388485
-0.00118762
-0.000178847
-0.000924004
-4.30263e-05
-0.000556964
-0.000164355
-1.33447e-05
0.000133218
-4.64038e-05
0.00033348
-9.25339e-05
0.000475566
-0.000146442
0.000570508
-0.000204446
0.000629627
-0.000264367
0.000663126
-0.000325255
0.000679428
-0.000387093
0.000684944
-0.000450519
0.000684107
-0.000516597
0.000679533
-0.000586615
0.000672172
-0.000661878
0.000661394
-0.000743469
0.000644972
-0.000831946
0.000619013
-0.000926995
0.000577928
-0.00102704
0.000514609
-0.00112886
0.000420985
-0.00122736
0.000289105
-0.00131535
0.000112713
-0.00138356
-0.000110461
-0.00142127
-0.000376355
-0.00141607
-0.000673478
-0.00135543
-0.000979799
-0.00122902
-0.00126166
-0.00103328
-0.0014733
-0.000778318
-0.00156011
-0.000495072
-0.00147086
-0.000235889
-0.00118319
-5.88864e-05
-0.000733967
-0.000223241
-1.42518e-05
0.00014747
-4.94204e-05
0.000368648
-9.79083e-05
0.000524053
-0.000153681
0.000626281
-0.000212639
0.000688584
-0.000272445
0.000722932
-0.000332167
0.00073915
-0.00039189
0.000744668
-0.000452397
0.000744615
-0.00051491
0.000742046
-0.000580888
0.000738149
-0.000651831
0.000732338
-0.000729074
0.000722214
-0.000813515
0.000703454
-0.00090532
0.000669733
-0.00100359
0.000612875
-0.00110603
0.000523425
-0.0012087
0.00039178
-0.00130587
0.000209886
-0.00138908
-2.72572e-05
-0.00144903
-0.000316406
-0.00147259
-0.000649911
-0.0014448
-0.00100759
-0.00134987
-0.00135659
-0.00117554
-0.00164763
-0.000921528
-0.00181412
-0.000611893
-0.0017805
-0.00030434
-0.00149074
-7.94549e-05
-0.000958852
-0.000302696
-1.5552e-05
0.000163022
-5.35492e-05
0.000406646
-0.00010495
0.000575454
-0.000162697
0.000684028
-0.000222167
0.000748055
-0.000280858
0.000781622
-0.000337863
0.000796154
-0.000393366
0.000800171
-0.000448247
0.000799496
-0.000503803
0.000797602
-0.000561553
0.000795898
-0.000623072
0.000793857
-0.000689831
0.000788973
-0.000763003
0.000776626
-0.000843251
0.000749981
-0.000930494
0.000700118
-0.00102368
0.000616613
-0.00112057
0.000488664
-0.00121742
0.000306742
-0.00130879
6.41141e-05
-0.00138621
-0.000238992
-0.00143857
-0.000597543
-0.00145002
-0.000996145
-0.0014006
-0.00140601
-0.00126912
-0.00177912
-0.00104163
-0.00204161
-0.000727888
-0.00209424
-0.000381904
-0.00183672
-0.000105447
-0.00123531
-0.000408143
-1.75361e-05
0.000180558
-5.95431e-05
0.000448653
-0.000114755
0.000630666
-0.000174717
0.00074399
-0.000234201
0.000807538
-0.000290587
0.000838009
-0.000343067
0.000848634
-0.000391953
0.000849058
-0.000438208
0.00084575
-0.00048314
0.000842534
-0.00052823
0.000840989
-0.000575021
0.000840648
-0.00062502
0.000838972
-0.00067961
0.000831217
-0.000739951
0.000810322
-0.000806877
0.000767043
-0.000880768
0.000690504
-0.000961391
0.000569287
-0.0010476
0.00039295
-0.0011371
0.000153619
-0.00122429
-0.000151811
-0.0013009
-0.000520926
-0.00135247
-0.000944574
-0.00135739
-0.00140109
-0.00128745
-0.00184906
-0.00111423
-0.00221483
-0.000826854
-0.00238162
-0.00046328
-0.0022003
-0.00013737
-0.00156122
-0.000545513
-2.06891e-05
0.000201247
-6.85671e-05
0.000496531
-0.000128919
0.000691019
-0.000191427
0.000806497
-0.000250262
0.000866373
-0.000302858
0.000890606
-0.000348673
0.000894448
-0.000388258
0.000888642
-0.000422692
0.000880184
-0.000453281
0.000873122
-0.000481419
0.000869128
-0.00050855
0.000867779
-0.00053616
0.000866583
-0.000565803
0.00086086
-0.000599125
0.000843644
-0.000637885
0.000805804
-0.000683942
0.000736561
-0.000739136
0.000624481
-0.000805013
0.000458828
-0.000882368
0.000230973
-0.000969538
-6.46398e-05
-0.00106179
-0.000428675
-0.00114811
-0.000858257
-0.00120844
-0.00134075
-0.00121142
-0.00184609
-0.00111664
-0.00230961
-0.000889697
-0.00260856
-0.00053985
-0.00255014
-0.000175338
-0.00192573
-0.000720851
-2.58472e-05
0.000227094
-8.24325e-05
0.000553116
-0.000149706
0.000758292
-0.000214994
0.000871786
-0.000272079
0.000923457
-0.000318833
0.00093736
-0.000355303
0.000930919
-0.000382492
0.000915831
-0.000401711
0.000899403
-0.000414311
0.000885723
-0.000421619
0.000876436
-0.000424977
0.000871136
-0.00042584
0.000867446
-0.000425914
0.000860933
-0.000427294
0.000845024
-0.000432604
0.000811114
-0.000445053
0.00074901
-0.000468362
0.00064779
-0.000506487
0.000496953
-0.000563031
0.000287516
-0.000640296
1.2626e-05
-0.000737202
-0.000331769
-0.000847738
-0.000747722
-0.000956461
-0.00123203
-0.00103377
-0.00176878
-0.00103291
-0.00231047
-0.000897937
-0.00274353
-0.000600232
-0.00284785
-0.000218726
-0.00230724
-0.000939577
-3.45114e-05
0.000261606
-0.000103977
0.000622582
-0.000180218
0.000834532
-0.000247912
0.000939481
-0.000301098
0.000976643
-0.000338815
0.000975077
-0.000362236
0.00095434
-0.000373152
0.000926746
-0.00037331
0.000899561
-0.000364233
0.000876647
-0.000347258
0.00085946
-0.000323676
0.000847554
-0.000294935
0.000838705
-0.000262871
0.00082887
-0.000229947
0.0008121
-0.000199492
0.000780659
-0.000175809
0.000725327
-0.000164097
0.000636078
-0.000170183
0.000503039
-0.000199961
0.000317294
-0.000258685
7.13499e-05
-0.000349213
-0.000241241
-0.000470793
-0.000626142
-0.000614741
-0.00108808
-0.000758121
-0.0016254
-0.000855495
-0.00221309
-0.000836291
-0.00276274
-0.000631165
-0.00305298
-0.000265414
-0.00267299
-0.00120499
-4.94606e-05
0.000311066
-0.000137614
0.000710735
-0.000224371
0.000921289
-0.00029226
0.00100737
-0.000337066
0.00102145
-0.000360241
0.000998252
-0.00036488
0.000958979
-0.000354031
0.000915897
-0.000330165
0.000875695
-0.000295158
0.00084164
-0.000250476
0.000814778
-0.000197435
0.000794513
-0.000137481
0.000778751
-7.25268e-05
0.000763916
-5.26586e-06
0.000744839
6.05989e-05
0.000714795
0.000120137
0.000665789
0.000167165
0.000589049
0.000194563
0.000475642
0.000194738
0.000317119
0.00016029
0.000105797
8.50316e-05
-0.000165982
-3.46681e-05
-0.000506442
-0.00019784
-0.000924909
-0.000392316
-0.00143092
-0.000581833
-0.00202358
-0.000692135
-0.00265243
-0.000617403
-0.00312771
-0.000310225
-0.00298017
-0.00151522
-7.58853e-05
0.000386952
-0.000189829
0.000824679
-0.000285843
0.0010173
-0.000347052
0.00106858
-0.000374016
0.00104841
-0.00037255
0.000996786
-0.000348754
0.000935183
-0.000307513
0.000874655
-0.000252336
0.000820519
-0.00018564
0.000774944
-0.000109096
0.000738233
-2.40697e-05
0.000709487
6.8034e-05
0.000686648
0.000165414
0.000666535
0.000265463
0.00064479
0.000364423
0.000615834
0.000457189
0.000573023
0.000537271
0.000508968
0.000596942
0.00041597
0.000627639
0.000286422
0.000620449
0.000112988
0.000566631
-0.000112165
0.000458331
-0.000398142
0.000289698
-0.000756277
6.16422e-05
-0.00120287
-0.00020653
-0.00175541
-0.000450925
-0.00240804
-0.0005394
-0.00303923
-0.000342408
-0.00317716
-0.00185763
-0.000123265
0.000510216
-0.000268297
0.000969711
-0.000362883
0.00111189
-0.000399433
0.00110513
-0.000388798
0.00103778
-0.000343957
0.000951944
-0.000275263
0.000866489
-0.00018993
0.000789323
-9.26276e-05
0.000723216
1.37527e-05
0.000668563
0.000127388
0.000624598
0.000247112
0.000589763
0.000371824
0.000561936
0.000500081
0.000538278
0.0006297
0.000515172
0.000757374
0.00048816
0.000878407
0.000451991
0.000986579
0.000400796
0.0010742
0.000328345
0.00113233
0.000228299
0.00115097
9.4342e-05
0.00111951
-8.07064e-05
0.00102693
-0.000305557
0.000861539
-0.000590887
0.00061325
-0.000954577
0.000283972
-0.00142613
-8.38832e-05
-0.00204018
-0.000367899
-0.00275522
-0.000346817
-0.00319824
-0.00220444
-0.000207783
0.000717999
-0.000372307
0.00113423
-0.00042714
0.00116672
-0.000396186
0.00107417
-0.000309184
0.000950777
-0.000189094
0.000831854
-5.07376e-05
0.000728133
9.69819e-05
0.000641603
0.000249095
0.000571103
0.000403075
0.000514582
0.000557823
0.00046985
0.000712894
0.000434692
0.000868018
0.000406811
0.00102262
0.000383681
0.00117538
0.000362408
0.0013239
0.000339637
0.00146437
0.000311524
0.00159136
0.000273807
0.00169778
0.000221924
0.00177487
0.000151207
0.00181199
5.72212e-05
0.00179736
-6.60761e-05
0.00171745
-0.000225641
0.00155639
-0.000429827
0.00129618
-0.000694368
0.000920494
-0.00105045
0.000436203
-0.00155589
-5.07015e-05
-0.00226831
-0.000283138
-0.0029658
-0.00248758
-0.000341543
0.00105954
-0.000431695
0.00122439
-0.000342416
0.00107744
-0.000158905
0.000890663
6.37149e-05
0.000728157
0.00029716
0.000598409
0.000527363
0.000497929
0.000748245
0.000420721
0.000957924
0.000361425
0.00115662
0.000315884
0.00134553
0.000280946
0.00152611
0.000254108
0.00169969
0.000233229
0.00186707
0.000216302
0.00202819
0.000201289
0.00218183
0.000186003
0.00232529
0.000168056
0.00245423
0.000144869
0.00256247
0.000113682
0.00264208
7.15979e-05
0.00268269
1.6618e-05
0.0026724
-5.57854e-05
0.00259572
-0.000148971
0.0024347
-0.000268798
0.00216641
-0.00042608
0.00176216
-0.000646193
0.00119291
-0.000986651
0.000504929
-0.00158033
-3.05621e-05
-0.00243031
-0.00251814
-0.000301427
0.00136097
-4.71393e-05
0.000970099
0.000383475
0.000646829
0.000804856
0.000469282
0.0011862
0.000346812
0.00152348
0.000261132
0.00181935
0.000202055
0.00207913
0.000160943
0.00230881
0.00013175
0.002514
0.00011069
0.00269959
9.53552e-05
0.00286962
8.40833e-05
0.00302722
7.56279e-05
0.00317456
6.89617e-05
0.0033127
6.31492e-05
0.00344143
5.72666e-05
0.00355912
5.03638e-05
0.00366253
4.14649e-05
0.00374659
2.96159e-05
0.00380418
1.40114e-05
0.0038276
-6.79832e-06
0.00380618
-3.43654e-05
0.00372492
-6.77103e-05
0.00356707
-0.000110956
0.00330878
-0.000167787
0.00291424
-0.000251648
0.00232538
-0.00039779
0.00148822
-0.000743173
0.000505363
-0.00144745
-0.00201278
0.00136097
0.00233107
0.0029779
0.00344718
0.00379399
0.00405512
0.00425718
0.00441812
0.00454987
0.00466056
0.00475592
0.00484
0.00491563
0.00498459
0.00504774
0.00510501
0.00515537
0.00519683
0.00522645
0.00524046
0.00523366
0.0051993
0.00513159
0.00502063
0.00485284
0.0046012
0.00420341
0.00346023
0.00201278
)
;

boundaryField
{
    movingWall
    {
        type            calculated;
        value           uniform 0;
    }
    fixedWalls
    {
        type            calculated;
        value           uniform 0;
    }
    frontAndBack
    {
        type            empty;
        value           nonuniform 0();
    }
}


// ************************************************************************* //
