/*--------------------------------*- C++ -*----------------------------------*\
  =========                 |
  \\      /  F ield         | OpenFOAM: The Open Source CFD Toolbox
   \\    /   O peration     | Website:  https://openfoam.org
    \\  /    A nd           | Version:  7
     \\/     M anipulation  |
\*---------------------------------------------------------------------------*/
FoamFile
{
    version     2.0;
    format      ascii;
    class       volVectorField;
    location    "5.4";
    object      U;
}
// * * * * * * * * * * * * * * * * * * * * * * * * * * * * * * * * * * * * * //

dimensions      [0 1 -1 0 0 0 0];

internalField   nonuniform List<vector> 
900
(
(6.74014e-05 -6.65538e-05 0)
(4.15347e-05 8.65299e-06 0)
(-0.00027007 9.83649e-05 0)
(-0.000800586 0.000164438 0)
(-0.00148766 0.000205216 0)
(-0.00227239 0.000226289 0)
(-0.00310601 0.000233979 0)
(-0.00395216 0.000233004 0)
(-0.00478381 0.000226111 0)
(-0.00557934 0.000214474 0)
(-0.00631928 0.000198164 0)
(-0.00698406 0.000176574 0)
(-0.00755264 0.000148782 0)
(-0.00800221 0.000113893 0)
(-0.00830883 7.13661e-05 0)
(-0.00844897 2.13177e-05 0)
(-0.00840184 -3.52442e-05 0)
(-0.00815245 -9.61936e-05 0)
(-0.00769513 -0.000158137 0)
(-0.00703674 -0.000216585 0)
(-0.00619929 -0.000266279 0)
(-0.00522116 -0.000301743 0)
(-0.00415644 -0.000317989 0)
(-0.00307201 -0.000311223 0)
(-0.00204269 -0.000279388 0)
(-0.00114471 -0.000222475 0)
(-0.000447326 -0.000143217 0)
(-4.24036e-06 -4.96334e-05 0)
(0.000159007 4.13052e-05 0)
(8.48891e-05 8.42648e-05 0)
(-6.6852e-06 -4.33225e-05 0)
(-0.000374771 0.000371907 0)
(-0.00134967 0.00081049 0)
(-0.00277339 0.00115358 0)
(-0.00453406 0.00138583 0)
(-0.00651861 0.00152041 0)
(-0.00862254 0.00157791 0)
(-0.0107596 0.00157664 0)
(-0.0128596 0.00152918 0)
(-0.0148633 0.00144225 0)
(-0.0167166 0.00131788 0)
(-0.0183672 0.00115499 0)
(-0.0197614 0.000951026 0)
(-0.0208442 0.000703751 0)
(-0.0215603 0.000412938 0)
(-0.0218582 8.18976e-05 0)
(-0.0216946 -0.000281408 0)
(-0.0210411 -0.000662629 0)
(-0.0198913 -0.00104171 0)
(-0.0182674 -0.00139336 0)
(-0.0162248 -0.00168887 0)
(-0.0138545 -0.0018991 0)
(-0.0112806 -0.00199823 0)
(-0.00865369 -0.00196758 0)
(-0.00613978 -0.00179904 0)
(-0.00390491 -0.00149767 0)
(-0.00209656 -0.00108499 0)
(-0.000820158 -0.00060561 0)
(-0.000115382 -0.000137683 0)
(4.6939e-05 0.00015725 0)
(-0.000102516 0.000272515 0)
(-0.000854017 0.00135675 0)
(-0.00249 0.00240004 0)
(-0.00472004 0.00322551 0)
(-0.00739107 0.00380079 0)
(-0.0103583 0.00414522 0)
(-0.0134829 0.00429616 0)
(-0.0166456 0.00429032 0)
(-0.0197457 0.00415524 0)
(-0.0226954 0.00390726 0)
(-0.0254143 0.00355292 0)
(-0.0278244 0.00309193 0)
(-0.0298477 0.00252092 0)
(-0.0314055 0.00183753 0)
(-0.0324208 0.00104445 0)
(-0.0328232 0.000153141 0)
(-0.0325546 -0.00081311 0)
(-0.0315788 -0.0018168 0)
(-0.0298905 -0.00280657 0)
(-0.0275239 -0.00371897 0)
(-0.0245586 -0.00448312 0)
(-0.0211223 -0.00502793 0)
(-0.0173881 -0.00529112 0)
(-0.0135646 -0.00522891 0)
(-0.00988042 -0.00482475 0)
(-0.00656262 -0.00409641 0)
(-0.00381114 -0.00310261 0)
(-0.00176554 -0.00195128 0)
(-0.000486804 -0.000812486 0)
(-2.09866e-05 2.51262e-05 0)
(-0.000184514 0.000844035 0)
(-0.00128949 0.00286984 0)
(-0.00354184 0.00467753 0)
(-0.00650224 0.00608732 0)
(-0.00997036 0.00707031 0)
(-0.0137742 0.00766006 0)
(-0.0177504 0.00791377 0)
(-0.0217573 0.00788802 0)
(-0.025674 0.00762645 0)
(-0.029393 0.00715607 0)
(-0.0328148 0.00648883 0)
(-0.0358431 0.005626 0)
(-0.0383814 0.00456422 0)
(-0.0403333 0.00330215 0)
(-0.0416045 0.0018473 0)
(-0.0421089 0.000222351 0)
(-0.0417757 -0.00152945 0)
(-0.0405599 -0.00334167 0)
(-0.0384538 -0.00512361 0)
(-0.0354968 -0.00676413 0)
(-0.031784 -0.00813965 0)
(-0.0274698 -0.00912653 0)
(-0.0227649 -0.00961689 0)
(-0.0179249 -0.00953564 0)
(-0.013231 -0.00885627 0)
(-0.00896321 -0.00761308 0)
(-0.00536851 -0.00591005 0)
(-0.0026208 -0.0039276 0)
(-0.000812119 -0.00193004 0)
(-7.49438e-05 -0.000305378 0)
(-0.000249751 0.00163669 0)
(-0.00166324 0.00486292 0)
(-0.00446973 0.00758056 0)
(-0.00808527 0.00965474 0)
(-0.0122597 0.0110868 0)
(-0.0167941 0.011938 0)
(-0.0215043 0.0122915 0)
(-0.0262333 0.0122263 0)
(-0.0308465 0.0118032 0)
(-0.0352243 0.0110603 0)
(-0.0392547 0.0100149 0)
(-0.0428283 0.00866992 0)
(-0.0458352 0.00702176 0)
(-0.0481643 0.00507012 0)
(-0.0497057 0.00282769 0)
(-0.0503572 0.000329445 0)
(-0.0500321 -0.00235964 0)
(-0.0486713 -0.00513989 0)
(-0.0462566 -0.00787546 0)
(-0.0428239 -0.0103995 0)
(-0.0384742 -0.0125257 0)
(-0.0333805 -0.0140666 0)
(-0.0277859 -0.0148578 0)
(-0.0219921 -0.0147843 0)
(-0.0163356 -0.0138056 0)
(-0.0111555 -0.011974 0)
(-0.00675406 -0.00944479 0)
(-0.00334782 -0.00647819 0)
(-0.00106375 -0.00343466 0)
(-0.000107054 -0.000788865 0)
(-0.000301412 0.00261602 0)
(-0.00197996 0.00728145 0)
(-0.00527698 0.0110493 0)
(-0.00947801 0.0138631 0)
(-0.0142845 0.0157793 0)
(-0.0194706 0.0169023 0)
(-0.0248341 0.0173498 0)
(-0.0302064 0.0172276 0)
(-0.035445 0.0166155 0)
(-0.0404236 0.0155632 0)
(-0.0450231 0.0140929 0)
(-0.0491262 0.0122079 0)
(-0.0526128 0.00990297 0)
(-0.0553589 0.00717687 0)
(-0.0572386 0.00404563 0)
(-0.0581301 0.000555014 0)
(-0.0579249 -0.00320856 0)
(-0.0565402 -0.00711067 0)
(-0.0539358 -0.0109659 0)
(-0.050131 -0.0145437 0)
(-0.0452209 -0.017583 0)
(-0.0393885 -0.0198175 0)
(-0.0329067 -0.0210099 0)
(-0.026128 -0.020991 0)
(-0.0194569 -0.019697 0)
(-0.0133096 -0.0171972 0)
(-0.00806263 -0.0137056 0)
(-0.00398998 -0.00957495 0)
(-0.00125666 -0.00527551 0)
(-0.000120279 -0.00138187 0)
(-0.000343562 0.00375234 0)
(-0.00225132 0.0100712 0)
(-0.00598275 0.0150208 0)
(-0.0107094 0.0186466 0)
(-0.0160882 0.0210808 0)
(-0.0218679 0.0224865 0)
(-0.0278307 0.0230256 0)
(-0.0337997 0.0228365 0)
(-0.0396291 0.0220206 0)
(-0.0451907 0.0206396 0)
(-0.0503638 0.0187201 0)
(-0.055027 0.0162635 0)
(-0.0590534 0.0132598 0)
(-0.0623071 0.00970275 0)
(-0.0646449 0.00560713 0)
(-0.0659209 0.00102484 0)
(-0.0659956 -0.00393995 0)
(-0.0647503 -0.0091198 0)
(-0.0621064 -0.0142772 0)
(-0.0580488 -0.0191098 0)
(-0.0526497 -0.0232674 0)
(-0.0460895 -0.0263841 0)
(-0.038667 -0.0281247 0)
(-0.030793 -0.0282417 0)
(-0.0229596 -0.0266312 0)
(-0.0156893 -0.0233742 0)
(-0.00946367 -0.018753 0)
(-0.00463901 -0.0132358 0)
(-0.00142654 -0.00743298 0)
(-0.000121392 -0.0020563 0)
(-0.000379439 0.00502363 0)
(-0.0024892 0.0131882 0)
(-0.00660992 0.0194425 0)
(-0.0118141 0.023951 0)
(-0.0177188 0.0269396 0)
(-0.0240502 0.0286437 0)
(-0.0305777 0.0292801 0)
(-0.0371199 0.0290258 0)
(-0.0435318 0.0280075 0)
(-0.0496885 0.0263 0)
(-0.0554725 0.0239328 0)
(-0.0607634 0.0209028 0)
(-0.0654308 0.0171902 0)
(-0.069329 0.0127776 0)
(-0.072296 0.00767043 0)
(-0.0741565 0.00191821 0)
(-0.0747306 -0.00436538 0)
(-0.0738477 -0.010986 0)
(-0.0713696 -0.0176548 0)
(-0.0672229 -0.0239908 0)
(-0.0614316 -0.0295374 0)
(-0.054153 -0.0338008 0)
(-0.0457019 -0.036312 0)
(-0.036553 -0.0367067 0)
(-0.0273112 -0.0348098 0)
(-0.0186452 -0.0307017 0)
(-0.0111893 -0.0247447 0)
(-0.00542166 -0.0175575 0)
(-0.00162012 -0.0099412 0)
(-0.000117584 -0.00280636 0)
(-0.0004112 0.00641445 0)
(-0.00270323 0.0165994 0)
(-0.00717912 0.0242741 0)
(-0.0128239 0.0297356 0)
(-0.0192196 0.0333182 0)
(-0.0260731 0.0353435 0)
(-0.0331441 0.0360929 0)
(-0.0402509 0.0357897 0)
(-0.0472539 0.0345897 0)
(-0.0540371 0.0325821 0)
(-0.0604918 0.0297984 0)
(-0.0665047 0.0262274 0)
(-0.0719471 0.0218334 0)
(-0.0766666 0.0165788 0)
(-0.0804829 0.0104485 0)
(-0.0831871 0.0034759 0)
(-0.0845489 -0.00422982 0)
(-0.084328 -0.0124602 0)
(-0.0823009 -0.0208812 0)
(-0.0783033 -0.0290297 0)
(-0.0722757 -0.0363243 0)
(-0.0643196 -0.042108 0)
(-0.0547437 -0.0457262 0)
(-0.0440861 -0.0466392 0)
(-0.0330897 -0.0445488 0)
(-0.0226216 -0.0395066 0)
(-0.013537 -0.0319649 0)
(-0.0064996 -0.022742 0)
(-0.0018944 -0.0129055 0)
(-0.000116309 -0.00365369 0)
(-0.000440173 0.00791405 0)
(-0.00290048 0.0202808 0)
(-0.00770668 0.0294855 0)
(-0.0137646 0.0359696 0)
(-0.020625 0.0401896 0)
(-0.0279787 0.0425655 0)
(-0.0355792 0.0434545 0)
(-0.0432487 0.0431338 0)
(-0.0508586 0.0417933 0)
(-0.0583076 0.0395389 0)
(-0.0655035 0.0364034 0)
(-0.0723473 0.0323634 0)
(-0.0787192 0.0273603 0)
(-0.0844666 0.0213254 0)
(-0.0893937 0.0142073 0)
(-0.0932564 0.00600408 0)
(-0.095766 -0.00320138 0)
(-0.0965937 -0.013206 0)
(-0.0954012 -0.0236482 0)
(-0.0918938 -0.0339856 0)
(-0.0858813 -0.0434957 0)
(-0.0773602 -0.0513161 0)
(-0.0665946 -0.0565391 0)
(-0.054169 -0.0583637 0)
(-0.0409833 -0.0562839 0)
(-0.0281638 -0.0502671 0)
(-0.0168791 -0.0408543 0)
(-0.00807586 -0.0291253 0)
(-0.0023197 -0.0165212 0)
(-0.000126053 -0.00465269 0)
(-0.000467107 0.0095149 0)
(-0.00308579 0.0242153 0)
(-0.00820447 0.0350549 0)
(-0.0146548 0.0426302 0)
(-0.0219588 0.0475326 0)
(-0.0297935 0.050294 0)
(-0.03791 0.0513586 0)
(-0.0461386 0.0510662 0)
(-0.0543674 0.049647 0)
(-0.0625172 0.0472267 0)
(-0.0705203 0.0438396 0)
(-0.0783017 0.039447 0)
(-0.0857606 0.0339599 0)
(-0.0927533 0.027265 0)
(-0.099076 0.0192558 0)
(-0.104452 0.00986877 0)
(-0.108527 -0.000870292 0)
(-0.11087 -0.0127904 0)
(-0.110999 -0.0255373 0)
(-0.108444 -0.0385032 0)
(-0.102826 -0.0508146 0)
(-0.0939719 -0.0613606 0)
(-0.082039 -0.0688972 0)
(-0.0676159 -0.0722449 0)
(-0.0517584 -0.0705609 0)
(-0.0359092 -0.0636254 0)
(-0.0216662 -0.0520383 0)
(-0.0104014 -0.0372085 0)
(-0.0029832 -0.021096 0)
(-0.000157088 -0.00589802 0)
(-0.000492392 0.0112115 0)
(-0.00326246 0.0283907 0)
(-0.00868086 0.040966 0)
(-0.015507 0.0496984 0)
(-0.0232348 0.055328 0)
(-0.0315292 0.058512 0)
(-0.0401413 0.059794 0)
(-0.0489142 0.0595868 0)
(-0.0577584 0.0581684 0)
(-0.0666241 0.0556893 0)
(-0.0754776 0.0521868 0)
(-0.0842788 0.0476046 0)
(-0.0929582 0.0418159 0)
(-0.101394 0.0346495 0)
(-0.109385 0.0259215 0)
(-0.116632 0.0154763 0)
(-0.122709 0.00324268 0)
(-0.127079 -0.010693 0)
(-0.129098 -0.0260192 0)
(-0.128071 -0.0420952 0)
(-0.123372 -0.0579024 0)
(-0.114584 -0.0720452 0)
(-0.10167 -0.0828535 0)
(-0.0851426 -0.0886236 0)
(-0.0661712 -0.0879911 0)
(-0.0465455 -0.080375 0)
(-0.0284176 -0.0663432 0)
(-0.0137776 -0.0476876 0)
(-0.00399163 -0.0270752 0)
(-0.000222061 -0.00753398 0)
(-0.000516283 0.0129997 0)
(-0.00343318 0.0327986 0)
(-0.00914259 0.0472059 0)
(-0.0163303 0.0571568 0)
(-0.0244603 0.0635537 0)
(-0.0331856 0.0671946 0)
(-0.0422593 0.0687364 0)
(-0.0515405 0.0686767 0)
(-0.0609675 0.0673508 0)
(-0.0705272 0.0649401 0)
(-0.0802288 0.0614889 0)
(-0.0900779 0.0569232 0)
(-0.10005 0.0510722 0)
(-0.110059 0.0436929 0)
(-0.119923 0.0345006 0)
(-0.12933 0.0232123 0)
(-0.137803 0.00961097 0)
(-0.144692 -0.00636426 0)
(-0.149177 -0.0244907 0)
(-0.15032 -0.0441533 0)
(-0.147201 -0.0642154 0)
(-0.139079 -0.08298 0)
(-0.125619 -0.0982718 0)
(-0.107135 -0.107703 0)
(-0.0848015 -0.109149 0)
(-0.0607173 -0.101397 0)
(-0.0376863 -0.0847818 0)
(-0.0185522 -0.0614723 0)
(-0.00547371 -0.0350664 0)
(-0.000336776 -0.00976523 0)
(-0.000539182 0.0148769 0)
(-0.00360137 0.0374339 0)
(-0.00959771 0.0537648 0)
(-0.0171343 0.0649872 0)
(-0.0256411 0.0721816 0)
(-0.0347569 0.0763036 0)
(-0.0442374 0.0781398 0)
(-0.0539599 0.0782861 0)
(-0.0638945 0.0771458 0)
(-0.07407 0.0749404 0)
(-0.0845457 0.0717263 0)
(-0.0953824 0.0674135 0)
(-0.106612 0.0617839 0)
(-0.118198 0.0545107 0)
(-0.129996 0.0451847 0)
(-0.141703 0.0333584 0)
(-0.152806 0.0186183 0)
(-0.16256 0.000699037 0)
(-0.169986 -0.0203496 0)
(-0.173917 -0.044 0)
(-0.173113 -0.0690522 0)
(-0.166458 -0.0935298 0)
(-0.153213 -0.114711 0)
(-0.133332 -0.129384 0)
(-0.107797 -0.134396 0)
(-0.078863 -0.127519 0)
(-0.049988 -0.108482 0)
(-0.0251058 -0.0796805 0)
(-0.00758297 -0.0458605 0)
(-0.000521872 -0.0128692 0)
(-0.000562004 0.0168423 0)
(-0.00377308 0.0422964 0)
(-0.0100595 0.0606362 0)
(-0.0179353 0.0731699 0)
(-0.0267886 0.0811741 0)
(-0.0362398 0.0857822 0)
(-0.0460458 0.0879284 0)
(-0.0561028 0.0883223 0)
(-0.0664139 0.0874479 0)
(-0.0770524 0.0855761 0)
(-0.0881307 0.0827831 0)
(-0.0997696 0.078967 0)
(-0.112064 0.0738612 0)
(-0.12504 0.0670463 0)
(-0.138604 0.0579697 0)
(-0.152483 0.045987 0)
(-0.166165 0.0304426 0)
(-0.178852 0.0108058 0)
(-0.189451 -0.0131296 0)
(-0.19661 -0.0409952 0)
(-0.198815 -0.0716123 0)
(-0.194567 -0.1028 0)
(-0.182646 -0.131319 0)
(-0.162466 -0.153068 0)
(-0.13454 -0.163622 0)
(-0.100967 -0.159271 0)
(-0.0656728 -0.13853 0)
(-0.0338183 -0.103586 0)
(-0.0105008 -0.0604426 0)
(-0.000806132 -0.0172108 0)
(-0.000586683 0.0188997 0)
(-0.00395938 0.0473947 0)
(-0.0105519 0.0678204 0)
(-0.0187638 0.0816851 0)
(-0.0279296 0.0904835 0)
(-0.0376447 0.0955508 0)
(-0.0476642 0.0979898 0)
(-0.0579018 0.0986402 0)
(-0.0683924 0.0980791 0)
(-0.0792515 0.0966372 0)
(-0.0906424 0.0944183 0)
(-0.102744 0.0913143 0)
(-0.115713 0.0870122 0)
(-0.129641 0.0809963 0)
(-0.144499 0.072559 0)
(-0.160068 0.0608375 0)
(-0.175876 0.0449007 0)
(-0.191139 0.0239069 0)
(-0.204735 -0.00266178 0)
(-0.215222 -0.0346902 0)
(-0.220917 -0.0711146 0)
(-0.220011 -0.109689 0)
(-0.210787 -0.146792 0)
(-0.191976 -0.177491 0)
(-0.163302 -0.195961 0)
(-0.126238 -0.19654 0)
(-0.0847153 -0.175685 0)
(-0.0449971 -0.13449 0)
(-0.0144357 -0.0799797 0)
(-0.00123171 -0.0232602 0)
(-0.000616901 0.0210607 0)
(-0.00417972 0.0527525 0)
(-0.0111158 0.0753303 0)
(-0.0196736 0.0905161 0)
(-0.029117 0.100052 0)
(-0.0390081 0.105506 0)
(-0.0490962 0.108171 0)
(-0.0593099 0.109035 0)
(-0.0697118 0.108779 0)
(-0.0804531 0.107803 0)
(-0.0917385 0.106245 0)
(-0.103794 0.103997 0)
(-0.116832 0.100704 0)
(-0.131003 0.0957578 0)
(-0.146346 0.088296 0)
(-0.16272 0.077234 0)
(-0.17974 0.0613571 0)
(-0.196715 0.0394955 0)
(-0.21261 0.0107884 0)
(-0.226031 -0.0249733 0)
(-0.23529 -0.0669555 0)
(-0.238434 -0.113032 0)
(-0.233328 -0.159441 0)
(-0.21797 -0.200661 0)
(-0.19102 -0.229552 0)
(-0.152776 -0.238179 0)
(-0.106422 -0.21997 0)
(-0.058739 -0.173462 0)
(-0.0196099 -0.105763 0)
(-0.00186131 -0.0316109 0)
(-0.000659218 0.0233504 0)
(-0.00446667 0.0584191 0)
(-0.0118184 0.0832005 0)
(-0.0207536 0.0996551 0)
(-0.0304425 0.109816 0)
(-0.0404059 0.115518 0)
(-0.0503843 0.118276 0)
(-0.0603189 0.119239 0)
(-0.0702944 0.119203 0)
(-0.0804876 0.118641 0)
(-0.0911307 0.117729 0)
(-0.10248 0.116365 0)
(-0.114783 0.11416 0)
(-0.12824 0.110425 0)
(-0.142958 0.104157 0)
(-0.158889 0.0940707 0)
(-0.175782 0.0786922 0)
(-0.193122 0.0565468 0)
(-0.210087 0.0264425 0)
(-0.225487 -0.012184 0)
(-0.23784 -0.0589 0)
(-0.245263 -0.111838 0)
(-0.245405 -0.167438 0)
(-0.235629 -0.220017 0)
(-0.213419 -0.261501 0)
(-0.177416 -0.281698 0)
(-0.129127 -0.270173 0)
(-0.0747168 -0.220931 0)
(-0.0262249 -0.139065 0)
(-0.00278782 -0.0429914 0)
(-0.000725029 0.0258168 0)
(-0.0048731 0.0644846 0)
(-0.0127654 0.0914996 0)
(-0.022141 0.10911 0)
(-0.0320495 0.119703 0)
(-0.0419649 0.125435 0)
(-0.051621 0.128069 0)
(-0.0609729 0.12893 0)
(-0.0701235 0.128932 0)
(-0.0792644 0.12862 0)
(-0.0886384 0.128212 0)
(-0.0985114 0.127613 0)
(-0.109147 0.126412 0)
(-0.120778 0.123853 0)
(-0.133571 0.118829 0)
(-0.147587 0.109898 0)
(-0.162742 0.095381 0)
(-0.178762 0.0735597 0)
(-0.195149 0.0429581 0)
(-0.211125 0.00267165 0)
(-0.225546 -0.0473158 0)
(-0.236802 -0.105614 0)
(-0.242669 -0.169222 0)
(-0.240142 -0.232854 0)
(-0.225659 -0.288177 0)
(-0.195972 -0.323249 0)
(-0.150067 -0.323436 0)
(-0.0919397 -0.276134 0)
(-0.0344001 -0.180869 0)
(-0.00414725 -0.0582632 0)
(-0.000834332 0.0285454 0)
(-0.00548385 0.0711012 0)
(-0.0141173 0.100345 0)
(-0.0240376 0.118909 0)
(-0.0341441 0.129638 0)
(-0.0438684 0.135076 0)
(-0.0529507 0.137269 0)
(-0.0613695 0.137729 0)
(-0.0692473 0.137484 0)
(-0.0767837 0.137145 0)
(-0.084218 0.136964 0)
(-0.091808 0.136855 0)
(-0.0998147 0.136395 0)
(-0.108488 0.134795 0)
(-0.118049 0.130881 0)
(-0.128673 0.123119 0)
(-0.140467 0.109711 0)
(-0.153441 0.0887788 0)
(-0.167483 0.0586395 0)
(-0.182308 0.0181074 0)
(-0.197275 -0.0332165 0)
(-0.211282 -0.0946396 0)
(-0.222494 -0.164003 0)
(-0.227944 -0.236991 0)
(-0.223431 -0.305904 0)
(-0.203998 -0.358087 0)
(-0.165637 -0.375205 0)
(-0.108607 -0.33657 0)
(-0.0440883 -0.231449 0)
(-0.00613621 -0.0783942 0)
(-0.00102353 0.0316834 0)
(-0.00643645 0.0785147 0)
(-0.0161158 0.109922 0)
(-0.0267284 0.129104 0)
(-0.0370009 0.13953 0)
(-0.0463486 0.144225 0)
(-0.0545499 0.145554 0)
(-0.061631 0.145218 0)
(-0.0677461 0.144344 0)
(-0.0731035 0.143594 0)
(-0.0779331 0.143243 0)
(-0.0824743 0.143216 0)
(-0.0869746 0.143091 0)
(-0.0916916 0.142072 0)
(-0.0968971 0.138976 0)
(-0.10288 0.132252 0)
(-0.109941 0.120073 0)
(-0.118388 0.100506 0)
(-0.128504 0.0717664 0)
(-0.140493 0.0324713 0)
(-0.154308 -0.0181292 0)
(-0.169485 -0.0800355 0)
(-0.184792 -0.152098 0)
(-0.197744 -0.231431 0)
(-0.204115 -0.31188 0)
(-0.197844 -0.381507 0)
(-0.17206 -0.419768 0)
(-0.122205 -0.397779 0)
(-0.0549687 -0.289847 0)
(-0.00902661 -0.104406 0)
(-0.00136224 0.0354831 0)
(-0.00795887 0.0871069 0)
(-0.0191206 0.12049 0)
(-0.0305995 0.139754 0)
(-0.0409535 0.149248 0)
(-0.0496484 0.152602 0)
(-0.0565644 0.152534 0)
(-0.0618205 0.150921 0)
(-0.065629 0.148964 0)
(-0.0682198 0.14735 0)
(-0.0698179 0.146361 0)
(-0.0706453 0.145928 0)
(-0.0709342 0.145643 0)
(-0.0709481 0.144739 0)
(-0.0710043 0.142075 0)
(-0.071496 0.136156 0)
(-0.0729073 0.125216 0)
(-0.0758116 0.107371 0)
(-0.0808488 0.0808276 0)
(-0.0886646 0.0440991 0)
(-0.0997779 -0.00384946 0)
(-0.114355 -0.0635747 0)
(-0.131898 -0.134944 0)
(-0.150758 -0.2167 0)
(-0.167357 -0.304928 0)
(-0.175478 -0.389933 0)
(-0.166187 -0.451286 0)
(-0.129865 -0.453678 0)
(-0.0663162 -0.353414 0)
(-0.0131497 -0.137288 0)
(-0.00198994 0.040382 0)
(-0.0104395 0.0974528 0)
(-0.0236624 0.132383 0)
(-0.036142 0.150874 0)
(-0.0463403 0.158551 0)
(-0.0539132 0.1598 0)
(-0.0589524 0.157704 0)
(-0.0617413 0.15428 0)
(-0.0625932 0.150759 0)
(-0.0617854 0.147814 0)
(-0.0595546 0.145712 0)
(-0.0561154 0.144384 0)
(-0.0516917 0.143446 0)
(-0.0465529 0.142186 0)
(-0.0410535 0.139553 0)
(-0.0356713 0.134175 0)
(-0.0310361 0.124419 0)
(-0.0279336 0.108524 0)
(-0.0272852 0.0847746 0)
(-0.0300877 0.0516578 0)
(-0.0373026 0.0079558 0)
(-0.0496478 -0.0472751 0)
(-0.0673739 -0.11475 0)
(-0.089834 -0.194708 0)
(-0.114661 -0.285751 0)
(-0.136559 -0.381666 0)
(-0.145911 -0.464907 0)
(-0.128766 -0.497415 0)
(-0.076836 -0.417588 0)
(-0.0187876 -0.17783 0)
(-0.00319354 0.0471571 0)
(-0.0145514 0.110384 0)
(-0.0304971 0.145945 0)
(-0.0438896 0.162315 0)
(-0.0533231 0.166956 0)
(-0.0589033 0.165154 0)
(-0.0611046 0.160328 0)
(-0.0604756 0.154557 0)
(-0.0574898 0.149027 0)
(-0.0525091 0.144349 0)
(-0.0458057 0.140742 0)
(-0.0376036 0.138123 0)
(-0.0281248 0.136136 0)
(-0.0176414 0.134144 0)
(-0.0065253 0.131217 0)
(0.00469712 0.126145 0)
(0.0153053 0.117485 0)
(0.024379 0.103662 0)
(0.0308134 0.0830941 0)
(0.0333744 0.0543145 0)
(0.0307953 0.0160228 0)
(0.0219256 -0.0329723 0)
(0.00586534 -0.0939333 0)
(-0.0177394 -0.168182 0)
(-0.0480379 -0.256572 0)
(-0.0815997 -0.357004 0)
(-0.109889 -0.457438 0)
(-0.116196 -0.522248 0)
(-0.0844239 -0.475919 0)
(-0.0258799 -0.226236 0)
(-0.00556238 0.057232 0)
(-0.02145 0.127022 0)
(-0.0405764 0.161319 0)
(-0.0541081 0.17346 0)
(-0.0613237 0.173431 0)
(-0.0632221 0.167473 0)
(-0.0609059 0.15921 0)
(-0.0553164 0.150638 0)
(-0.0471558 0.142794 0)
(-0.0369093 0.136152 0)
(-0.0249051 0.13084 0)
(-0.0113856 0.126741 0)
(0.00343224 0.123513 0)
(0.0192924 0.120597 0)
(0.0358347 0.1172 0)
(0.05254 0.112296 0)
(0.0686779 0.104663 0)
(0.0832869 0.0929479 0)
(0.0951856 0.0757551 0)
(0.103015 0.0517284 0)
(0.105311 0.0195786 0)
(0.100595 -0.0219952 0)
(0.0874771 -0.0744969 0)
(0.0647559 -0.139822 0)
(0.0317467 -0.220358 0)
(-0.010562 -0.317813 0)
(-0.0565633 -0.427493 0)
(-0.0889859 -0.521969 0)
(-0.0858109 -0.520112 0)
(-0.0335005 -0.28156 0)
(-0.0102647 0.0733268 0)
(-0.0329904 0.14865 0)
(-0.054561 0.177891 0)
(-0.0656016 0.182583 0)
(-0.0672968 0.175803 0)
(-0.0622238 0.164537 0)
(-0.0524199 0.152288 0)
(-0.0393421 0.140727 0)
(-0.0239613 0.130578 0)
(-0.00688738 0.122082 0)
(0.0115138 0.115216 0)
(0.0310103 0.109785 0)
(0.0514211 0.105445 0)
(0.0725499 0.1017 0)
(0.0941073 0.0978885 0)
(0.115648 0.0931774 0)
(0.136517 0.0865758 0)
(0.155811 0.0769771 0)
(0.172379 0.063212 0)
(0.184841 0.044101 0)
(0.191618 0.0184682 0)
(0.191001 -0.0149487 0)
(0.181213 -0.057626 0)
(0.160375 -0.111576 0)
(0.126603 -0.17985 0)
(0.0784835 -0.26685 0)
(0.0172569 -0.375457 0)
(-0.042186 -0.491203 0)
(-0.076137 -0.540291 0)
(-0.0392676 -0.341461 0)
(-0.0193673 0.100354 0)
(-0.0513868 0.175471 0)
(-0.0701926 0.192727 0)
(-0.0714097 0.185429 0)
(-0.0605552 0.169653 0)
(-0.0425605 0.152339 0)
(-0.0205535 0.136182 0)
(0.0035709 0.122116 0)
(0.0287189 0.110324 0)
(0.0543113 0.100687 0)
(0.0800765 0.0929647 0)
(0.105908 0.0868435 0)
(0.131761 0.0819545 0)
(0.157581 0.0778519 0)
(0.183223 0.0739954 0)
(0.20839 0.0697375 0)
(0.232578 0.0643227 0)
(0.255028 0.0569064 0)
(0.274706 0.0465819 0)
(0.29031 0.0324091 0)
(0.300221 0.0134302 0)
(0.302596 -0.0114045 0)
(0.295369 -0.0433179 0)
(0.276145 -0.0841117 0)
(0.242126 -0.136697 0)
(0.190169 -0.206595 0)
(0.117533 -0.302602 0)
(0.0328848 -0.426668 0)
(-0.0480203 -0.526342 0)
(-0.0383601 -0.400615 0)
(-0.0345867 0.144203 0)
(-0.0735278 0.200178 0)
(-0.0696263 0.194583 0)
(-0.044306 0.170942 0)
(-0.00894252 0.145758 0)
(0.0298871 0.12376 0)
(0.0689176 0.105687 0)
(0.106684 0.0911772 0)
(0.14262 0.0796573 0)
(0.17664 0.0705819 0)
(0.208896 0.0634806 0)
(0.239629 0.0579388 0)
(0.269085 0.0535724 0)
(0.297453 0.0499961 0)
(0.324804 0.0467965 0)
(0.351045 0.043514 0)
(0.375861 0.0396347 0)
(0.398679 0.0345947 0)
(0.418632 0.0277902 0)
(0.434567 0.0185846 0)
(0.444944 0.00629058 0)
(0.447967 -0.00975775 0)
(0.441388 -0.0303588 0)
(0.422509 -0.0568522 0)
(0.38792 -0.0914715 0)
(0.333698 -0.139176 0)
(0.2536 -0.210941 0)
(0.149847 -0.325703 0)
(0.0134994 -0.466141 0)
(-0.0176421 -0.441389 0)
(-0.0375025 0.23608 0)
(-0.047425 0.203926 0)
(0.0280867 0.153416 0)
(0.1001 0.117502 0)
(0.167176 0.0907584 0)
(0.22724 0.071063 0)
(0.279976 0.0568083 0)
(0.326127 0.0464401 0)
(0.366727 0.0387955 0)
(0.402784 0.033102 0)
(0.435184 0.02884 0)
(0.464674 0.0256317 0)
(0.491855 0.0231792 0)
(0.51717 0.0212237 0)
(0.540893 0.0195195 0)
(0.563103 0.0178157 0)
(0.583653 0.0158477 0)
(0.602145 0.0133366 0)
(0.6179 0.00999563 0)
(0.62993 0.0055418 0)
(0.636952 -0.000309628 0)
(0.637515 -0.00784841 0)
(0.629462 -0.0175517 0)
(0.610329 -0.0300266 0)
(0.576496 -0.0463911 0)
(0.524227 -0.0698444 0)
(0.443771 -0.108411 0)
(0.333914 -0.18896 0)
(0.143259 -0.336329 0)
(0.0605284 -0.413008 0)
(0.231291 0.158584 0)
(0.291493 0.117145 0)
(0.441103 0.0759654 0)
(0.540015 0.0506305 0)
(0.607048 0.0342808 0)
(0.656472 0.0234984 0)
(0.694426 0.0164828 0)
(0.724263 0.0119338 0)
(0.748325 0.0089492 0)
(0.768274 0.00696165 0)
(0.785257 0.00562283 0)
(0.80007 0.00471071 0)
(0.813273 0.00407517 0)
(0.825243 0.00360671 0)
(0.836198 0.00321734 0)
(0.846202 0.00282898 0)
(0.855167 0.00236711 0)
(0.862846 0.00175859 0)
(0.868829 0.000934467 0)
(0.872554 -0.000164595 0)
(0.873268 -0.00155381 0)
(0.870051 -0.00328434 0)
(0.861701 -0.00554561 0)
(0.847109 -0.00844535 0)
(0.82378 -0.0121774 0)
(0.789979 -0.0177295 0)
(0.734116 -0.0272401 0)
(0.656577 -0.0492243 0)
(0.454363 -0.110185 0)
(0.313224 -0.177544 0)
)
;

boundaryField
{
    movingWall
    {
        type            fixedValue;
        value           uniform (1 0 0);
    }
    fixedWalls
    {
        type            noSlip;
    }
    frontAndBack
    {
        type            empty;
    }
}


// ************************************************************************* //
