/*--------------------------------*- C++ -*----------------------------------*\
  =========                 |
  \\      /  F ield         | OpenFOAM: The Open Source CFD Toolbox
   \\    /   O peration     | Website:  https://openfoam.org
    \\  /    A nd           | Version:  7
     \\/     M anipulation  |
\*---------------------------------------------------------------------------*/
FoamFile
{
    version     2.0;
    format      ascii;
    class       surfaceScalarField;
    location    "3.1";
    object      phi;
}
// * * * * * * * * * * * * * * * * * * * * * * * * * * * * * * * * * * * * * //

dimensions      [0 3 -1 0 0 0 0];

internalField   nonuniform List<scalar> 
1740
(
2.76688e-07
-2.76688e-07
-7.85364e-07
1.06205e-06
-3.19262e-06
2.40726e-06
-6.56884e-06
3.37622e-06
-1.05239e-05
3.95504e-06
-1.47421e-05
4.21819e-06
-1.89969e-05
4.25485e-06
-2.31347e-05
4.13774e-06
-2.70497e-05
3.91506e-06
-3.06634e-05
3.61366e-06
-3.39087e-05
3.24529e-06
-3.67212e-05
2.81251e-06
-3.90347e-05
2.31354e-06
-4.07803e-05
1.74562e-06
-4.18879e-05
1.10752e-06
-4.22892e-05
4.01331e-07
-4.19232e-05
-3.65999e-07
-4.07419e-05
-1.18132e-06
-3.87183e-05
-2.02359e-06
-3.58555e-05
-2.86283e-06
-3.21965e-05
-3.65892e-06
-2.78357e-05
-4.36088e-06
-2.29287e-05
-4.90695e-06
-1.77029e-05
-5.22582e-06
-1.24635e-05
-5.23935e-06
-7.59471e-06
-4.86882e-06
-3.54376e-06
-4.05095e-06
-7.71347e-07
-2.77242e-06
3.68848e-07
-1.1402e-06
3.68842e-07
-1.05989e-06
7.83198e-07
-5.00435e-06
5.00652e-06
-1.15902e-05
8.99308e-06
-2.01506e-05
1.19366e-05
-2.99642e-05
1.37686e-05
-4.03914e-05
1.46454e-05
-5.09239e-05
1.47874e-05
-6.11804e-05
1.43942e-05
-7.08771e-05
1.36117e-05
-7.97938e-05
1.25304e-05
-8.77461e-05
1.11976e-05
-9.45657e-05
9.63212e-06
-0.00010009
7.83799e-06
-0.000104159
5.81494e-06
-0.000106618
3.56644e-06
-0.000107322
1.10538e-06
-0.00010615
-1.53849e-06
-0.000103012
-4.31921e-06
-9.78727e-05
-7.16297e-06
-9.07662e-05
-9.96929e-06
-8.18192e-05
-1.26059e-05
-7.12727e-05
-1.49074e-05
-5.95023e-05
-1.66774e-05
-4.70333e-05
-1.76948e-05
-3.45435e-05
-1.77291e-05
-2.28447e-05
-1.65676e-05
-1.28272e-05
-1.40684e-05
-5.35036e-06
-1.02493e-05
-1.06573e-06
-5.42484e-06
-6.96889e-07
-2.49284e-06
3.27604e-06
-9.28483e-06
1.17985e-05
-1.9558e-05
1.92663e-05
-3.23768e-05
2.47554e-05
-4.68005e-05
2.81923e-05
-6.19958e-05
2.98407e-05
-7.7283e-05
3.00746e-05
-9.21332e-05
2.92445e-05
-0.000106139
2.76175e-05
-0.000118977
2.53687e-05
-0.000130376
2.25967e-05
-0.000140092
1.93481e-05
-0.000147895
1.56408e-05
-0.000153564
1.14839e-05
-0.00015689
6.89211e-06
-0.000157683
1.89887e-06
-0.000155786
-3.43568e-06
-0.000151092
-9.01285e-06
-0.000143568
-1.46872e-05
-0.000133278
-2.02598e-05
-0.000120412
-2.5472e-05
-0.000105315
-3.00037e-05
-8.85137e-05
-3.34789e-05
-7.0726e-05
-3.54825e-05
-5.28624e-05
-3.55928e-05
-3.59916e-05
-3.34384e-05
-2.12682e-05
-2.87918e-05
-9.81182e-06
-2.17057e-05
-2.53236e-06
-1.27043e-05
-3.22925e-06
-3.67181e-06
6.94786e-06
-1.29199e-05
2.10466e-05
-2.6352e-05
3.26984e-05
-4.27059e-05
4.11093e-05
-6.0842e-05
4.63283e-05
-7.97866e-05
4.87853e-05
-9.87497e-05
4.90377e-05
-0.000117111
4.76054e-05
-0.000134384
4.48907e-05
-0.000150179
4.11641e-05
-0.000164167
3.65844e-05
-0.000176051
3.12323e-05
-0.000185555
2.5145e-05
-0.000192416
1.83449e-05
-0.000196387
1.08622e-05
-0.000197243
2.75505e-06
-0.0001948
-5.87826e-06
-0.000188936
-1.48774e-05
-0.000179612
-2.40111e-05
-0.000166909
-3.29629e-05
-0.000151058
-4.13228e-05
-0.000132476
-4.85859e-05
-0.000111791
-5.41636e-05
-8.98599e-05
-5.74135e-05
-6.77582e-05
-5.76945e-05
-4.67419e-05
-5.44548e-05
-2.81714e-05
-4.73623e-05
-1.34005e-05
-3.64767e-05
-3.65375e-06
-2.2451e-05
-6.883e-06
-4.57807e-06
1.15259e-05
-1.58443e-05
3.23129e-05
-3.19121e-05
4.87662e-05
-5.12014e-05
6.03986e-05
-7.23785e-05
6.75055e-05
-9.43494e-05
7.07561e-05
-0.000116244
7.09319e-05
-0.000137382
6.87436e-05
-0.000157232
6.47408e-05
-0.000175364
5.9296e-05
-0.000191411
5.2632e-05
-0.000205045
4.48663e-05
-0.000215956
3.60559e-05
-0.000223847
2.62363e-05
-0.000228438
1.5453e-05
-0.000229471
3.78826e-06
-0.00022673
-8.61948e-06
-0.000220062
-2.15453e-05
-0.000209411
-3.46626e-05
-0.000194851
-4.75231e-05
-0.00017663
-5.95433e-05
-0.000155212
-7.00044e-05
-0.000131304
-7.80713e-05
-0.000105879
-8.28381e-05
-8.01636e-05
-8.34103e-05
-5.55921e-05
-7.90263e-05
-3.37313e-05
-6.9223e-05
-1.61758e-05
-5.40322e-05
-4.45018e-06
-3.41767e-05
-1.13332e-05
-5.27083e-06
1.67968e-05
-1.81833e-05
4.52253e-05
-3.64558e-05
6.70387e-05
-5.82227e-05
8.21655e-05
-8.19665e-05
9.12492e-05
-0.000106481
9.52711e-05
-0.000130831
9.52818e-05
-0.000154297
9.22089e-05
-0.000176318
8.67624e-05
-0.000196445
7.94226e-05
-0.00021429
7.04776e-05
-0.000229504
6.00797e-05
-0.00024175
4.83026e-05
-0.000250704
3.519e-05
-0.000256048
2.07966e-05
-0.000257482
5.22285e-06
-0.000254744
-1.13579e-05
-0.000247632
-2.86577e-05
-0.000236044
-4.62506e-05
-0.000220023
-6.35433e-05
-0.000199811
-7.97562e-05
-0.000175893
-9.39219e-05
-0.00014905
-0.000104914
-0.000120374
-0.000111514
-9.12587e-05
-0.000112526
-6.33489e-05
-0.000106936
-3.84495e-05
-9.41224e-05
-1.84124e-05
-7.40693e-05
-5.03107e-06
-4.75579e-05
-1.63643e-05
-5.82712e-06
2.26239e-05
-2.01285e-05
5.95267e-05
-4.03081e-05
8.72183e-05
-6.42497e-05
0.000106107
-9.02647e-05
0.000117264
-0.000117042
0.000122049
-0.000143588
0.000121828
-0.000169153
0.000117774
-0.000193164
0.000110773
-0.00021516
0.000101419
-0.000234748
9.00649e-05
-0.000251562
7.68934e-05
-0.000265246
6.19873e-05
-0.000275445
4.53888e-05
-0.000281798
2.71496e-05
-0.000283951
7.37582e-06
-0.000281573
-1.37364e-05
-0.000274385
-3.58448e-05
-0.000262212
-5.84244e-05
-0.000245028
-8.07264e-05
-0.000223037
-0.000101748
-0.00019673
-0.000120229
-0.000166953
-0.00013469
-0.000134938
-0.000143529
-0.000102288
-0.000145176
-7.09127e-05
-0.000138311
-4.29133e-05
-0.000122122
-2.0432e-05
-9.65505e-05
-5.51224e-06
-6.24777e-05
-2.18765e-05
-6.3165e-06
2.89404e-05
-2.18707e-05
7.50809e-05
-4.38003e-05
0.000109148
-6.97639e-05
0.000132071
-9.79123e-05
0.000145413
-0.000126835
0.000150972
-0.000155485
0.000150477
-0.00018309
0.000145379
-0.000209073
0.000136756
-0.000232975
0.00012532
-0.000254399
0.000111489
-0.000272976
9.54701e-05
-0.000288331
7.73431e-05
-0.000300077
5.71342e-05
-0.000307801
3.48741e-05
-0.00031108
1.06541e-05
-0.000309489
-1.53272e-05
-0.000302642
-4.26919e-05
-0.000290243
-7.08229e-05
-0.000272161
-9.88085e-05
-0.000248516
-0.000125393
-0.000219778
-0.000148967
-0.000186853
-0.000167616
-0.000151134
-0.000179248
-0.000114492
-0.000181818
-7.91879e-05
-0.000173616
-4.77043e-05
-0.000153605
-2.25373e-05
-0.000121717
-5.98896e-06
-7.90261e-05
-2.78655e-05
-6.79294e-06
3.57333e-05
-2.35699e-05
9.18579e-05
-4.72186e-05
0.000132797
-7.51824e-05
0.000160035
-0.000105457
0.000175687
-0.000136535
0.00018205
-0.00016732
0.000181263
-0.000197027
0.000175086
-0.00022508
0.000164809
-0.00025103
0.00015127
-0.000274491
0.000134951
-0.000295094
0.000116073
-0.000312452
9.47009e-05
-0.000326143
7.08254e-05
-0.0003357
4.4431e-05
-0.00034061
1.55648e-05
-0.000340335
-1.56028e-05
-0.000334336
-4.86907e-05
-0.000322152
-8.30067e-05
-0.000303483
-0.000117478
-0.000278308
-0.000150568
-0.000247027
-0.000180248
-0.000210584
-0.000204058
-0.000170557
-0.000219275
-0.000129156
-0.000223219
-8.9104e-05
-0.000213668
-5.34013e-05
-0.000189308
-2.5008e-05
-0.000150111
-6.53642e-06
-9.74977e-05
-3.44019e-05
-7.29553e-06
4.30289e-05
-2.53493e-05
0.000109912
-5.07885e-05
0.000158236
-8.0836e-05
0.000190082
-0.000113328
0.00020818
-0.000146663
0.000215385
-0.000179701
0.0002143
-0.000211646
0.000207031
-0.000241936
0.000195099
-0.000270146
0.00017948
-0.000295908
0.000160713
-0.000318866
0.000139031
-0.00033863
0.000114464
-0.000354749
8.69453e-05
-0.0003667
5.63811e-05
-0.00037387
2.27351e-05
-0.000375579
-1.38932e-05
-0.000371097
-5.31734e-05
-0.000359732
-9.43713e-05
-0.000340938
-0.000136272
-0.000314467
-0.000177039
-0.000280563
-0.000214152
-0.000240157
-0.000244464
-0.000195013
-0.000264419
-0.000147757
-0.000270475
-0.000101734
-0.000259691
-6.06583e-05
-0.000230383
-2.81427e-05
-0.000182626
-7.22446e-06
-0.000118416
-4.16263e-05
-7.85197e-06
5.08808e-05
-2.72999e-05
0.00012936
-5.46797e-05
0.000185616
-8.69725e-05
0.000222375
-0.000121846
0.000243053
-0.000157599
0.000251138
-0.000193053
0.000249753
-0.000227413
0.000241391
-0.000260141
0.000227828
-0.000290849
0.000210187
-0.000319206
0.000189071
-0.000344885
0.000164709
-0.000367508
0.000137087
-0.000386612
0.00010605
-0.000401621
7.139e-05
-0.000411823
3.2937e-05
-0.000416384
-9.33218e-06
-0.000414324
-5.52339e-05
-0.000404658
-0.000104036
-0.00038649
-0.00015444
-0.000359215
-0.000204315
-0.000322784
-0.000250583
-0.000278001
-0.000289247
-0.000226774
-0.000315646
-0.000172218
-0.000325031
-0.000118497
-0.000313412
-7.03454e-05
-0.000278535
-3.2334e-05
-0.000220638
-8.14073e-06
-0.000142609
-4.97671e-05
-8.4827e-06
5.93635e-05
-2.94911e-05
0.000150368
-5.90208e-05
0.000215145
-9.37772e-05
0.000257131
-0.00013124
0.000280516
-0.000169605
0.000289503
-0.000207656
0.000287805
-0.000244612
0.000278347
-0.000279977
0.000263193
-0.000313416
0.000243625
-0.000344658
0.000220313
-0.000373429
0.00019348
-0.000399391
0.000163049
-0.000422094
0.000128754
-0.000440934
9.02293e-05
-0.000455103
4.71058e-05
-0.000463632
-8.02352e-07
-0.000465224
-5.36427e-05
-0.000458546
-0.000110714
-0.000442215
-0.000170771
-0.000415087
-0.000231443
-0.000376606
-0.000289064
-0.000327237
-0.000338615
-0.0002689
-0.000373984
-0.000205225
-0.000388706
-0.000141446
-0.000377191
-8.3751e-05
-0.00033623
-3.81758e-05
-0.000266213
-9.42247e-06
-0.000171362
-5.91895e-05
-9.20528e-06
6.85688e-05
-3.19821e-05
0.000173145
-6.39194e-05
0.000247083
-0.000101398
0.00029461
-0.000141684
0.000320801
-0.00018286
0.000330679
-0.000223682
0.000328626
-0.000263393
0.000318058
-0.000301557
0.000301357
-0.000337918
0.000279986
-0.000372295
0.00025469
-0.000404499
0.000225684
-0.000434271
0.000192821
-0.000461217
0.0001557
-0.00048475
0.000113762
-0.000504023
6.63787e-05
-0.000517838
1.30126e-05
-0.000524749
-4.67314e-05
-0.000522891
-0.000112572
-0.000510263
-0.000183398
-0.000484947
-0.000256759
-0.000445556
-0.000328456
-0.000391864
-0.000392307
-0.000325511
-0.000440337
-0.000250566
-0.000463651
-0.000173587
-0.00045417
-0.000102834
-0.000406983
-4.66026e-05
-0.000322444
-1.1298e-05
-0.000206667
-7.04875e-05
-1.00389e-05
7.86077e-05
-3.48353e-05
0.000197941
-6.94833e-05
0.000281731
-0.000109976
0.000335103
-0.000153329
0.000364155
-0.000197506
0.000374856
-0.000241235
0.000372356
-0.000283805
0.000360628
-0.000324862
0.000342414
-0.000364258
0.000319383
-0.000401933
0.000292365
-0.000437829
0.00026158
-0.000471815
0.000226807
-0.000503617
0.000187502
-0.000532727
0.000142873
-0.000558317
9.19686e-05
-0.000579114
3.38088e-05
-0.000593393
-3.24522e-05
-0.0005988
-0.000107165
-0.000592561
-0.000189638
-0.000571689
-0.000277631
-0.000533533
-0.000366612
-0.00047663
-0.000449209
-0.000401819
-0.000515148
-0.000313307
-0.000552164
-0.000219154
-0.000548323
-0.000130473
-0.000495664
-5.9045e-05
-0.000393872
-1.41348e-05
-0.000251577
-8.46223e-05
-1.10092e-05
8.96169e-05
-3.81299e-05
0.000225062
-7.58442e-05
0.000319445
-0.000119673
0.000378931
-0.000166339
0.000410821
-0.000213672
0.000422188
-0.000260387
0.000419071
-0.000305834
0.000406076
-0.000349771
0.000386351
-0.000392187
0.000361798
-0.000433182
0.00033336
-0.000472875
0.000301273
-0.000511329
0.000265261
-0.000548463
0.000224636
-0.000583952
0.000178362
-0.000617093
0.000125109
-0.000646632
6.33488e-05
-0.000670675
-8.41e-06
-0.000686362
-9.14771e-05
-0.000690047
-0.000185953
-0.000677379
-0.000290299
-0.000643918
-0.000400073
-0.000586233
-0.000506895
-0.000503527
-0.000597853
-0.000399488
-0.000656203
-0.000283583
-0.000664228
-0.000170612
-0.000608635
-7.75627e-05
-0.000486922
-1.84877e-05
-0.000310652
-0.00010311
-1.21546e-05
0.000101771
-4.19795e-05
0.000254887
-8.31834e-05
0.000360649
-0.000130704
0.000426452
-0.00018092
0.000461036
-0.000231515
0.000472783
-0.000281204
0.000468761
-0.000329426
0.000454297
-0.000376073
0.000432998
-0.000421309
0.000407033
-0.000465428
0.000377479
-0.000508775
0.000344621
-0.00055167
0.000308155
-0.000594315
0.000267281
-0.000636683
0.000220729
-0.000678342
0.000166768
-0.000718228
0.000103235
-0.000754353
2.77152e-05
-0.000783585
-6.22456e-05
-0.000801302
-0.000168236
-0.000801582
-0.000290019
-0.000777691
-0.000423964
-0.000723385
-0.000561201
-0.000635111
-0.000686128
-0.000514874
-0.000776439
-0.000372868
-0.000806234
-0.000228098
-0.000753404
-0.000104898
-0.000610122
-2.51386e-05
-0.000390411
-0.000128249
-1.35344e-05
0.000115306
-4.65535e-05
0.000287906
-9.17638e-05
0.000405859
-0.000143374
0.000478063
-0.000197355
0.000515016
-0.00025124
0.000526669
-0.000303767
0.000521288
-0.000354489
0.000505019
-0.00040347
0.000481979
-0.000451065
0.000454629
-0.000497799
0.000424212
-0.000544278
0.0003911
-0.000591131
0.000355008
-0.000638926
0.000315076
-0.000688048
0.000269851
-0.000738492
0.000217213
-0.000789575
0.000154318
-0.000839491
7.76318e-05
-0.000884963
-1.67736e-05
-0.000920593
-0.000132607
-0.000938868
-0.000271743
-0.000930456
-0.000432376
-0.00088557
-0.000606087
-0.000796652
-0.000775046
-0.000662329
-0.000910762
-0.000491866
-0.000976698
-0.000307986
-0.000937284
-0.000144385
-0.000773723
-3.51391e-05
-0.000499657
-0.000163388
-1.52421e-05
0.000130548
-5.21081e-05
0.000324772
-0.00010197
0.000455721
-0.000158113
0.000534206
-0.000216031
0.000572934
-0.000273117
0.000583755
-0.000328164
0.000576335
-0.000380882
0.000557737
-0.000431529
0.000532626
-0.000480678
0.000503778
-0.000529089
0.000472623
-0.000577644
0.000439656
-0.000627306
0.00040467
-0.000679053
0.000366823
-0.000733761
0.000324558
-0.000791987
0.000275439
-0.000853617
0.000215947
-0.000917341
0.000141356
-0.000979976
4.58609e-05
-0.0010358
-7.67845e-05
-0.00107605
-0.000231492
-0.00108896
-0.000419463
-0.00106096
-0.000634086
-0.000979501
-0.000856508
-0.000837806
-0.00105246
-0.000641328
-0.00117318
-0.000414048
-0.00116456
-0.000199653
-0.000988117
-4.98859e-05
-0.000649425
-0.000213274
-1.74267e-05
0.000147975
-5.90332e-05
0.000366379
-0.000114362
0.00051105
-0.000175518
0.000595363
-0.000237456
0.000634872
-0.000297461
0.00064376
-0.000354447
0.000633321
-0.00040833
0.00061162
-0.000459592
0.000583887
-0.000509024
0.00055321
-0.000557612
0.000521211
-0.00060649
0.000488534
-0.000656925
0.000455106
-0.000710285
0.000420183
-0.000767942
0.000382215
-0.000831064
0.000338561
-0.00090024
0.000285124
-0.000974893
0.000216009
-0.00105247
0.000123441
-0.00112735
-1.91016e-06
-0.00119056
-0.000168285
-0.00122872
-0.000381299
-0.00122517
-0.000637635
-0.00116219
-0.000919492
-0.00102582
-0.00118882
-0.000813829
-0.00138517
-0.000546246
-0.00143215
-0.000273929
-0.00126043
-7.12484e-05
-0.000852105
-0.000284522
-2.03307e-05
0.000168305
-6.79251e-05
0.000413973
-0.000129747
0.000572872
-0.000196395
0.00066201
-0.000262245
0.000700723
-0.000324568
0.000706083
-0.000382503
0.000691256
-0.000436247
0.000665364
-0.000486536
0.000634177
-0.000534376
0.00060105
-0.000580935
0.00056777
-0.000627532
0.000535131
-0.000675651
0.000503224
-0.000726941
0.000471473
-0.000783163
0.000438437
-0.000846019
0.000401417
-0.000916811
0.000355916
-0.00099586
0.000295058
-0.00108166
0.000209243
-0.0011699
8.63322e-05
-0.00125186
-8.63306e-05
-0.00131508
-0.000318082
-0.0013414
-0.000611312
-0.0013091
-0.000951794
-0.00119644
-0.00130147
-0.000989601
-0.00159201
-0.000697024
-0.00172472
-0.000368477
-0.00158898
-0.000101638
-0.00111894
-0.000386161
-2.43629e-05
0.000192668
-7.97088e-05
0.000469319
-0.00014928
0.000642443
-0.000221773
0.000734502
-0.000291038
0.000769988
-0.000354519
0.000769563
-0.000411758
0.000748495
-0.000463347
0.000716953
-0.000510321
0.00068115
-0.000553887
0.000644616
-0.000595345
0.000609228
-0.000636102
0.000575888
-0.000677716
0.000544838
-0.000721933
0.000515691
-0.000770687
0.000487191
-0.000825999
0.000456729
-0.000889736
0.000419653
-0.000963152
0.000368474
-0.00104618
0.00029227
-0.00113668
0.000176837
-0.00122732
4.30925e-06
-0.00130977
-0.000235636
-0.0013665
-0.000554581
-0.0013748
-0.000943495
-0.00130663
-0.00136964
-0.00113457
-0.00176407
-0.000847353
-0.00201194
-0.000479683
-0.00195665
-0.000143678
-0.00145495
-0.000529839
-3.02425e-05
0.000222911
-9.58423e-05
0.000534919
-0.000174587
0.000721188
-0.000252873
0.000812788
-0.000324265
0.00084138
-0.000386752
0.00083205
-0.00044057
0.000802313
-0.000486875
0.000763258
-0.000527079
0.000721355
-0.000562605
0.000680142
-0.000594843
0.000641466
-0.000625193
0.000606238
-0.000655138
0.000574782
-0.000686309
0.000546862
-0.000720537
0.000521419
-0.000759849
0.000496041
-0.00080638
0.000466184
-0.000862145
0.000424238
-0.000928599
0.000358725
-0.00100582
0.000254061
-0.00109286
9.13469e-05
-0.00118176
-0.000146739
-0.00126249
-0.000473844
-0.00131487
-0.000891123
-0.00130844
-0.00137607
-0.00120383
-0.00186868
-0.000965033
-0.00225074
-0.000595255
-0.00232643
-0.000198958
-0.00185125
-0.000728797
-3.92929e-05
0.000262204
-0.000118662
0.000614287
-0.000207887
0.000810413
-0.000290877
0.000895778
-0.000361556
0.00091206
-0.00041913
0.000889624
-0.000464986
0.000848169
-0.000501106
0.000799379
-0.000529424
0.000749672
-0.000551639
0.000702357
-0.000569243
0.00065907
-0.000583591
0.000620585
-0.000595989
0.00058718
-0.00060779
0.000558663
-0.000620488
0.000534117
-0.000635822
0.000511375
-0.000655866
0.000486228
-0.000683086
0.000451458
-0.000720284
0.000395922
-0.000770377
0.000304155
-0.000836069
0.000157039
-0.000916808
-6.6e-05
-0.00100897
-0.000381678
-0.0010997
-0.000800399
-0.00116234
-0.00131343
-0.00115176
-0.00187926
-0.0010086
-0.0023939
-0.000691801
-0.00264323
-0.000265553
-0.00227749
-0.00099435
-5.40376e-05
0.000316241
-0.000151911
0.000712161
-0.00025195
0.000910453
-0.000336162
0.00097999
-0.000400287
0.000976185
-0.00044589
0.000935226
-0.000476202
0.000878482
-0.000494433
0.00081761
-0.000503262
0.000758501
-0.000504812
0.000703908
-0.000500759
0.000655018
-0.000492448
0.000612274
-0.000480999
0.000575732
-0.000467427
0.00054509
-0.00045277
0.000519461
-0.000438289
0.000496894
-0.000425719
0.000473658
-0.00041759
0.000443329
-0.000417538
0.000395871
-0.000430544
0.00031716
-0.000463027
0.000189522
-0.000521223
-7.80411e-06
-0.00060911
-0.000293791
-0.000724045
-0.000685463
-0.000849667
-0.00118781
-0.000944986
-0.00178394
-0.000936644
-0.00240224
-0.000736275
-0.0028436
-0.000334692
-0.00267908
-0.00132904
-7.93533e-05
0.000395595
-0.000201315
0.000834122
-0.000309171
0.00101831
-0.00038583
0.00105665
-0.000431802
0.00102216
-0.000452865
0.000956289
-0.000455104
0.000880721
-0.000443493
0.000805999
-0.000421768
0.000736776
-0.000392648
0.000674788
-0.000358093
0.000620462
-0.000319493
0.000573674
-0.000277815
0.000534053
-0.000233747
0.000501022
-0.000187872
0.000473587
-0.000140918
0.00044994
-9.41306e-05
0.000426871
-4.98123e-05
0.000399011
-1.20156e-05
0.000358074
1.29465e-05
0.000292198
1.68027e-05
0.000185666
-1.11396e-05
2.01382e-05
-8.12282e-05
-0.000223702
-0.000202711
-0.000563981
-0.000374066
-0.00101645
-0.000569262
-0.00158874
-0.000716667
-0.00225483
-0.000691083
-0.00286918
-0.000388157
-0.002982
-0.0017172
-0.000124502
0.000520097
-0.000274046
0.000983666
-0.000376935
0.0011212
-0.000425684
0.0011054
-0.000431026
0.0010275
-0.000405733
0.000930995
-0.000359996
0.000834985
-0.000301068
0.00074707
-0.000233886
0.000669594
-0.000161714
0.000602616
-8.66813e-05
0.000545429
-1.00942e-05
0.000497087
6.73243e-05
0.000456635
0.000145261
0.000423086
0.000223602
0.000395245
0.000302152
0.000371391
0.000380219
0.000348804
0.000456035
0.000323195
0.000526026
0.000288083
0.000583955
0.000234269
0.000619968
0.000149652
0.000620096
2.00102e-05
0.000569478
-0.000173084
0.000451264
-0.000445767
0.000253036
-0.000818225
-2.08806e-05
-0.00131483
-0.000323574
-0.00195214
-0.00051759
-0.00267517
-0.000400717
-0.00309888
-0.00211792
-0.000206083
0.00072618
-0.000370076
0.00114766
-0.000427905
0.00117903
-0.000403739
0.00108123
-0.000327193
0.000950953
-0.000220934
0.000824737
-9.95741e-05
0.000713624
2.79268e-05
0.000619569
0.000156361
0.00054116
0.000282768
0.000476209
0.000405652
0.000422546
0.000524417
0.000378322
0.000639058
0.000341994
0.000749927
0.000312216
0.000857526
0.000287647
0.000962229
0.000266688
0.00106389
0.000247142
0.00116128
0.0002258
0.00125136
0.000198006
0.00132833
0.000157306
0.0013826
9.53745e-05
0.00139907
3.53938e-06
0.00136176
-0.000135767
0.00124789
-0.000331905
0.00103407
-0.000604399
0.000702004
-0.000982764
0.000265392
-0.00151553
-0.000167854
-0.00224192
-0.000332649
-0.00293408
-0.00245056
-0.000337424
0.0010636
-0.000422448
0.00123268
-0.000331005
0.00108758
-0.00014823
0.000898457
7.05222e-05
0.000732201
0.000297066
0.000598193
0.00051738
0.00049331
0.000725331
0.000411618
0.000918789
0.000347702
0.00109765
0.000297349
0.00126277
0.000257431
0.00141545
0.000225638
0.00155721
0.000200237
0.00168957
0.000179855
0.00181393
0.000163288
0.00193133
0.000149283
0.00204216
0.000136316
0.00214562
0.000122336
0.00223913
0.000104494
0.00231751
7.89281e-05
0.00237178
4.11083e-05
0.0023896
-1.42804e-05
0.00235119
-9.736e-05
0.00223362
-0.00021434
0.00200755
-0.000378327
0.00163897
-0.000614179
0.00109804
-0.0009746
0.00043762
-0.0015815
-6.64526e-05
-0.00243001
-0.00251702
-0.000297877
0.00136148
-3.85303e-05
0.000973337
0.000398074
0.000650979
0.000823431
0.000473099
0.00120623
0.000349399
0.00154232
0.000262108
0.00183431
0.00020132
0.00208743
0.000158494
0.00230755
0.00012759
0.00250008
0.000104816
0.00266973
8.77747e-05
0.0028205
7.48729e-05
0.00295572
6.50116e-05
0.00307819
5.73921e-05
0.0031901
5.13732e-05
0.00329303
4.63508e-05
0.0033877
4.16488e-05
0.00347362
3.642e-05
0.00354855
2.95661e-05
0.00360773
1.97476e-05
0.00364332
5.51196e-06
0.00364595
-1.69066e-05
0.00359706
-4.84672e-05
0.00347461
-9.18963e-05
0.00324923
-0.000152944
0.0028794
-0.000244351
0.00230472
-0.000399924
0.00147392
-0.000750699
0.000498927
-0.00145502
-0.00201809
0.00136148
0.00233482
0.0029858
0.0034589
0.00380829
0.0040704
0.00427172
0.00443022
0.00455781
0.00466262
0.0047504
0.00482527
0.00489028
0.00494767
0.00499905
0.0050454
0.00508705
0.00512347
0.00515303
0.00517278
0.00517829
0.00516139
0.00511292
0.00502102
0.00486808
0.00462373
0.0042238
0.0034731
0.00201809
)
;

boundaryField
{
    movingWall
    {
        type            calculated;
        value           uniform 0;
    }
    fixedWalls
    {
        type            calculated;
        value           uniform 0;
    }
    frontAndBack
    {
        type            empty;
        value           nonuniform 0();
    }
}


// ************************************************************************* //
