/*--------------------------------*- C++ -*----------------------------------*\
  =========                 |
  \\      /  F ield         | OpenFOAM: The Open Source CFD Toolbox
   \\    /   O peration     | Website:  https://openfoam.org
    \\  /    A nd           | Version:  7
     \\/     M anipulation  |
\*---------------------------------------------------------------------------*/
FoamFile
{
    version     2.0;
    format      ascii;
    class       volScalarField;
    location    "9";
    object      p;
}
// * * * * * * * * * * * * * * * * * * * * * * * * * * * * * * * * * * * * * //

dimensions      [0 2 -2 0 0 0 0];

internalField   nonuniform List<scalar> 
900
(
6.54479e-07
-0.000151626
-0.000349533
-0.000529028
-0.000656597
-0.000712241
-0.000688459
-0.000583442
-0.000396933
-0.000128718
0.00022134
0.000652267
0.00116041
0.00173769
0.00237007
0.00303646
0.00370866
0.00435227
0.00492945
0.00540281
0.00574038
0.00592088
0.00593816
0.00580382
0.00554763
0.00521441
0.00485708
0.00454406
0.00433295
0.00428332
0.000151348
-5.01512e-06
-0.000145258
-0.000263912
-0.000340341
-0.000359787
-0.000315858
-0.000205818
-2.81467e-05
0.000218129
0.000533314
0.000916308
0.00136349
0.00186744
0.00241569
0.0029897
0.00356655
0.004117
0.00460976
0.00501429
0.00530491
0.00546519
0.00549152
0.00539501
0.00520124
0.00494774
0.00467898
0.0044367
0.00427363
0.00423074
0.000359253
0.000129907
-1.41089e-05
-0.000117419
-0.000176115
-0.000181071
-0.00012926
-1.9488e-05
0.000149454
0.000378835
0.000669594
0.00102154
0.00143222
0.00189566
0.00240117
0.00293315
0.00346959
0.00398352
0.00444533
0.00482559
0.00509926
0.00525009
0.0052743
0.00518244
0.0049989
0.00475883
0.00450322
0.00427248
0.00410447
0.00403144
0.00055256
0.000236864
6.92176e-05
-3.63887e-05
-9.08034e-05
-9.08348e-05
-3.76756e-05
6.74856e-05
0.000225064
0.000436587
0.000703969
0.00102853
0.00140976
0.00184389
0.00232246
0.00283143
0.00335056
0.0038532
0.00430918
0.0046875
0.00496083
0.00511048
0.00513063
0.00503065
0.00483463
0.00457785
0.00430138
0.0040465
0.00384754
0.0037197
0.000682786
0.000278684
8.13802e-05
-3.43536e-05
-9.21766e-05
-9.41328e-05
-4.54825e-05
5.02107e-05
0.000192578
0.000383534
0.000626263
0.000924053
0.00127886
0.00168968
0.00215066
0.00264951
0.00316788
0.00367841
0.00414913
0.00454557
0.00483577
0.00499618
0.00501686
0.00490476
0.00468366
0.00439044
0.00406911
0.00376522
0.00351371
0.0033144
0.000706509
0.000218211
-1.08192e-05
-0.000141494
-0.000208636
-0.000218782
-0.000180787
-0.000100284
2.17936e-05
0.000187963
0.000402965
0.00067245
0.00100139
0.00139219
0.00184208
0.0023408
0.0028737
0.00341111
0.00391862
0.00435677
0.00468663
0.00487683
0.00491042
0.00478967
0.00453717
0.00419223
0.00380454
0.00342811
0.00310267
0.00281533
0.000588924
2.35559e-05
-0.000236813
-0.000385136
-0.000466149
-0.000490309
-0.000469563
-0.000411239
-0.000316592
-0.000182302
-1.82391e-06
0.000233232
0.000531405
0.000899224
0.00133756
0.00183744
0.00239859
0.00298006
0.0035471
0.00405472
0.00445458
0.00470389
0.00477437
0.00465972
0.00437882
0.00397328
0.0035009
0.00302879
0.00260662
0.00221066
0.000300485
-0.000333722
-0.000623824
-0.00079148
-0.00089044
-0.000934724
-0.000938992
-0.000912002
-0.000855194
-0.000764371
-0.000631053
-0.000443794
-0.000189901
0.000142364
0.000561849
0.00107221
0.00164943
0.00228328
0.00293137
0.00354072
0.00405109
0.0044036
0.00455238
0.00447591
0.00418424
0.0037191
0.00314813
0.00255703
0.00201102
0.0014731
-0.000184767
-0.000879077
-0.00119699
-0.00138566
-0.00150714
-0.00157888
-0.00161806
-0.00163483
-0.00163094
-0.00160151
-0.00153628
-0.00142066
-0.00123719
-0.000967564
-0.000595111
-0.000109007
0.000484971
0.00117487
0.00192178
0.00266869
0.00334212
0.00386184
0.00415564
0.0041762
0.00391505
0.00340813
0.002733
0.0020003
0.00129817
0.000573354
-0.000889376
-0.00163451
-0.00197842
-0.00219038
-0.00234014
-0.00244859
-0.00253553
-0.00261278
-0.00268287
-0.00274086
-0.00277529
-0.00276871
-0.00269849
-0.00253826
-0.00226031
-0.00184065
-0.00126837
-0.000540909
0.000310276
0.00122863
0.00212828
0.00290271
0.00344226
0.00365805
0.0035064
0.00300477
0.00223659
0.00134414
0.000448709
-0.000523125
-0.00183186
-0.0026178
-0.00298616
-0.00322452
-0.00340978
-0.00356644
-0.00371732
-0.00387654
-0.00404838
-0.00422902
-0.00440701
-0.00456296
-0.00466926
-0.00469031
-0.00458424
-0.00430762
-0.00382517
-0.00310951
-0.00217311
-0.00106229
0.000129964
0.00126861
0.00219463
0.00275654
0.0028492
0.00244792
0.00162933
0.000571899
-0.000556159
-0.00185168
-0.00302562
-0.00384158
-0.004233
-0.00450164
-0.00473085
-0.00494919
-0.00518311
-0.00545011
-0.00575774
-0.00610511
-0.00648276
-0.00687116
-0.0072387
-0.00754014
-0.00771656
-0.0076977
-0.00740981
-0.00680403
-0.00584231
-0.00454787
-0.00300941
-0.00138649
0.00010381
0.00122354
0.00176966
0.00163561
0.000863084
-0.000336657
-0.00173224
-0.00344497
-0.00447768
-0.00531222
-0.00572534
-0.00602836
-0.0063104
-0.00660464
-0.00694214
-0.00734522
-0.00782667
-0.00839101
-0.00903357
-0.00973738
-0.0104689
-0.0111737
-0.0117738
-0.0121683
-0.0122405
-0.0118795
-0.0110035
-0.0095841
-0.00768356
-0.00547131
-0.00322156
-0.00127853
1.4006e-05
0.000409214
-0.000138431
-0.00140687
-0.00308857
-0.00532753
-0.00618746
-0.00702904
-0.00746218
-0.00780294
-0.00814551
-0.00852848
-0.0089887
-0.00955507
-0.0102479
-0.0110802
-0.0120552
-0.013162
-0.0143683
-0.015612
-0.0167953
-0.0177823
-0.0184042
-0.0184773
-0.0178618
-0.0164432
-0.0142311
-0.0113785
-0.0081988
-0.00514696
-0.00274538
-0.00145329
-0.00148721
-0.00266942
-0.0046206
-0.00750615
-0.00814604
-0.00898394
-0.00943461
-0.00981427
-0.0102216
-0.0107014
-0.0112979
-0.0120485
-0.0129833
-0.0141267
-0.0154936
-0.0170826
-0.018866
-0.020777
-0.0226989
-0.0244595
-0.0258361
-0.026575
-0.0264165
-0.0251846
-0.0227959
-0.0193469
-0.0151515
-0.0107509
-0.00686001
-0.00421895
-0.00332807
-0.00415608
-0.00629856
-0.00995385
-0.0103362
-0.0111619
-0.0116263
-0.0120419
-0.0125115
-0.0130875
-0.013823
-0.0147658
-0.0159582
-0.0174383
-0.0192354
-0.0213611
-0.023795
-0.0264689
-0.0292495
-0.0319302
-0.0342335
-0.0358263
-0.0363509
-0.0355376
-0.0331873
-0.0293024
-0.0241436
-0.0182826
-0.0125953
-0.00813729
-0.0058113
-0.00588569
-0.00804874
-0.0125852
-0.0127334
-0.0135429
-0.0140151
-0.014457
-0.014976
-0.0156339
-0.0164946
-0.017618
-0.0190605
-0.0208755
-0.0231082
-0.0257848
-0.0288946
-0.0323696
-0.0360637
-0.0397393
-0.043069
-0.0456477
-0.0470228
-0.046857
-0.0448007
-0.0407395
-0.0348285
-0.0275883
-0.0199739
-0.013325
-0.00902641
-0.00783245
-0.00972582
-0.0152217
-0.0153088
-0.0161051
-0.016576
-0.017025
-0.0175659
-0.0182725
-0.0192224
-0.0204897
-0.0221457
-0.0242595
-0.0268924
-0.0300848
-0.0338359
-0.0380791
-0.0426576
-0.0473084
-0.0516621
-0.0552673
-0.0576314
-0.058215
-0.0566667
-0.0527244
-0.0463916
-0.0380542
-0.0286255
-0.0196206
-0.0128997
-0.00986747
-0.0110736
-0.017546
-0.0180332
-0.01883
-0.0192861
-0.0197095
-0.0202249
-0.0209236
-0.0219006
-0.0232464
-0.0250476
-0.0273885
-0.0303447
-0.0339689
-0.0382679
-0.0431758
-0.0485273
-0.0540395
-0.059312
-0.0638522
-0.0671167
-0.068534
-0.0676372
-0.0640627
-0.0576623
-0.048633
-0.037726
-0.0264658
-0.0170733
-0.0116725
-0.0116731
-0.019043
-0.0208842
-0.0217105
-0.0221307
-0.0224763
-0.0228939
-0.0234999
-0.0244134
-0.0257437
-0.0275931
-0.030059
-0.0332284
-0.0371623
-0.0418718
-0.0472896
-0.0532422
-0.0594321
-0.0654385
-0.0707412
-0.0747649
-0.0769221
-0.0766751
-0.0735874
-0.0673772
-0.0580419
-0.0460903
-0.0328871
-0.0208117
-0.0126422
-0.0108791
-0.0189227
-0.0238571
-0.0247621
-0.0251111
-0.0252991
-0.025514
-0.0259115
-0.0266426
-0.0278393
-0.0296188
-0.032089
-0.0353436
-0.0394472
-0.0444103
-0.0501611
-0.0565171
-0.0631695
-0.0696854
-0.075528
-0.0801027
-0.082814
-0.0830838
-0.0804344
-0.0744839
-0.0650579
-0.0524054
-0.0376132
-0.022996
-0.0118021
-0.00774554
-0.0160193
-0.0269835
-0.0280393
-0.0282551
-0.0281631
-0.0280294
-0.0280688
-0.0284746
-0.0294038
-0.030987
-0.033338
-0.0365518
-0.0406905
-0.0457586
-0.0516753
-0.0582474
-0.0651563
-0.0719662
-0.0781266
-0.0830186
-0.086037
-0.0866077
-0.0841929
-0.0783541
-0.06878
-0.0555008
-0.0392888
-0.0222252
-0.00779423
-0.000946998
-0.00866508
-0.0303676
-0.0316624
-0.0316283
-0.0310682
-0.0303877
-0.029886
-0.029807
-0.0303319
-0.0315997
-0.0337236
-0.0367926
-0.0408592
-0.0459175
-0.0518733
-0.0585209
-0.0655281
-0.0724406
-0.0787022
-0.083695
-0.0867894
-0.0873794
-0.0848819
-0.0788238
-0.0687467
-0.0545412
-0.0366935
-0.0169893
0.00105629
0.0113037
0.00546275
-0.0342633
-0.0358607
-0.0353498
-0.0340302
-0.0325399
-0.0312842
-0.0305568
-0.0305539
-0.0314117
-0.0332324
-0.0360901
-0.0400202
-0.0449974
-0.0509101
-0.0575358
-0.0645278
-0.0714176
-0.0776358
-0.0825461
-0.0854851
-0.0857994
-0.0828459
-0.0760459
-0.0648863
-0.0490901
-0.0289168
-0.00586358
0.0166691
0.0313766
0.0294993
-0.0392463
-0.0410439
-0.0396071
-0.0370791
-0.0344394
-0.0321973
-0.0306712
-0.0300479
-0.0304409
-0.0319255
-0.0345519
-0.0383268
-0.0432004
-0.0490373
-0.0555939
-0.0625055
-0.0692866
-0.0753472
-0.0800195
-0.0825901
-0.0823327
-0.078506
-0.0704099
-0.057404
-0.0390635
-0.0155033
0.0122035
0.0411442
0.0623091
0.0673815
-0.0466177
-0.0479154
-0.0446524
-0.0402415
-0.0360321
-0.0325667
-0.0301236
-0.0288342
-0.0287578
-0.0299258
-0.0323451
-0.0359885
-0.0407734
-0.0465353
-0.0530051
-0.0597963
-0.0664021
-0.0722061
-0.0765008
-0.078509
-0.0774091
-0.0723079
-0.0623537
-0.0467065
-0.0247257
0.00367436
0.0375415
0.0761036
0.107213
0.123634
-0.0595712
-0.0576826
-0.0507664
-0.0434832
-0.0371976
-0.032282
-0.0288534
-0.0269164
-0.0264326
-0.0273581
-0.0296428
-0.0332142
-0.0379504
-0.0436539
-0.0500283
-0.0566634
-0.0630294
-0.0684809
-0.0722674
-0.073546
-0.0713905
-0.0647171
-0.0524685
-0.0335272
-0.00691381
0.0279292
0.0707544
0.120647
0.167252
0.205043
-0.0862295
-0.0718725
-0.0582163
-0.0466182
-0.0376137
-0.0310611
-0.0266792
-0.0242228
-0.0234889
-0.0243231
-0.0266007
-0.030195
-0.0349437
-0.040618
-0.0468977
-0.0533527
-0.0594338
-0.0644685
-0.0676606
-0.0680983
-0.0647614
-0.0565007
-0.0418954
-0.0194748
0.012256
0.0547118
0.108686
0.17457
0.242952
0.325259
-0.138348
-0.0872233
-0.0649441
-0.0474516
-0.035314
-0.0274065
-0.0225646
-0.0200595
-0.0194616
-0.0205037
-0.0229962
-0.0267721
-0.0316438
-0.0373667
-0.0436115
-0.0499435
-0.0558101
-0.0605335
-0.0632991
-0.0631424
-0.0589006
-0.0494644
-0.0331859
-0.00818103
0.0277341
0.0774483
0.144092
0.232847
0.3405
0.51016
-0.311221
-0.09708
-0.047901
-0.0289542
-0.0181695
-0.0124169
-0.00995881
-0.00953933
-0.0105798
-0.0128701
-0.0163069
-0.0207909
-0.0261864
-0.0322923
-0.0388161
-0.0453555
-0.0513853
-0.0562514
-0.0591673
-0.0592215
-0.055367
-0.0460941
-0.0299263
-0.00491279
0.0315642
0.0838522
0.158614
0.273619
0.448555
0.792288
)
;

boundaryField
{
    movingWall
    {
        type            zeroGradient;
    }
    fixedWalls
    {
        type            zeroGradient;
    }
    frontAndBack
    {
        type            empty;
    }
}


// ************************************************************************* //
