/*--------------------------------*- C++ -*----------------------------------*\
  =========                 |
  \\      /  F ield         | OpenFOAM: The Open Source CFD Toolbox
   \\    /   O peration     | Website:  https://openfoam.org
    \\  /    A nd           | Version:  7
     \\/     M anipulation  |
\*---------------------------------------------------------------------------*/
FoamFile
{
    version     2.0;
    format      ascii;
    class       volVectorField;
    location    "9";
    object      U;
}
// * * * * * * * * * * * * * * * * * * * * * * * * * * * * * * * * * * * * * //

dimensions      [0 1 -1 0 0 0 0];

internalField   nonuniform List<vector> 
900
(
(9.48105e-05 -9.34876e-05 0)
(0.000101575 -8.08466e-06 0)
(-0.000238356 0.000101324 0)
(-0.000863474 0.000186328 0)
(-0.00169397 0.000240506 0)
(-0.00265846 0.000270216 0)
(-0.00369693 0.000283672 0)
(-0.00476452 0.000286846 0)
(-0.00582693 0.000282759 0)
(-0.00685434 0.000272034 0)
(-0.00781652 0.000253638 0)
(-0.00867967 0.000225631 0)
(-0.00940534 0.000185865 0)
(-0.00995115 0.000132695 0)
(-0.0102737 6.56929e-05 0)
(-0.0103331 -1.37558e-05 0)
(-0.0100987 -0.000102587 0)
(-0.00955551 -0.000194648 0)
(-0.00871136 -0.000281877 0)
(-0.00760058 -0.000354932 0)
(-0.00628578 -0.000404413 0)
(-0.00485509 -0.00042246 0)
(-0.00341486 -0.000404341 0)
(-0.00207835 -0.000349677 0)
(-0.000951447 -0.000262998 0)
(-0.000117623 -0.000154266 0)
(0.000367808 -3.86751e-05 0)
(0.000500349 7.09799e-05 0)
(0.0003467 0.000136402 0)
(0.000105444 0.000105863 0)
(1.15152e-05 -0.000105254 0)
(-0.000394541 0.000388723 0)
(-0.00155679 0.000940996 0)
(-0.00330686 0.00138816 0)
(-0.00550828 0.00170047 0)
(-0.00802099 0.00189196 0)
(-0.0107151 0.00198814 0)
(-0.0134816 0.00201059 0)
(-0.0162282 0.00197172 0)
(-0.01887 0.00187491 0)
(-0.0213223 0.00171681 0)
(-0.0234951 0.00149047 0)
(-0.0252918 0.00118879 0)
(-0.0266119 0.000808101 0)
(-0.0273578 0.000351375 0)
(-0.0274449 -0.00016928 0)
(-0.0268127 -0.000729999 0)
(-0.0254384 -0.00129535 0)
(-0.0233505 -0.00182064 0)
(-0.020635 -0.00225598 0)
(-0.0174379 -0.0025527 0)
(-0.0139582 -0.00267114 0)
(-0.0104331 -0.00258843 0)
(-0.00711364 -0.00230452 0)
(-0.00423584 -0.00184527 0)
(-0.00198854 -0.00126309 0)
(-0.00048467 -0.00063558 0)
(0.000258275 -5.6593e-05 0)
(0.000360512 0.000334825 0)
(0.000138657 0.000342826 0)
(-0.000109659 0.000243189 0)
(-0.00102164 0.00156932 0)
(-0.00306971 0.00290587 0)
(-0.00590508 0.00399242 0)
(-0.00933941 0.00477322 0)
(-0.0131922 0.00526788 0)
(-0.0172894 0.0055208 0)
(-0.0214784 0.00557276 0)
(-0.0256238 0.00544867 0)
(-0.0295979 0.00515595 0)
(-0.0332726 0.00468844 0)
(-0.0365135 0.00403308 0)
(-0.0391803 0.00317784 0)
(-0.0411299 0.00211999 0)
(-0.0422271 0.000873561 0)
(-0.0423559 -0.000524687 0)
(-0.0414357 -0.00201089 0)
(-0.0394395 -0.00349505 0)
(-0.0364089 -0.00486622 0)
(-0.0324635 -0.00600255 0)
(-0.027804 -0.00678638 0)
(-0.0227038 -0.0071223 0)
(-0.0174899 -0.0069553 0)
(-0.0125118 -0.00628549 0)
(-0.00810243 -0.00517609 0)
(-0.00453396 -0.00375392 0)
(-0.00197725 -0.00220475 0)
(-0.000468499 -0.000767121 0)
(0.000120691 0.000270938 0)
(0.000106362 0.000534186 0)
(-0.000224764 0.000944748 0)
(-0.00163661 0.00348141 0)
(-0.00455995 0.00582636 0)
(-0.00843636 0.00769943 0)
(-0.0130125 0.00904607 0)
(-0.0180722 0.00990294 0)
(-0.0234093 0.010337 0)
(-0.0288415 0.0104086 0)
(-0.0342043 0.0101544 0)
(-0.0393396 0.00958484 0)
(-0.0440874 0.00869 0)
(-0.0482804 0.00745042 0)
(-0.0517441 0.00584995 0)
(-0.0543022 0.00388921 0)
(-0.055787 0.00159814 0)
(-0.0560545 -0.000954279 0)
(-0.0550016 -0.00365597 0)
(-0.052587 -0.00634909 0)
(-0.0488506 -0.00884115 0)
(-0.0439259 -0.0109212 0)
(-0.0380453 -0.0123847 0)
(-0.031535 -0.0130634 0)
(-0.0247934 -0.0128572 0)
(-0.0182568 -0.0117603 0)
(-0.0123503 -0.00987656 0)
(-0.00743378 -0.00742186 0)
(-0.00374842 -0.00471339 0)
(-0.00137086 -0.00215305 0)
(-0.000189832 -0.000209234 0)
(6.36677e-05 0.000567318 0)
(-0.000324528 0.00196893 0)
(-0.00220101 0.00609697 0)
(-0.0059548 0.00966548 0)
(-0.0108138 0.0124468 0)
(-0.0164545 0.0144275 0)
(-0.0226248 0.0156813 0)
(-0.0290929 0.0163063 0)
(-0.0356566 0.0163846 0)
(-0.0421333 0.0159642 0)
(-0.048346 0.0150569 0)
(-0.0541133 0.0136475 0)
(-0.0592442 0.0117084 0)
(-0.0635375 0.00921799 0)
(-0.066787 0.0061799 0)
(-0.0687926 0.00264041 0)
(-0.0693771 -0.00129791 0)
(-0.0684025 -0.00547095 0)
(-0.0657953 -0.00964457 0)
(-0.0615729 -0.0135335 0)
(-0.0558592 -0.0168219 0)
(-0.0488974 -0.0191982 0)
(-0.0410504 -0.0203994 0)
(-0.0327823 -0.0202594 0)
(-0.0246206 -0.0187511 0)
(-0.017099 -0.0160147 0)
(-0.0106888 -0.0123628 0)
(-0.00572829 -0.00826371 0)
(-0.00236035 -0.00430708 0)
(-0.000509448 -0.00116248 0)
(2.96444e-05 0.000431409 0)
(-0.000410174 0.0032854 0)
(-0.00270833 0.00936929 0)
(-0.00723127 0.0143743 0)
(-0.0130056 0.0181813 0)
(-0.0196385 0.0208578 0)
(-0.0268442 0.0225385 0)
(-0.0343695 0.0233649 0)
(-0.0420003 0.0234462 0)
(-0.0495456 0.0228423 0)
(-0.0568192 0.0215651 0)
(-0.0636286 0.019591 0)
(-0.0697667 0.0168805 0)
(-0.0750108 0.0134021 0)
(-0.0791252 0.00915724 0)
(-0.0818729 0.00420348 0)
(-0.0830334 -0.00132657 0)
(-0.0824152 -0.00721952 0)
(-0.0798877 -0.0131604 0)
(-0.0754194 -0.018762 0)
(-0.0690964 -0.0235861 0)
(-0.0611484 -0.0271881 0)
(-0.0519592 -0.0291778 0)
(-0.0420562 -0.0292891 0)
(-0.0320723 -0.0274454 0)
(-0.0226797 -0.0238079 0)
(-0.0145019 -0.0187892 0)
(-0.00801756 -0.01303 0)
(-0.00347085 -0.00734246 0)
(-0.000841851 -0.00263448 0)
(5.52954e-06 0.000133454 0)
(-0.0004847 0.00486221 0)
(-0.00316165 0.0132398 0)
(-0.0083858 0.019885 0)
(-0.015003 0.0248327 0)
(-0.0225577 0.0282676 0)
(-0.0307337 0.0304103 0)
(-0.0392629 0.0314599 0)
(-0.0479264 0.0315597 0)
(-0.0565335 0.0307839 0)
(-0.0648989 0.029143 0)
(-0.0728274 0.0266007 0)
(-0.0801037 0.0230996 0)
(-0.0864872 0.0185896 0)
(-0.0917124 0.0130592 0)
(-0.0954979 0.00656389 0)
(-0.0975685 -0.000745719 0)
(-0.0976567 -0.00859663 0)
(-0.0955455 -0.016615 0)
(-0.0911241 -0.0243018 0)
(-0.084406 -0.0310753 0)
(-0.0755757 -0.0363246 0)
(-0.0650159 -0.0394877 0)
(-0.0533106 -0.0401472 0)
(-0.0412133 -0.0381302 0)
(-0.0295722 -0.0335867 0)
(-0.0192188 -0.0270244 0)
(-0.0108343 -0.0192816 0)
(-0.00481575 -0.0114422 0)
(-0.00122815 -0.00471166 0)
(-1.56038e-05 -0.000332944 0)
(-0.000550014 0.00667028 0)
(-0.00356374 0.017649 0)
(-0.00941784 0.0261255 0)
(-0.0168013 0.0323277 0)
(-0.0252048 0.0365896 0)
(-0.0342888 0.0392411 0)
(-0.0437762 0.0405545 0)
(-0.0534513 0.0407155 0)
(-0.0631324 0.0398155 0)
(-0.0726443 0.0378623 0)
(-0.0817984 0.0348021 0)
(-0.0903782 0.0305504 0)
(-0.0981301 0.0250264 0)
(-0.10476 0.01819 0)
(-0.109937 0.0100781 0)
(-0.113299 0.000842191 0)
(-0.114499 -0.00921508 0)
(-0.11322 -0.0196554 0)
(-0.109215 -0.0298662 0)
(-0.10239 -0.0391046 0)
(-0.0928427 -0.0465562 0)
(-0.0809219 -0.0514299 0)
(-0.0672486 -0.0530867 0)
(-0.0527015 -0.0511838 0)
(-0.038342 -0.0458039 0)
(-0.0252766 -0.0375282 0)
(-0.0144728 -0.0274177 0)
(-0.00655644 -0.0168943 0)
(-0.00172601 -0.00755036 0)
(-4.13489e-05 -0.00100381 0)
(-0.000606499 0.00868194 0)
(-0.00391379 0.022536 0)
(-0.0103221 0.0330205 0)
(-0.0183887 0.0405894 0)
(-0.0275615 0.0457544 0)
(-0.0374847 0.0489767 0)
(-0.04788 0.050617 0)
(-0.0585421 0.0509124 0)
(-0.0693067 0.0499753 0)
(-0.0800178 0.0478097 0)
(-0.0905021 0.0443384 0)
(-0.10055 0.039439 0)
(-0.1099 0.0329839 0)
(-0.118229 0.0248842 0)
(-0.125153 0.015136 0)
(-0.130232 0.00386572 0)
(-0.133007 -0.00863299 0)
(-0.133022 -0.0218564 0)
(-0.129882 -0.0350853 0)
(-0.123337 -0.0474034 0)
(-0.113351 -0.057755 0)
(-0.100186 -0.0650551 0)
(-0.0844589 -0.0683524 0)
(-0.0671548 -0.0670307 0)
(-0.0495701 -0.0610111 0)
(-0.0331563 -0.0508956 0)
(-0.0192731 -0.0379823 0)
(-0.00888509 -0.0241148 0)
(-0.00240653 -0.0113961 0)
(-8.23685e-05 -0.00195211 0)
(-0.000653347 0.0108681 0)
(-0.00420713 0.0278359 0)
(-0.0110864 0.040488 0)
(-0.0197431 0.0495323 0)
(-0.0295931 0.0556829 0)
(-0.040272 0.0595521 0)
(-0.0515066 0.0616036 0)
(-0.0631092 0.0621357 0)
(-0.0749404 0.0612862 0)
(-0.0868713 0.0590543 0)
(-0.0987526 0.0553332 0)
(-0.110389 0.0499503 0)
(-0.121519 0.0427126 0)
(-0.131796 0.0334582 0)
(-0.140786 0.0221113 0)
(-0.147967 0.00874052 0)
(-0.152763 -0.00638374 0)
(-0.154567 -0.022733 0)
(-0.152808 -0.0394959 0)
(-0.147046 -0.0555786 0)
(-0.137056 -0.0696546 0)
(-0.122947 -0.0802813 0)
(-0.105258 -0.0860919 0)
(-0.0850256 -0.0860598 0)
(-0.0637671 -0.0798004 0)
(-0.0433324 -0.0678297 0)
(-0.0255957 -0.051664 0)
(-0.0120136 -0.0336587 0)
(-0.00334772 -0.0165946 0)
(-0.000149304 -0.00328789 0)
(-0.000688981 0.0131961 0)
(-0.00443626 0.0334763 0)
(-0.0116929 0.0484353 0)
(-0.0208328 0.0590573 0)
(-0.0312496 0.0662785 0)
(-0.0425765 0.0708801 0)
(-0.0545507 0.0734428 0)
(-0.0670068 0.0743359 0)
(-0.0798361 0.0737276 0)
(-0.0929428 0.0716122 0)
(-0.106209 0.0678473 0)
(-0.119462 0.0621976 0)
(-0.132448 0.0543863 0)
(-0.144808 0.0441526 0)
(-0.156066 0.0313182 0)
(-0.165629 0.0158595 0)
(-0.17281 -0.00201355 0)
(-0.176859 -0.0217737 0)
(-0.177023 -0.0425534 0)
(-0.172646 -0.0630958 0)
(-0.163269 -0.081795 0)
(-0.148766 -0.0968041 0)
(-0.129496 -0.10624 0)
(-0.106439 -0.108506 0)
(-0.081258 -0.102705 0)
(-0.0562079 -0.0890784 0)
(-0.0337952 -0.069271 0)
(-0.0161667 -0.046222 0)
(-0.00463496 -0.0236 0)
(-0.000253684 -0.00516429 0)
(-0.000711505 0.0156286 0)
(-0.00459245 0.0393751 0)
(-0.0121211 0.0567563 0)
(-0.0216206 0.0690466 0)
(-0.032471 0.0774198 0)
(-0.0443063 0.0828402 0)
(-0.0568769 0.0860191 0)
(-0.0700418 0.0874062 0)
(-0.083725 0.0872061 0)
(-0.0978677 0.085409 0)
(-0.112388 0.081832 0)
(-0.127142 0.0761666 0)
(-0.141894 0.0680347 0)
(-0.156286 0.0570543 0)
(-0.16982 0.042917 0)
(-0.181856 0.0254761 0)
(-0.191616 0.00484394 0)
(-0.198238 -0.0185063 0)
(-0.200819 -0.0436768 0)
(-0.198481 -0.0692902 0)
(-0.190498 -0.0934886 0)
(-0.176438 -0.114012 0)
(-0.156353 -0.128391 0)
(-0.131001 -0.134291 0)
(-0.10203 -0.130047 0)
(-0.0720204 -0.115323 0)
(-0.04418 -0.0916745 0)
(-0.0215743 -0.0626271 0)
(-0.0063627 -0.0329801 0)
(-0.00040927 -0.00778152 0)
(-0.000719206 0.018123 0)
(-0.00466806 0.0454407 0)
(-0.0123525 0.0653306 0)
(-0.0220718 0.0793621 0)
(-0.0331973 0.0889555 0)
(-0.0453647 0.0952704 0)
(-0.0583363 0.09916 0)
(-0.0719942 0.101164 0)
(-0.0862933 0.10153 0)
(-0.101211 0.100247 0)
(-0.116703 0.0970871 0)
(-0.132659 0.0916624 0)
(-0.148872 0.0834812 0)
(-0.165 0.0720238 0)
(-0.18055 0.0568312 0)
(-0.194871 0.0376094 0)
(-0.207154 0.0143419 0)
(-0.216467 -0.0125991 0)
(-0.221799 -0.0423295 0)
(-0.222105 -0.0734202 0)
(-0.216394 -0.103832 0)
(-0.203874 -0.130942 0)
(-0.184164 -0.151681 0)
(-0.157595 -0.162853 0)
(-0.125546 -0.161739 0)
(-0.0907077 -0.147003 0)
(-0.0569456 -0.119701 0)
(-0.0284536 -0.0837846 0)
(-0.00863524 -0.045415 0)
(-0.000633627 -0.0113925 0)
(-0.000711165 0.0206331 0)
(-0.0046594 0.0515738 0)
(-0.0123773 0.0740252 0)
(-0.0221633 0.0898449 0)
(-0.0333823 0.100703 0)
(-0.0456681 0.107962 0)
(-0.0587905 0.112628 0)
(-0.0726486 0.115339 0)
(-0.0872228 0.116394 0)
(-0.102522 0.115781 0)
(-0.118536 0.113232 0)
(-0.135193 0.108274 0)
(-0.15232 0.1003 0)
(-0.169613 0.0886433 0)
(-0.186617 0.0726878 0)
(-0.202716 0.0519793 0)
(-0.217133 0.0263544 0)
(-0.228939 -0.00393774 0)
(-0.237101 -0.038119 0)
(-0.240486 -0.074767 0)
(-0.237888 -0.111781 0)
(-0.228152 -0.146299 0)
(-0.210373 -0.174735 0)
(-0.184243 -0.192997 0)
(-0.150553 -0.197061 0)
(-0.111734 -0.184084 0)
(-0.0720691 -0.15396 0)
(-0.0369726 -0.110615 0)
(-0.0115633 -0.0616831 0)
(-0.000949572 -0.0163085 0)
(-0.000687911 0.0231123 0)
(-0.00457003 0.0576738 0)
(-0.0122016 0.0827008 0)
(-0.0218965 0.100321 0)
(-0.0330107 0.11245 0)
(-0.0451692 0.120661 0)
(-0.0581411 0.126118 0)
(-0.071834 0.12957 0)
(-0.0862446 0.13137 0)
(-0.101405 0.131515 0)
(-0.117334 0.129699 0)
(-0.133997 0.125369 0)
(-0.151267 0.117805 0)
(-0.168895 0.106204 0)
(-0.186497 0.0897978 0)
(-0.203541 0.0679774 0)
(-0.219355 0.0404291 0)
(-0.233118 0.00725478 0)
(-0.243853 -0.0309156 0)
(-0.250438 -0.0727683 0)
(-0.251578 -0.116295 0)
(-0.245813 -0.158584 0)
(-0.231696 -0.195729 0)
(-0.20813 -0.222845 0)
(-0.174977 -0.234484 0)
(-0.13392 -0.225788 0)
(-0.0891669 -0.194596 0)
(-0.0471873 -0.14391 0)
(-0.0152537 -0.0826254 0)
(-0.00138615 -0.0229031 0)
(-0.000652138 0.0255181 0)
(-0.00441453 0.0636479 0)
(-0.0118559 0.0912226 0)
(-0.0213104 0.11061 0)
(-0.0321166 0.123966 0)
(-0.0438811 0.133075 0)
(-0.0563627 0.13927 0)
(-0.0694671 0.143417 0)
(-0.0831974 0.14593 0)
(-0.0975995 0.146824 0)
(-0.112716 0.145761 0)
(-0.128547 0.142123 0)
(-0.145019 0.135091 0)
(-0.161958 0.123746 0)
(-0.179083 0.107189 0)
(-0.195998 0.0846805 0)
(-0.212194 0.0557701 0)
(-0.227035 0.0204122 0)
(-0.239703 -0.0209292 0)
(-0.249227 -0.06717 0)
(-0.254353 -0.116544 0)
(-0.253445 -0.166331 0)
(-0.244601 -0.212599 0)
(-0.225892 -0.249956 0)
(-0.196008 -0.271623 0)
(-0.155356 -0.270379 0)
(-0.107352 -0.241001 0)
(-0.0589544 -0.184126 0)
(-0.0197923 -0.109073 0)
(-0.0019797 -0.0316087 0)
(-0.000609493 0.0278195 0)
(-0.0042225 0.0694258 0)
(-0.0114045 0.0994753 0)
(-0.020495 0.120542 0)
(-0.0308014 0.135014 0)
(-0.0419003 0.144892 0)
(-0.0535316 0.151685 0)
(-0.065591 0.156382 0)
(-0.0780795 0.159472 0)
(-0.0910498 0.160992 0)
(-0.104564 0.160588 0)
(-0.118658 0.157594 0)
(-0.133319 0.151118 0)
(-0.148467 0.140153 0)
(-0.163948 0.123711 0)
(-0.179537 0.100955 0)
(-0.194939 0.0713364 0)
(-0.20976 0.034688 0)
(-0.223429 -0.0087155 0)
(-0.23524 -0.0581494 0)
(-0.244115 -0.112139 0)
(-0.248427 -0.168418 0)
(-0.246004 -0.223407 0)
(-0.234206 -0.271655 0)
(-0.210475 -0.305424 0)
(-0.173529 -0.315106 0)
(-0.125164 -0.291542 0)
(-0.0718397 -0.231113 0)
(-0.0252234 -0.141733 0)
(-0.00277604 -0.0429062 0)
(-0.000569593 0.0300069 0)
(-0.00404342 0.0749778 0)
(-0.0109548 0.107384 0)
(-0.0196052 0.129974 0)
(-0.0292498 0.145368 0)
(-0.0394253 0.155794 0)
(-0.0498478 0.162947 0)
(-0.0604006 0.167948 0)
(-0.0710809 0.171367 0)
(-0.0819468 0.173277 0)
(-0.0930797 0.173325 0)
(-0.104557 0.170818 0)
(-0.116434 0.164824 0)
(-0.128738 0.154289 0)
(-0.141463 0.138175 0)
(-0.154574 0.115594 0)
(-0.168002 0.0859332 0)
(-0.181634 0.0489291 0)
(-0.195271 0.00467825 0)
(-0.208453 -0.0463928 0)
(-0.220342 -0.103279 0)
(-0.229599 -0.164359 0)
(-0.234022 -0.226766 0)
(-0.230526 -0.285535 0)
(-0.215456 -0.332613 0)
(-0.185682 -0.356429 0)
(-0.140662 -0.34346 0)
(-0.0850635 -0.283831 0)
(-0.0315343 -0.181029 0)
(-0.00383623 -0.0573081 0)
(-0.000547768 0.0321038 0)
(-0.00395346 0.0803385 0)
(-0.0106697 0.114938 0)
(-0.0188743 0.138812 0)
(-0.0277429 0.154834 0)
(-0.0367667 0.165482 0)
(-0.0456424 0.172651 0)
(-0.0542492 0.177607 0)
(-0.0625879 0.181008 0)
(-0.0707291 0.182974 0)
(-0.0787811 0.183172 0)
(-0.0868706 0.180912 0)
(-0.0951338 0.175255 0)
(-0.103714 0.165138 0)
(-0.112765 0.149518 0)
(-0.12245 0.127499 0)
(-0.132934 0.0984408 0)
(-0.144374 0.062007 0)
(-0.156869 0.018155 0)
(-0.170301 -0.0328929 0)
(-0.184204 -0.0907197 0)
(-0.197569 -0.154437 0)
(-0.20845 -0.222169 0)
(-0.213691 -0.289975 0)
(-0.208929 -0.350308 0)
(-0.189354 -0.390529 0)
(-0.151693 -0.39304 0)
(-0.0975202 -0.340154 0)
(-0.0386523 -0.226909 0)
(-0.0052499 -0.0753437 0)
(-0.000568699 0.0341858 0)
(-0.00406697 0.0856375 0)
(-0.0107842 0.122217 0)
(-0.0186297 0.14703 0)
(-0.0266674 0.163264 0)
(-0.0343485 0.173688 0)
(-0.0413703 0.180425 0)
(-0.0476302 0.184893 0)
(-0.0531532 0.187848 0)
(-0.0580396 0.189469 0)
(-0.0624386 0.18946 0)
(-0.0665389 0.187158 0)
(-0.0705668 0.181653 0)
(-0.0747899 0.171914 0)
(-0.0795201 0.156927 0)
(-0.0851119 0.135824 0)
(-0.0919505 0.107974 0)
(-0.100427 0.073003 0)
(-0.110893 0.0307594 0)
(-0.123543 -0.0187731 0)
(-0.138282 -0.0756213 0)
(-0.154506 -0.139645 0)
(-0.17073 -0.210095 0)
(-0.184125 -0.284476 0)
(-0.190163 -0.356586 0)
(-0.182859 -0.413968 0)
(-0.156262 -0.436071 0)
(-0.107881 -0.396863 0)
(-0.0464527 -0.278644 0)
(-0.00715902 -0.0975591 0)
(-0.000674602 0.0364072 0)
(-0.0045581 0.0911384 0)
(-0.011632 0.129422 0)
(-0.0193119 0.154685 0)
(-0.0265205 0.170557 0)
(-0.0326972 0.180179 0)
(-0.0375822 0.185931 0)
(-0.0411331 0.189396 0)
(-0.0434333 0.191429 0)
(-0.044639 0.192272 0)
(-0.0449598 0.191681 0)
(-0.0446592 0.189045 0)
(-0.044061 0.183511 0)
(-0.0435557 0.174108 0)
(-0.0436041 0.159883 0)
(-0.0447306 0.14002 0)
(-0.0475077 0.113911 0)
(-0.052521 0.0811664 0)
(-0.0603136 0.041542 0)
(-0.0713218 -0.00517263 0)
(-0.0857495 -0.059334 0)
(-0.103403 -0.121459 0)
(-0.123377 -0.191867 0)
(-0.143492 -0.269709 0)
(-0.159648 -0.3508 0)
(-0.165451 -0.424257 0)
(-0.152805 -0.46844 0)
(-0.114732 -0.449868 0)
(-0.05475 -0.33466 0)
(-0.00978544 -0.12454 0)
(-0.000943399 0.0390493 0)
(-0.00570205 0.0972918 0)
(-0.0136878 0.136894 0)
(-0.0214978 0.16191 0)
(-0.0279056 0.176649 0)
(-0.0324084 0.184739 0)
(-0.034866 0.188859 0)
(-0.0353602 0.190755 0)
(-0.0340802 0.191374 0)
(-0.0312702 0.191018 0)
(-0.0272206 0.189499 0)
(-0.0222796 0.186273 0)
(-0.0168683 0.180563 0)
(-0.0114903 0.171483 0)
(-0.0067327 0.158158 0)
(-0.0032558 0.139827 0)
(-0.0017789 0.115907 0)
(-0.00303817 0.0859954 0)
(-0.00770973 0.0497898 0)
(-0.0163715 0.00693103 0)
(-0.0294566 -0.0431837 0)
(-0.0471238 -0.101548 0)
(-0.0690548 -0.169345 0)
(-0.0939199 -0.247286 0)
(-0.118567 -0.333566 0)
(-0.137081 -0.420142 0)
(-0.140183 -0.486644 0)
(-0.116637 -0.49458 0)
(-0.0632177 -0.392411 0)
(-0.0134372 -0.156943 0)
(-0.00152821 0.042609 0)
(-0.00795194 0.104805 0)
(-0.0176289 0.145128 0)
(-0.0259144 0.168884 0)
(-0.0314908 0.181457 0)
(-0.0340572 0.187119 0)
(-0.0337152 0.188879 0)
(-0.0307583 0.188625 0)
(-0.0255382 0.187365 0)
(-0.0184201 0.185441 0)
(-0.00978972 0.182712 0)
(-8.1264e-05 0.178706 0)
(0.0101968 0.172729 0)
(0.0204502 0.16399 0)
(0.0299948 0.151699 0)
(0.0380704 0.135153 0)
(0.0438675 0.113791 0)
(0.0465712 0.0871914 0)
(0.0454164 0.0549981 0)
(0.0397202 0.0167433 0)
(0.0288956 -0.0283445 0)
(0.0125295 -0.0815311 0)
(-0.00959784 -0.144585 0)
(-0.0370579 -0.219375 0)
(-0.0679884 -0.306475 0)
(-0.097823 -0.401556 0)
(-0.117368 -0.48804 0)
(-0.111993 -0.526265 0)
(-0.0711618 -0.448282 0)
(-0.0184313 -0.195453 0)
(-0.00273884 0.0479661 0)
(-0.0120716 0.114724 0)
(-0.0243985 0.154722 0)
(-0.0333887 0.175718 0)
(-0.0378462 0.184758 0)
(-0.0379373 0.186929 0)
(-0.034187 0.185552 0)
(-0.0272077 0.182596 0)
(-0.0175723 0.179066 0)
(-0.00579311 0.175298 0)
(0.00764573 0.171181 0)
(0.0222328 0.166293 0)
(0.0373967 0.160021 0)
(0.0524903 0.151668 0)
(0.066779 0.140527 0)
(0.0794549 0.125958 0)
(0.0896677 0.10742 0)
(0.0965653 0.0844695 0)
(0.0993343 0.0566845 0)
(0.0972236 0.023521 0)
(0.0895258 -0.0158721 0)
(0.0756013 -0.0628628 0)
(0.0548361 -0.11948 0)
(0.0268299 -0.188266 0)
(-0.00801961 -0.271689 0)
(-0.0471496 -0.369385 0)
(-0.0829245 -0.470825 0)
(-0.0986724 -0.540144 0)
(-0.0770896 -0.49734 0)
(-0.0248244 -0.240471 0)
(-0.00519805 0.0567113 0)
(-0.0193319 0.128487 0)
(-0.0351685 0.166191 0)
(-0.0445255 0.182188 0)
(-0.0468687 0.185925 0)
(-0.0432801 0.183398 0)
(-0.0349526 0.178126 0)
(-0.0229363 0.172017 0)
(-0.00807533 0.165966 0)
(0.00896775 0.160237 0)
(0.0276185 0.154693 0)
(0.0473147 0.148937 0)
(0.0674723 0.142425 0)
(0.0874402 0.134539 0)
(0.10649 0.124653 0)
(0.123825 0.112181 0)
(0.138605 0.0966061 0)
(0.149975 0.0774684 0)
(0.157098 0.0543037 0)
(0.159165 0.0265295 0)
(0.155344 -0.00671531 0)
(0.144797 -0.0467731 0)
(0.126563 -0.0956122 0)
(0.0995681 -0.156004 0)
(0.0629204 -0.231521 0)
(0.0168066 -0.325274 0)
(-0.034302 -0.43403 0)
(-0.0733555 -0.531192 0)
(-0.0781355 -0.532842 0)
(-0.0318943 -0.291581 0)
(-0.0101048 0.0718103 0)
(-0.031689 0.147804 0)
(-0.0507807 0.179408 0)
(-0.0584098 0.187085 0)
(-0.0559164 0.183333 0)
(-0.0459755 0.174881 0)
(-0.0307372 0.165129 0)
(-0.0117848 0.155674 0)
(0.009766 0.147131 0)
(0.0331266 0.139584 0)
(0.0576885 0.1328 0)
(0.0829151 0.126376 0)
(0.108272 0.119807 0)
(0.133176 0.112539 0)
(0.156976 0.104017 0)
(0.178948 0.0937143 0)
(0.198312 0.0811485 0)
(0.214248 0.0658684 0)
(0.225916 0.0474076 0)
(0.232447 0.0252002 0)
(0.232852 -0.00154872 0)
(0.226115 -0.0340328 0)
(0.210949 -0.0739888 0)
(0.18574 -0.123994 0)
(0.148613 -0.187899 0)
(0.0977571 -0.27119 0)
(0.0332081 -0.377866 0)
(-0.0303383 -0.494306 0)
(-0.0695587 -0.546064 0)
(-0.0375356 -0.347265 0)
(-0.0195059 0.0984631 0)
(-0.0513084 0.173338 0)
(-0.0688902 0.191943 0)
(-0.0679691 0.186706 0)
(-0.05418 0.173157 0)
(-0.032535 0.157985 0)
(-0.00626304 0.143792 0)
(0.0226277 0.131433 0)
(0.0529204 0.121005 0)
(0.0838806 0.112274 0)
(0.115028 0.104851 0)
(0.145986 0.0982797 0)
(0.17639 0.092071 0)
(0.205825 0.0857295 0)
(0.233801 0.0787735 0)
(0.259735 0.0707494 0)
(0.282961 0.0612357 0)
(0.302735 0.0498303 0)
(0.31824 0.0361141 0)
(0.32857 0.0195946 0)
(0.332596 -0.000387956 0)
(0.329146 -0.0246901 0)
(0.31662 -0.0547438 0)
(0.293005 -0.0926851 0)
(0.255677 -0.141931 0)
(0.201385 -0.208738 0)
(0.126895 -0.302813 0)
(0.0402184 -0.426495 0)
(-0.0437932 -0.527685 0)
(-0.0371355 -0.403009 0)
(-0.0349732 0.142693 0)
(-0.0746355 0.198003 0)
(-0.070866 0.192791 0)
(-0.0448709 0.170339 0)
(-0.00811677 0.146588 0)
(0.0328352 0.12604 0)
(0.0746631 0.109335 0)
(0.115809 0.096042 0)
(0.155613 0.0855215 0)
(0.193865 0.0771538 0)
(0.230538 0.0703806 0)
(0.265644 0.0647002 0)
(0.299148 0.0596563 0)
(0.330919 0.0548314 0)
(0.360709 0.0498432 0)
(0.388141 0.0443438 0)
(0.412712 0.0380161 0)
(0.433791 0.0305621 0)
(0.45063 0.0216777 0)
(0.462337 0.0110091 0)
(0.467831 -0.00193542 0)
(0.465827 -0.0176316 0)
(0.45446 -0.0370346 0)
(0.431552 -0.0616705 0)
(0.393979 -0.0940745 0)
(0.33789 -0.139649 0)
(0.256873 -0.209933 0)
(0.152713 -0.32438 0)
(0.0152697 -0.465615 0)
(-0.0171648 -0.441626 0)
(-0.0377853 0.235446 0)
(-0.0487817 0.202543 0)
(0.0256947 0.152012 0)
(0.0973208 0.116572 0)
(0.164481 0.0905159 0)
(0.225298 0.0715653 0)
(0.279466 0.0580201 0)
(0.327664 0.0482795 0)
(0.370842 0.0411441 0)
(0.409895 0.0358069 0)
(0.445559 0.0317112 0)
(0.478386 0.0284439 0)
(0.50874 0.025679 0)
(0.536802 0.0231484 0)
(0.562576 0.0206259 0)
(0.585898 0.0179172 0)
(0.606452 0.0148533 0)
(0.623767 0.0112819 0)
(0.637239 0.00706339 0)
(0.646035 0.00203893 0)
(0.649339 -0.00391226 0)
(0.645991 -0.0111992 0)
(0.634233 -0.0202184 0)
(0.612082 -0.0316809 0)
(0.576209 -0.0469012 0)
(0.522983 -0.0693149 0)
(0.442539 -0.107228 0)
(0.333337 -0.187782 0)
(0.143231 -0.335672 0)
(0.0605792 -0.412666 0)
(0.231218 0.158586 0)
(0.290937 0.116807 0)
(0.439739 0.0755985 0)
(0.537968 0.0503174 0)
(0.604621 0.0341064 0)
(0.65409 0.0235047 0)
(0.692536 0.0166716 0)
(0.72327 0.0122836 0)
(0.748566 0.00942479 0)
(0.769997 0.00751818 0)
(0.788604 0.00620752 0)
(0.80506 0.00526429 0)
(0.819781 0.00453439 0)
(0.832992 0.00390909 0)
(0.844764 0.00330861 0)
(0.85504 0.00267198 0)
(0.863656 0.00195191 0)
(0.870356 0.00110714 0)
(0.87481 0.000112258 0)
(0.876616 -0.00107646 0)
(0.875233 -0.00237118 0)
(0.869949 -0.00399414 0)
(0.859947 -0.00602925 0)
(0.844248 -0.0086141 0)
(0.820479 -0.0120204 0)
(0.786907 -0.0173076 0)
(0.73181 -0.0266769 0)
(0.655288 -0.048703 0)
(0.453901 -0.109863 0)
(0.313134 -0.177404 0)
)
;

boundaryField
{
    movingWall
    {
        type            fixedValue;
        value           uniform (1 0 0);
    }
    fixedWalls
    {
        type            noSlip;
    }
    frontAndBack
    {
        type            empty;
    }
}


// ************************************************************************* //
