/*--------------------------------*- C++ -*----------------------------------*\
  =========                 |
  \\      /  F ield         | OpenFOAM: The Open Source CFD Toolbox
   \\    /   O peration     | Website:  https://openfoam.org
    \\  /    A nd           | Version:  7
     \\/     M anipulation  |
\*---------------------------------------------------------------------------*/
FoamFile
{
    version     2.0;
    format      ascii;
    class       volVectorField;
    location    "0.16";
    object      U;
}
// * * * * * * * * * * * * * * * * * * * * * * * * * * * * * * * * * * * * * //

dimensions      [0 1 -1 0 0 0 0];

internalField   nonuniform List<vector> 
1936
(
(-10.9919 3.10579 0)
(-69.9914 199.863 0)
(-18.4496 434.54 0)
(7.01241 423.957 0)
(-5.69881 385.41 0)
(4.62295 395.545 0)
(14.114 378.523 0)
(20.7895 329.506 0)
(13.8667 285.061 0)
(0.0835048 274.428 0)
(-9.18568 289.154 0)
(-24.0383 373.635 0)
(-10.5062 483.897 0)
(31.3321 428.33 0)
(25.2015 278.595 0)
(2.73396 228.414 0)
(-9.19361 233.382 0)
(-36.4394 333.301 0)
(-11.409 488.746 0)
(36.2845 442.693 0)
(26.811 282.737 0)
(9.72005 225.537 0)
(-3.63955 222.943 0)
(-26.9042 285.647 0)
(-31.8668 445.752 0)
(13.3842 482.754 0)
(31.2795 332.352 0)
(6.39903 232.21 0)
(-7.40804 222.453 0)
(-27.7597 263.493 0)
(-37.2048 422.251 0)
(10.7575 503.921 0)
(34.8159 368.794 0)
(13.9069 244.649 0)
(-0.335423 223.77 0)
(-16.7827 239.852 0)
(-38.2184 366.098 0)
(-9.24388 503.701 0)
(36.1653 423.401 0)
(26.8293 265.04 0)
(7.94687 221.657 0)
(-4.91641 225.155 0)
(-29.4847 306.06 0)
(-25.9895 467.341 0)
(-12.1625 7.54779 0)
(-77.0232 -0.0881583 0)
(-21.8684 -4.69272 0)
(5.48511 -2.30728 0)
(-7.86251 -0.771707 0)
(3.20265 -1.58934 0)
(13.3741 -1.35512 0)
(18.8074 0.031342 0)
(11.0394 1.78814 0)
(0.603682 2.51056 0)
(-5.96616 1.88332 0)
(-23.7754 -0.793847 0)
(-11.3094 -3.86398 0)
(32.3404 -2.74468 0)
(21.9512 1.37523 0)
(-0.199924 3.83148 0)
(-4.32726 3.28847 0)
(-33.7432 -1.1415 0)
(-11.8634 -5.03555 0)
(38.4223 -2.94204 0)
(24.1853 1.07244 0)
(5.03934 3.34709 0)
(0.0559114 3.67961 0)
(-24.4222 1.25518 0)
(-33.2623 -2.99316 0)
(14.333 -4.36556 0)
(30.051 -0.543368 0)
(2.13472 3.27792 0)
(-4.55004 3.90562 0)
(-22.4838 1.3689 0)
(-37.4295 -3.45779 0)
(11.7048 -4.83156 0)
(35.3437 -1.13153 0)
(9.36688 2.53498 0)
(-0.61672 3.77851 0)
(-11.506 2.68509 0)
(-37.44 -1.54959 0)
(-9.5823 -5.04463 0)
(37.2121 -3.20119 0)
(22.1721 1.23638 0)
(4.21482 3.63963 0)
(-0.522214 3.53412 0)
(-27.5327 0.426207 0)
(-27.7025 -3.89309 0)
(-3.06004 15.7636 0)
(-72.4423 0.488579 0)
(-25.1819 -10.2325 0)
(3.93142 -4.89513 0)
(-5.91786 -1.49253 0)
(2.9244 -3.33544 0)
(12.5769 -2.79026 0)
(17.9692 0.216786 0)
(9.47164 3.65778 0)
(-1.35245 4.86492 0)
(-8.20282 4.00713 0)
(-25.7184 -1.34666 0)
(-11.501 -8.50341 0)
(34.475 -5.77477 0)
(23.9385 3.32162 0)
(1.30826 7.46 0)
(-2.4823 6.77006 0)
(-35.1085 -1.58008 0)
(-16.571 -10.7991 0)
(37.5341 -6.35161 0)
(25.8139 2.89213 0)
(3.24726 6.71795 0)
(-2.09508 7.29226 0)
(-27.1831 3.05324 0)
(-33.6299 -6.51927 0)
(17.2267 -9.5292 0)
(33.0215 -0.626061 0)
(4.8082 6.66218 0)
(-1.50195 7.59181 0)
(-21.0552 3.48672 0)
(-39.7653 -6.87314 0)
(10.5567 -10.6244 0)
(37.49 -2.02818 0)
(11.5338 5.49976 0)
(0.128556 7.31946 0)
(-11.6026 5.78304 0)
(-39.1669 -2.7457 0)
(-10.0336 -11.0045 0)
(39.0137 -6.46909 0)
(22.4187 3.2494 0)
(1.97245 7.12767 0)
(-3.23411 7.08494 0)
(-30.4434 1.43936 0)
(-29.2283 -8.49744 0)
(5.78364 22.1768 0)
(-60.3158 2.01738 0)
(-23.0036 -14.2492 0)
(-1.75 -7.65805 0)
(-7.33586 -2.5396 0)
(0.525249 -4.75416 0)
(7.48682 -3.91199 0)
(10.7705 0.505221 0)
(3.51024 5.26336 0)
(-2.70657 6.73808 0)
(-4.60812 5.62632 0)
(-18.2811 -1.99012 0)
(-9.09518 -12.5042 0)
(27.1511 -8.30091 0)
(15.7859 4.92042 0)
(-0.542494 10.322 0)
(4.08368 9.72385 0)
(-23.8124 -1.42211 0)
(-15.461 -15.3654 0)
(27.8944 -9.4593 0)
(17.2541 4.45845 0)
(-2.21919 9.69611 0)
(0.436524 10.226 0)
(-19.0212 4.34928 0)
(-25.303 -9.71886 0)
(14.987 -13.8658 0)
(23.9142 -0.694664 0)
(1.21765 9.29253 0)
(2.78016 10.5951 0)
(-9.78414 5.59174 0)
(-30.6886 -9.34407 0)
(7.39543 -15.5232 0)
(28.0197 -2.98266 0)
(5.8516 7.95009 0)
(0.306431 10.3064 0)
(-3.93957 8.42669 0)
(-28.6366 -3.66543 0)
(-7.71289 -15.9685 0)
(30.0287 -9.05791 0)
(12.5444 5.18668 0)
(-2.585 10.1224 0)
(-0.251064 9.92251 0)
(-21.2085 2.13599 0)
(-23.358 -12.4567 0)
(13.4701 27.0729 0)
(-49.5403 4.21702 0)
(-20.2695 -16.5048 0)
(-6.04636 -10.2549 0)
(-8.83909 -4.1115 0)
(-2.42393 -5.93387 0)
(1.97339 -4.61648 0)
(3.80737 0.856245 0)
(-1.57507 6.35245 0)
(-3.6227 7.83213 0)
(-2.18209 6.39817 0)
(-12.1035 -2.68411 0)
(-6.90434 -15.2003 0)
(20.2089 -9.92162 0)
(9.47886 5.98217 0)
(-2.61137 11.9973 0)
(8.22925 11.5326 0)
(-14.1915 -0.86986 0)
(-13.8852 -18.0017 0)
(18.9255 -11.6817 0)
(10.7632 5.54385 0)
(-6.117 11.7311 0)
(3.39198 12.0332 0)
(-12.3611 5.04848 0)
(-17.5542 -12.0125 0)
(12.6708 -16.6256 0)
(16.1931 -0.743226 0)
(-1.96541 10.7737 0)
(5.08048 12.4135 0)
(-1.60099 7.20685 0)
(-22.2931 -10.5912 0)
(4.47403 -18.7061 0)
(19.7604 -3.80433 0)
(1.37486 9.50278 0)
(0.126486 12.2502 0)
(2.0118 10.1206 0)
(-19.4254 -4.19205 0)
(-5.49149 -19.1362 0)
(21.7876 -10.6045 0)
(5.32954 6.66652 0)
(-5.55495 12.0901 0)
(2.99472 11.5933 0)
(-13.7327 2.47982 0)
(-17.8163 -15.0637 0)
(19.5561 30.3146 0)
(-38.6611 6.91435 0)
(-16.5277 -17.0349 0)
(-8.33818 -12.3472 0)
(-10.1951 -5.93171 0)
(-5.38815 -6.80498 0)
(-3.16824 -4.91564 0)
(-2.21644 1.13502 0)
(-5.26798 6.74008 0)
(-3.75774 8.06394 0)
(-0.170248 6.34096 0)
(-7.15305 -3.34396 0)
(-5.06319 -16.5318 0)
(13.7025 -10.6288 0)
(4.19056 6.51908 0)
(-4.44812 12.5402 0)
(10.1781 12.109 0)
(-6.42695 -0.07796 0)
(-11.6083 -18.6536 0)
(11.1395 -12.9168 0)
(5.51076 6.02355 0)
(-8.05281 12.6576 0)
(5.91991 12.7169 0)
(-6.47853 5.21884 0)
(-10.7759 -13.3078 0)
(10.1216 -17.728 0)
(9.6747 -0.637434 0)
(-5.27619 11.1849 0)
(5.43493 13.0069 0)
(3.87324 8.10612 0)
(-14.893 -10.6734 0)
(2.07901 -20.0635 0)
(12.6479 -4.37385 0)
(-2.74164 10.0992 0)
(-0.277878 13.0435 0)
(6.57589 10.7453 0)
(-11.704 -4.27809 0)
(-3.56366 -20.4023 0)
(14.4367 -11.1114 0)
(-0.0481617 7.52627 0)
(-6.8145 12.9098 0)
(6.14328 12.1382 0)
(-7.52502 2.608 0)
(-12.7332 -16.2692 0)
(22.9659 31.6239 0)
(-26.76 9.80262 0)
(-11.5001 -15.8925 0)
(-8.44814 -13.5677 0)
(-10.7309 -7.59527 0)
(-7.6709 -7.34614 0)
(-7.01067 -4.87499 0)
(-6.50406 1.17568 0)
(-7.21692 6.33789 0)
(-3.33178 7.42412 0)
(1.36685 5.59572 0)
(-3.43483 -3.88013 0)
(-3.56461 -16.485 0)
(7.7612 -10.4338 0)
(-0.239361 6.48447 0)
(-5.13205 12.0472 0)
(9.8856 11.549 0)
(-0.76811 0.702593 0)
(-8.59554 -17.4973 0)
(4.95506 -13.0264 0)
(1.28757 5.78975 0)
(-7.86863 12.4411 0)
(6.80917 12.3573 0)
(-1.35476 4.89691 0)
(-5.27879 -13.4765 0)
(7.23392 -17.2338 0)
(4.45356 -0.311909 0)
(-7.47335 10.7103 0)
(4.31209 12.4085 0)
(6.97063 8.11389 0)
(-8.61609 -9.78262 0)
(0.403087 -19.608 0)
(6.77157 -4.56985 0)
(-5.88999 9.76774 0)
(-0.57334 12.6031 0)
(9.08016 10.3344 0)
(-5.62178 -3.94572 0)
(-1.974 -19.7933 0)
(8.06078 -10.6504 0)
(-3.91846 7.62507 0)
(-6.3911 12.5687 0)
(7.65481 11.6983 0)
(-2.57694 2.55111 0)
(-8.16312 -16.0687 0)
(23.4042 30.7061 0)
(-13.4896 12.3618 0)
(-5.4553 -13.1617 0)
(-6.52356 -13.5339 0)
(-9.82249 -8.69966 0)
(-8.62443 -7.51774 0)
(-8.91746 -4.64368 0)
(-8.58124 0.858924 0)
(-7.47528 5.25158 0)
(-2.5936 6.11795 0)
(2.28339 4.35269 0)
(-0.841618 -4.2759 0)
(-2.35648 -15.151 0)
(2.64085 -9.4201 0)
(-3.68441 5.87283 0)
(-4.78322 10.6581 0)
(8.08251 10.0725 0)
(2.87431 1.22109 0)
(-5.14723 -14.9237 0)
(0.628129 -11.9691 0)
(-1.91901 4.92154 0)
(-6.51484 11.2078 0)
(6.25286 11.0687 0)
(2.77553 4.15612 0)
(-1.3102 -12.4537 0)
(4.11709 -15.3328 0)
(0.54968 0.0375401 0)
(-7.82642 9.58206 0)
(2.86406 10.8334 0)
(8.21313 7.31171 0)
(-3.5461 -8.26008 0)
(-0.491972 -17.5357 0)
(2.20804 -4.38179 0)
(-7.5174 8.68146 0)
(-0.5803 11.0675 0)
(9.38669 9.11286 0)
(-1.21399 -3.36693 0)
(-0.679518 -17.5322 0)
(2.85281 -9.36495 0)
(-6.4282 6.98387 0)
(-5.11118 11.2165 0)
(7.39235 10.4422 0)
(1.15863 2.25016 0)
(-4.20578 -14.5679 0)
(20.2216 27.4673 0)
(-0.798821 13.911 0)
(0.929108 -9.09516 0)
(-2.97505 -12.0372 0)
(-7.2655 -8.89558 0)
(-7.92239 -7.25807 0)
(-8.82854 -4.35662 0)
(-8.55573 0.222572 0)
(-6.48819 3.7092 0)
(-1.73771 4.41836 0)
(2.59434 2.81751 0)
(0.775884 -4.41393 0)
(-1.53232 -12.8015 0)
(-1.25039 -7.76722 0)
(-5.844 4.73414 0)
(-4.05154 8.61829 0)
(5.84214 8.02453 0)
(4.67169 1.29275 0)
(-2.04619 -11.4934 0)
(-1.824 -9.89515 0)
(-4.00594 3.64533 0)
(-5.0168 9.2505 0)
(5.07143 9.07187 0)
(5.39269 3.10759 0)
(1.03915 -10.3535 0)
(1.27636 -12.3984 0)
(-2.19699 0.176323 0)
(-6.8413 7.96224 0)
(1.91358 8.66092 0)
(7.96325 5.93639 0)
(0.0499843 -6.4209 0)
(-0.746695 -14.2461 0)
(-0.950441 -3.84261 0)
(-7.55069 7.02611 0)
(-0.439753 8.82014 0)
(8.2103 7.36515 0)
(1.7229 -2.73243 0)
(0.288633 -14.047 0)
(-0.770797 -7.44143 0)
(-7.44419 5.71683 0)
(-3.75649 9.16732 0)
(6.2413 8.5953 0)
(3.71256 1.67195 0)
(-1.11852 -12.0387 0)
(14.0372 22.4655 0)
(7.89215 13.8438 0)
(6.29916 -4.47062 0)
(1.22498 -9.21719 0)
(-3.55239 -8.0049 0)
(-5.74588 -6.52669 0)
(-7.15377 -4.01103 0)
(-7.02534 -0.559605 0)
(-4.88751 2.00414 0)
(-0.998164 2.60333 0)
(2.37511 1.2612 0)
(1.4898 -4.19406 0)
(-1.20659 -9.85588 0)
(-3.497 -5.80559 0)
(-6.41132 3.24538 0)
(-3.37026 6.25225 0)
(3.81499 5.76727 0)
(4.78326 0.971665 0)
(-0.0533941 -7.87689 0)
(-2.69097 -7.19635 0)
(-4.77159 2.31121 0)
(-3.69561 6.88823 0)
(3.82033 6.68064 0)
(6.00275 1.98496 0)
(2.02462 -7.5845 0)
(-0.554611 -8.96649 0)
(-3.67949 0.119922 0)
(-5.32772 5.99059 0)
(1.39749 6.30993 0)
(6.63323 4.25561 0)
(2.07431 -4.54154 0)
(-0.635219 -10.3503 0)
(-2.65916 -3.01944 0)
(-6.3334 5.03865 0)
(-0.31832 6.35503 0)
(6.35797 5.32437 0)
(3.2663 -2.07445 0)
(0.739105 -9.99808 0)
(-2.55213 -5.21269 0)
(-6.84999 4.11252 0)
(-2.61327 6.78599 0)
(4.92309 6.39494 0)
(4.86397 0.965418 0)
(0.753962 -8.89661 0)
(7.67107 16.8747 0)
(10.4432 12.1448 0)
(8.90116 -0.528467 0)
(4.64758 -5.73469 0)
(0.168222 -6.16425 0)
(-2.80243 -5.31257 0)
(-4.5633 -3.53297 0)
(-4.73796 -1.23742 0)
(-3.16045 0.467476 0)
(-0.433538 0.953771 0)
(1.8659 -0.0514425 0)
(1.45423 -3.63075 0)
(-1.19969 -6.85522 0)
(-4.10052 -3.96197 0)
(-5.57071 1.7414 0)
(-2.70825 3.91155 0)
(2.12457 3.59982 0)
(3.6392 0.520687 0)
(0.677827 -4.70875 0)
(-2.45744 -4.46747 0)
(-4.19197 1.25458 0)
(-2.49654 4.47574 0)
(2.61277 4.28939 0)
(4.88473 1.06762 0)
(2.06279 -4.77975 0)
(-1.20495 -5.6349 0)
(-3.74641 0.0148457 0)
(-3.68339 3.93899 0)
(0.98655 4.11571 0)
(4.73399 2.60669 0)
(2.65433 -2.88476 0)
(-0.361356 -6.56041 0)
(-2.95008 -2.08542 0)
(-4.48957 3.09781 0)
(-0.243819 4.0652 0)
(4.31356 3.31938 0)
(3.39604 -1.41776 0)
(0.71762 -6.13403 0)
(-2.77474 -3.11352 0)
(-5.11111 2.5808 0)
(-1.66277 4.4339 0)
(3.5556 4.14456 0)
(4.53697 0.387868 0)
(1.44569 -5.72007 0)
(3.80302 11.7806 0)
(8.51706 9.53605 0)
(8.49945 1.93858 0)
(6.03228 -2.58544 0)
(2.6327 -3.88378 0)
(-0.133385 -3.77593 0)
(-1.88032 -2.8713 0)
(-2.35279 -1.61504 0)
(-1.51925 -0.616051 0)
(0.090387 -0.297708 0)
(1.40378 -0.933351 0)
(1.0881 -2.85909 0)
(-1.05177 -4.30997 0)
(-3.39635 -2.54717 0)
(-3.99703 0.5546 0)
(-2.0271 1.95158 0)
(0.841583 1.83435 0)
(2.05715 0.149888 0)
(0.560928 -2.40629 0)
(-1.74457 -2.3053 0)
(-2.85148 0.572733 0)
(-1.46072 2.45461 0)
(1.54419 2.33882 0)
(3.09939 0.481204 0)
(1.55832 -2.52121 0)
(-1.01801 -2.96113 0)
(-2.72473 -0.0323626 0)
(-2.17207 2.18995 0)
(0.616435 2.31347 0)
(2.87845 1.31299 0)
(2.17424 -1.6171 0)
(-0.14007 -3.51581 0)
(-2.25177 -1.24331 0)
(-2.674 1.56906 0)
(-0.180531 2.21868 0)
(2.47921 1.71461 0)
(2.47564 -0.826426 0)
(0.469988 -3.1056 0)
(-2.06795 -1.50523 0)
(-3.11267 1.41042 0)
(-0.916317 2.47946 0)
(2.23488 2.25001 0)
(3.21797 0.0534184 0)
(1.29858 -3.09639 0)
(2.11368 7.9122 0)
(5.26882 6.89253 0)
(6.17147 2.83995 0)
(5.23109 -0.380831 0)
(3.27796 -1.82949 0)
(1.41117 -2.27183 0)
(0.105481 -2.11734 0)
(-0.401657 -1.67479 0)
(-0.132733 -1.23598 0)
(0.575141 -1.06995 0)
(1.11152 -1.34627 0)
(0.750755 -2.09285 0)
(-0.647878 -2.50715 0)
(-2.099 -1.61002 0)
(-2.39079 -0.166882 0)
(-1.36278 0.616914 0)
(0.0967591 0.636388 0)
(0.822376 -0.0729619 0)
(0.219898 -1.0509 0)
(-0.994749 -0.97996 0)
(-1.5265 0.195098 0)
(-0.723609 1.08454 0)
(0.767697 1.04359 0)
(1.57771 0.185278 0)
(0.890375 -1.07217 0)
(-0.565691 -1.23376 0)
(-1.46536 -0.0166913 0)
(-1.04031 0.996568 0)
(0.364022 1.06572 0)
(1.50244 0.50164 0)
(1.30295 -0.782145 0)
(-0.0158254 -1.54543 0)
(-1.25427 -0.627912 0)
(-1.33564 0.608806 0)
(-0.124 0.973124 0)
(1.17541 0.695675 0)
(1.31984 -0.379121 0)
(0.2288 -1.20712 0)
(-1.1355 -0.514227 0)
(-1.54096 0.678797 0)
(-0.410887 1.14512 0)
(1.19643 0.972747 0)
(1.77443 -0.0687779 0)
(0.809343 -1.35402 0)
(1.24708 5.41089 0)
(2.74881 4.84217 0)
(3.6597 2.71769 0)
(3.50773 0.778587 0)
(2.66584 -0.449665 0)
(1.74395 -1.1374 0)
(1.02509 -1.45252 0)
(0.664203 -1.52372 0)
(0.655611 -1.47376 0)
(0.823593 -1.38998 0)
(0.873648 -1.38986 0)
(0.527169 -1.48876 0)
(-0.221345 -1.44757 0)
(-0.948473 -1.04584 0)
(-1.14859 -0.482018 0)
(-0.764672 -0.102929 0)
(-0.14839 -0.0215669 0)
(0.195685 -0.195378 0)
(0.00757633 -0.437164 0)
(-0.458659 -0.368685 0)
(-0.647703 0.0152744 0)
(-0.298827 0.341754 0)
(0.306279 0.341148 0)
(0.636063 0.0560679 0)
(0.379235 -0.337053 0)
(-0.221437 -0.368232 0)
(-0.582425 0.0131424 0)
(-0.376093 0.350458 0)
(0.209662 0.361241 0)
(0.672786 0.112587 0)
(0.601206 -0.320474 0)
(0.0292643 -0.539804 0)
(-0.516152 -0.264385 0)
(-0.549945 0.144777 0)
(-0.0787974 0.300465 0)
(0.438616 0.202825 0)
(0.520595 -0.109999 0)
(0.0895031 -0.291867 0)
(-0.449656 -0.0484575 0)
(-0.587373 0.301505 0)
(-0.11971 0.412438 0)
(0.546025 0.305895 0)
(0.769122 -0.0585833 0)
(0.377015 -0.435003 0)
(0.743634 3.81925 0)
(1.52962 3.52755 0)
(2.09425 2.34748 0)
(2.19332 1.17345 0)
(1.91827 0.234193 0)
(1.50673 -0.464347 0)
(1.15207 -0.967636 0)
(0.913669 -1.26937 0)
(0.785502 -1.38562 0)
(0.701401 -1.34943 0)
(0.566624 -1.23013 0)
(0.32425 -1.0887 0)
(0.000470126 -0.931917 0)
(-0.287766 -0.748064 0)
(-0.402259 -0.557518 0)
(-0.315435 -0.403366 0)
(-0.137847 -0.306216 0)
(-0.0300305 -0.263616 0)
(-0.061549 -0.23627 0)
(-0.169647 -0.166405 0)
(-0.210295 -0.0590907 0)
(-0.102371 0.0285838 0)
(0.0876362 0.0480593 0)
(0.188551 0.0126766 0)
(0.108553 -0.0448315 0)
(-0.0604875 -0.0391333 0)
(-0.151985 0.0278959 0)
(-0.0748402 0.0762947 0)
(0.111993 0.0544856 0)
(0.250303 -0.0177034 0)
(0.221434 -0.107832 0)
(0.0334538 -0.144253 0)
(-0.148871 -0.093495 0)
(-0.167131 -0.0209137 0)
(-0.0355406 0.0178439 0)
(0.11139 0.0193234 0)
(0.140868 0.00572442 0)
(0.0329014 0.0267575 0)
(-0.103006 0.100301 0)
(-0.130276 0.138911 0)
(0.0159959 0.107436 0)
(0.218543 0.0569783 0)
(0.261738 -0.00316466 0)
(0.131512 -0.0498643 0)
(0.469461 2.71993 0)
(1.04178 2.64332 0)
(1.44486 1.96308 0)
(1.56232 1.2337 0)
(1.49343 0.521703 0)
(1.29559 -0.102872 0)
(1.04769 -0.608364 0)
(0.822529 -0.960332 0)
(0.626862 -1.13132 0)
(0.452963 -1.13181 0)
(0.2918 -1.01519 0)
(0.147421 -0.856465 0)
(0.0287035 -0.715785 0)
(-0.0575096 -0.616568 0)
(-0.104136 -0.545406 0)
(-0.107903 -0.476997 0)
(-0.0854871 -0.39274 0)
(-0.0669315 -0.293522 0)
(-0.061108 -0.201137 0)
(-0.0612028 -0.134803 0)
(-0.0548681 -0.0964106 0)
(-0.0299204 -0.0686286 0)
(0.00886789 -0.0357146 0)
(0.0320843 -0.00287778 0)
(0.022499 0.0268861 0)
(-0.00229492 0.0379952 0)
(-0.00831334 0.0204985 0)
(0.01945 -0.0112405 0)
(0.0607612 -0.0355189 0)
(0.0823112 -0.0401945 0)
(0.0672404 -0.0309135 0)
(0.0237171 -0.0296049 0)
(-0.0178431 -0.0343808 0)
(-0.0267232 -0.0520555 0)
(-0.00746531 -0.0562871 0)
(0.0147809 -0.0273276 0)
(0.0205697 0.0299136 0)
(0.016857 0.0861646 0)
(0.0156135 0.110436 0)
(0.0218933 0.0795913 0)
(0.0491721 0.0303562 0)
(0.0824769 0.0146648 0)
(0.075889 0.0394718 0)
(0.0372632 0.0671334 0)
(0.29717 1.89719 0)
(0.733451 1.94859 0)
(1.08184 1.57464 0)
(1.23637 1.12321 0)
(1.24384 0.631603 0)
(1.14872 0.133692 0)
(0.974534 -0.297968 0)
(0.757545 -0.62218 0)
(0.541209 -0.806142 0)
(0.349019 -0.852907 0)
(0.194939 -0.800765 0)
(0.0867606 -0.706168 0)
(0.0228292 -0.617527 0)
(-0.0124351 -0.555639 0)
(-0.0366461 -0.510734 0)
(-0.0558547 -0.460088 0)
(-0.0674856 -0.388842 0)
(-0.0690635 -0.301738 0)
(-0.0587169 -0.218665 0)
(-0.0409784 -0.158267 0)
(-0.0257296 -0.121167 0)
(-0.0176403 -0.0918604 0)
(-0.012685 -0.055667 0)
(-0.00571101 -0.0158439 0)
(0.00548772 0.0138022 0)
(0.0169609 0.0194263 0)
(0.0276527 0.00120972 0)
(0.0375631 -0.0259846 0)
(0.0410326 -0.0403471 0)
(0.036848 -0.0337414 0)
(0.028766 -0.0173916 0)
(0.0216229 -0.0112833 0)
(0.0164983 -0.0224742 0)
(0.0128789 -0.0393505 0)
(0.0064341 -0.0431018 0)
(-0.00205348 -0.019007 0)
(-0.00219988 0.024064 0)
(0.0123711 0.0650323 0)
(0.0308781 0.0777513 0)
(0.0390446 0.0596374 0)
(0.0374016 0.0357642 0)
(0.0290996 0.0380453 0)
(0.0154162 0.0656548 0)
(0.00562796 0.0835874 0)
(0.178071 1.28684 0)
(0.470769 1.37917 0)
(0.741685 1.18764 0)
(0.908733 0.925947 0)
(0.976967 0.61185 0)
(0.957223 0.273742 0)
(0.86452 -0.0513091 0)
(0.719967 -0.313941 0)
(0.553522 -0.489379 0)
(0.391883 -0.574139 0)
(0.255162 -0.588951 0)
(0.153079 -0.564638 0)
(0.0836641 -0.528824 0)
(0.037005 -0.495011 0)
(0.00233471 -0.461209 0)
(-0.0258435 -0.418658 0)
(-0.0462491 -0.362556 0)
(-0.05536 -0.297469 0)
(-0.0522141 -0.234058 0)
(-0.041183 -0.181155 0)
(-0.0297478 -0.139532 0)
(-0.022464 -0.103321 0)
(-0.0173345 -0.0675423 0)
(-0.0089133 -0.0348195 0)
(0.00506752 -0.0130503 0)
(0.0207388 -0.0079063 0)
(0.0324443 -0.0144399 0)
(0.0368543 -0.024616 0)
(0.0339156 -0.0286164 0)
(0.0281251 -0.0240163 0)
(0.0246974 -0.0165318 0)
(0.0244136 -0.0139813 0)
(0.0237932 -0.0190481 0)
(0.0194031 -0.0248695 0)
(0.0101429 -0.0230492 0)
(0.000282107 -0.00697583 0)
(-0.00219545 0.0183334 0)
(0.00525391 0.0419941 0)
(0.0152789 0.0537391 0)
(0.0189689 0.0536216 0)
(0.0148573 0.0520277 0)
(0.00633564 0.0603582 0)
(-0.000708015 0.0778665 0)
(-0.00109489 0.0817126 0)
(0.101941 0.855404 0)
(0.278525 0.940798 0)
(0.459596 0.844814 0)
(0.59416 0.700845 0)
(0.678378 0.515486 0)
(0.706766 0.304478 0)
(0.684821 0.0907717 0)
(0.621297 -0.0978994 0)
(0.529371 -0.243481 0)
(0.426834 -0.339428 0)
(0.328435 -0.391612 0)
(0.243065 -0.412934 0)
(0.173197 -0.415917 0)
(0.116849 -0.407491 0)
(0.0709266 -0.389286 0)
(0.0335531 -0.360589 0)
(0.00489945 -0.321976 0)
(-0.0135917 -0.277167 0)
(-0.0221316 -0.231373 0)
(-0.0234805 -0.18854 0)
(-0.0210755 -0.149831 0)
(-0.0171147 -0.114506 0)
(-0.0117151 -0.0824237 0)
(-0.0042405 -0.0556504 0)
(0.00576284 -0.0373616 0)
(0.0165491 -0.0284401 0)
(0.0245394 -0.026036 0)
(0.0278589 -0.0255015 0)
(0.0270475 -0.0232482 0)
(0.0244171 -0.0186405 0)
(0.0224053 -0.0141915 0)
(0.0212311 -0.0123363 0)
(0.0190887 -0.012769 0)
(0.0143026 -0.0122013 0)
(0.00697681 -0.00729463 0)
(-0.00015745 0.00372389 0)
(-0.00390107 0.0184947 0)
(-0.00348896 0.032981 0)
(-0.00120937 0.0441742 0)
(-0.000397735 0.0521763 0)
(-0.00197704 0.0596627 0)
(-0.00427904 0.0690903 0)
(-0.0050835 0.0794661 0)
(-0.00148647 0.0756525 0)
(0.0583327 0.560374 0)
(0.161814 0.624509 0)
(0.273546 0.574238 0)
(0.36478 0.495719 0)
(0.434024 0.391178 0)
(0.47472 0.268241 0)
(0.485665 0.138669 0)
(0.46845 0.0144883 0)
(0.429716 -0.0916164 0)
(0.37871 -0.174755 0)
(0.322459 -0.234077 0)
(0.266341 -0.272831 0)
(0.21365 -0.295163 0)
(0.165935 -0.304141 0)
(0.123466 -0.301429 0)
(0.0866551 -0.28832 0)
(0.0563754 -0.266619 0)
(0.0330922 -0.239134 0)
(0.0166923 -0.208752 0)
(0.00623044 -0.177739 0)
(0.000375498 -0.147444 0)
(-0.0019894 -0.118729 0)
(-0.001525 -0.0926653 0)
(0.00123062 -0.0706605 0)
(0.00543467 -0.0536808 0)
(0.00980302 -0.0418541 0)
(0.0131059 -0.033785 0)
(0.0146517 -0.0274505 0)
(0.0144632 -0.0215575 0)
(0.013218 -0.0158892 0)
(0.0115603 -0.0110893 0)
(0.00958246 -0.00757621 0)
(0.00684428 -0.00469605 0)
(0.00294109 -0.00100743 0)
(-0.00171301 0.00476138 0)
(-0.00622967 0.0129916 0)
(-0.00963614 0.0226539 0)
(-0.0112565 0.0326144 0)
(-0.011487 0.0420653 0)
(-0.0111626 0.0508662 0)
(-0.0104931 0.0592588 0)
(-0.00884966 0.067175 0)
(-0.00654471 0.0737391 0)
(-0.0014005 0.0674553 0)
(0.0339172 0.35988 0)
(0.0955638 0.403513 0)
(0.162928 0.375544 0)
(0.220314 0.331866 0)
(0.267669 0.273479 0)
(0.300906 0.203819 0)
(0.318826 0.128067 0)
(0.32169 0.0522371 0)
(0.310371 -0.0181203 0)
(0.288248 -0.0786733 0)
(0.259906 -0.127848 0)
(0.228009 -0.165317 0)
(0.194739 -0.191667 0)
(0.161742 -0.207724 0)
(0.130265 -0.214395 0)
(0.101444 -0.212588 0)
(0.0759651 -0.203742 0)
(0.0542948 -0.189568 0)
(0.0368231 -0.171812 0)
(0.0233807 -0.151991 0)
(0.0135197 -0.131301 0)
(0.00672996 -0.110712 0)
(0.00252077 -0.0912677 0)
(0.000359864 -0.0738234 0)
(-0.000422762 -0.0589568 0)
(-0.000551044 -0.0467038 0)
(-0.000639722 -0.0365834 0)
(-0.00106633 -0.0279564 0)
(-0.00192319 -0.0203329 0)
(-0.00309098 -0.01355 0)
(-0.00446235 -0.00763973 0)
(-0.00613885 -0.0024899 0)
(-0.00813786 0.00230362 0)
(-0.0103837 0.0073175 0)
(-0.0128024 0.0130128 0)
(-0.0150014 0.0194141 0)
(-0.0165497 0.0263746 0)
(-0.0171644 0.0335505 0)
(-0.0168058 0.0406583 0)
(-0.0155918 0.0475163 0)
(-0.013497 0.0539216 0)
(-0.0102544 0.0595186 0)
(-0.00670133 0.0637515 0)
(-0.00151106 0.0573053 0)
(0.019811 0.222706 0)
(0.0571777 0.250374 0)
(0.0975194 0.234443 0)
(0.132755 0.209981 0)
(0.16309 0.177586 0)
(0.186228 0.138848 0)
(0.201429 0.0960209 0)
(0.208535 0.0517554 0)
(0.208479 0.00853082 0)
(0.20161 -0.0308565 0)
(0.188659 -0.0652633 0)
(0.171669 -0.0937449 0)
(0.152171 -0.115862 0)
(0.131333 -0.131537 0)
(0.110174 -0.140963 0)
(0.0895912 -0.144586 0)
(0.0703207 -0.143154 0)
(0.052907 -0.137488 0)
(0.0376892 -0.128594 0)
(0.0248153 -0.117415 0)
(0.0143258 -0.104792 0)
(0.00586499 -0.0914784 0)
(-0.000786595 -0.0781554 0)
(-0.00571426 -0.065399 0)
(-0.00933174 -0.0536174 0)
(-0.0119805 -0.0429923 0)
(-0.0139909 -0.0335007 0)
(-0.0156239 -0.0250089 0)
(-0.0170022 -0.017378 0)
(-0.0181912 -0.0105167 0)
(-0.019262 -0.00433568 0)
(-0.0202385 0.00126186 0)
(-0.0211136 0.00646752 0)
(-0.0219059 0.0114616 0)
(-0.0224957 0.0164426 0)
(-0.0227031 0.0215107 0)
(-0.0223515 0.0266312 0)
(-0.0213079 0.0317038 0)
(-0.0196071 0.0366147 0)
(-0.017276 0.0412388 0)
(-0.0142584 0.0454153 0)
(-0.010426 0.0489326 0)
(-0.00637184 0.0515085 0)
(-0.00171454 0.0457896 0)
(0.0123039 0.131086 0)
(0.0367585 0.147386 0)
(0.0624405 0.13834 0)
(0.0853704 0.124701 0)
(0.105694 0.10685 0)
(0.122054 0.0855645 0)
(0.134048 0.0618638 0)
(0.141434 0.0369623 0)
(0.144377 0.0121114 0)
(0.143101 -0.0118104 0)
(0.137913 -0.0334911 0)
(0.129471 -0.0522874 0)
(0.118547 -0.0677232 0)
(0.105891 -0.0795356 0)
(0.092201 -0.0876603 0)
(0.0781105 -0.092216 0)
(0.0641757 -0.0934855 0)
(0.0508549 -0.0918759 0)
(0.0384926 -0.0878768 0)
(0.0273132 -0.0820042 0)
(0.0174388 -0.0747667 0)
(0.00889099 -0.0666762 0)
(0.00161904 -0.0580946 0)
(-0.00445696 -0.049435 0)
(-0.00944041 -0.0409921 0)
(-0.0134803 -0.0329639 0)
(-0.0167375 -0.0254597 0)
(-0.0193334 -0.0185198 0)
(-0.0213707 -0.0121463 0)
(-0.0229035 -0.00632332 0)
(-0.0241058 -0.00101703 0)
(-0.0249872 0.00382386 0)
(-0.0255037 0.00827423 0)
(-0.0256475 0.0124215 0)
(-0.0253116 0.0163541 0)
(-0.0245344 0.020103 0)
(-0.0233248 0.0236752 0)
(-0.0216225 0.0270559 0)
(-0.0193833 0.030207 0)
(-0.0166297 0.0330701 0)
(-0.0133909 0.0355676 0)
(-0.00963455 0.0376049 0)
(-0.00567481 0.0390591 0)
(-0.0017336 0.0344537 0)
(0.00872621 0.0730544 0)
(0.02724 0.081918 0)
(0.0460467 0.0767296 0)
(0.0632413 0.0690275 0)
(0.078812 0.0590434 0)
(0.0918785 0.0471777 0)
(0.10217 0.0339359 0)
(0.109445 0.0199103 0)
(0.113702 0.00572856 0)
(0.115084 -0.00805903 0)
(0.113743 -0.0208627 0)
(0.109878 -0.0322086 0)
(0.103846 -0.04176 0)
(0.0961306 -0.0492955 0)
(0.0871933 -0.0547097 0)
(0.0774629 -0.0580073 0)
(0.0673355 -0.0592916 0)
(0.0571602 -0.058748 0)
(0.0472286 -0.0566209 0)
(0.0377702 -0.0531897 0)
(0.0289538 -0.0487471 0)
(0.0208896 -0.0435821 0)
(0.0136334 -0.037963 0)
(0.00720015 -0.0321325 0)
(0.00157528 -0.0262942 0)
(-0.0032778 -0.0206064 0)
(-0.00740585 -0.0151813 0)
(-0.0108661 -0.0100903 0)
(-0.0137166 -0.00536693 0)
(-0.0159919 -0.0010349 0)
(-0.0177383 0.00288695 0)
(-0.0190483 0.00645578 0)
(-0.0199113 0.00968924 0)
(-0.020269 0.0126592 0)
(-0.0201481 0.0153821 0)
(-0.0195815 0.01788 0)
(-0.0185963 0.0201693 0)
(-0.0171995 0.0222543 0)
(-0.015372 0.0241299 0)
(-0.0131279 0.0257814 0)
(-0.0105145 0.0271821 0)
(-0.00753921 0.0282954 0)
(-0.00436783 0.0290707 0)
(-0.00143258 0.0255091 0)
(0.00685129 0.0349571 0)
(0.0222953 0.0388911 0)
(0.0374588 0.0359552 0)
(0.0516102 0.0316897 0)
(0.0646721 0.0262236 0)
(0.0759942 0.0197594 0)
(0.0853649 0.0125631 0)
(0.0925872 0.00490567 0)
(0.0975287 -0.00284413 0)
(0.10022 -0.0103353 0)
(0.100783 -0.0173023 0)
(0.0993316 -0.0234596 0)
(0.0960931 -0.0286033 0)
(0.0913379 -0.0325912 0)
(0.0853602 -0.0353456 0)
(0.0784588 -0.0368521 0)
(0.0709217 -0.0371552 0)
(0.0630159 -0.0363497 0)
(0.0549806 -0.0345699 0)
(0.0470219 -0.0319763 0)
(0.0393112 -0.0287442 0)
(0.0319826 -0.0250518 0)
(0.0251318 -0.0210697 0)
(0.0188213 -0.0169545 0)
(0.0130938 -0.0128422 0)
(0.00796963 -0.00884193 0)
(0.00343977 -0.00503672 0)
(-0.000525997 -0.00148847 0)
(-0.00389614 0.0017708 0)
(-0.00670248 0.00471644 0)
(-0.00901604 0.00734647 0)
(-0.0108347 0.00968029 0)
(-0.0121651 0.0117442 0)
(-0.0130159 0.013563 0)
(-0.0134005 0.0151655 0)
(-0.0133403 0.0165795 0)
(-0.012871 0.017828 0)
(-0.0120274 0.0189265 0)
(-0.0108248 0.0198851 0)
(-0.00928588 0.0207067 0)
(-0.00745798 0.0213876 0)
(-0.0053628 0.0219178 0)
(-0.00308191 0.0222783 0)
(-0.00106486 0.0194656 0)
(0.00551056 0.00812228 0)
(0.0185053 0.00861955 0)
(0.0308127 0.00712742 0)
(0.0424932 0.00505463 0)
(0.053483 0.00245116 0)
(0.0631119 -0.000603272 0)
(0.0711473 -0.00398147 0)
(0.077508 -0.00746198 0)
(0.0822219 -0.010931 0)
(0.0851666 -0.0141998 0)
(0.0863695 -0.017129 0)
(0.085967 -0.0195778 0)
(0.0840688 -0.0214373 0)
(0.0808474 -0.0226343 0)
(0.076506 -0.0231319 0)
(0.0712591 -0.0229276 0)
(0.0653215 -0.0220535 0)
(0.0589022 -0.0205707 0)
(0.052204 -0.0185643 0)
(0.0454176 -0.0161378 0)
(0.038703 -0.0133985 0)
(0.0321895 -0.0104585 0)
(0.0259809 -0.0074244 0)
(0.0201543 -0.00439074 0)
(0.014777 -0.00144357 0)
(0.00989422 0.00134312 0)
(0.00552244 0.00391338 0)
(0.00167124 0.00623587 0)
(-0.0016782 0.00828387 0)
(-0.00452619 0.0100576 0)
(-0.00685674 0.0115641 0)
(-0.00868542 0.0128156 0)
(-0.0100357 0.0138363 0)
(-0.0109369 0.0146637 0)
(-0.0113996 0.0153167 0)
(-0.0114362 0.0158293 0)
(-0.0110815 0.016235 0)
(-0.0103675 0.0165577 0)
(-0.00932266 0.0168169 0)
(-0.0079853 0.0170271 0)
(-0.0064025 0.0171963 0)
(-0.00460002 0.0173242 0)
(-0.00263078 0.0174068 0)
(-0.000915075 0.0151543 0)
(0.00410819 -0.0103038 0)
(0.0143525 -0.0120694 0)
(0.0233074 -0.0126038 0)
(0.0318287 -0.0132185 0)
(0.0399416 -0.0139216 0)
(0.0470425 -0.0146926 0)
(0.0530772 -0.0154783 0)
(0.0578456 -0.0161634 0)
(0.0611949 -0.0167117 0)
(0.0631762 -0.0170801 0)
(0.0637826 -0.0171876 0)
(0.0630377 -0.016986 0)
(0.0610447 -0.016443 0)
(0.0579417 -0.015545 0)
(0.0538879 -0.0142955 0)
(0.0490528 -0.0127153 0)
(0.043616 -0.0108368 0)
(0.0377568 -0.00870894 0)
(0.0316555 -0.00639907 0)
(0.0255189 -0.00400663 0)
(0.0195049 -0.00156053 0)
(0.0137137 0.000873524 0)
(0.0082487 0.00322656 0)
(0.00318424 0.00543622 0)
(-0.00143708 0.00745688 0)
(-0.00557056 0.00924991 0)
(-0.00917064 0.0107893 0)
(-0.0122166 0.0120668 0)
(-0.0147091 0.0130762 0)
(-0.0166584 0.0138349 0)
(-0.0180813 0.014357 0)
(-0.0189989 0.0146648 0)
(-0.0194247 0.0147874 0)
(-0.0194133 0.0147557 0)
(-0.0190112 0.0146041 0)
(-0.018208 0.014368 0)
(-0.0170097 0.0140818 0)
(-0.0154507 0.0137782 0)
(-0.0135816 0.0134847 0)
(-0.0114491 0.0132221 0)
(-0.00907229 0.0130043 0)
(-0.0064534 0.0128359 0)
(-0.00367254 0.0127196 0)
(-0.00120801 0.0110358 0)
(0.00227028 -0.0212628 0)
(0.0088824 -0.0242512 0)
(0.01367 -0.0241806 0)
(0.0184022 -0.0238401 0)
(0.0229636 -0.0232743 0)
(0.0267408 -0.0224912 0)
(0.0296204 -0.0214822 0)
(0.0314882 -0.0202955 0)
(0.0322478 -0.0188706 0)
(0.0318776 -0.0172229 0)
(0.0304005 -0.0153627 0)
(0.0278585 -0.0133115 0)
(0.0243463 -0.0110984 0)
(0.0199887 -0.00875337 0)
(0.0149208 -0.00631408 0)
(0.00930672 -0.00382105 0)
(0.00334802 -0.0013207 0)
(-0.00276927 0.0011431 0)
(-0.00894519 0.00347793 0)
(-0.0149769 0.00573765 0)
(-0.0206642 0.00782217 0)
(-0.0259562 0.00969197 0)
(-0.0307728 0.0113188 0)
(-0.0350216 0.0126761 0)
(-0.0386345 0.0137502 0)
(-0.0415736 0.0145386 0)
(-0.0438154 0.0150467 0)
(-0.045351 0.0152821 0)
(-0.0461866 0.0152649 0)
(-0.0463421 0.0150232 0)
(-0.0458497 0.0145874 0)
(-0.0447496 0.0139918 0)
(-0.0430854 0.0132726 0)
(-0.0409117 0.0124576 0)
(-0.0382873 0.0115986 0)
(-0.035265 0.0107283 0)
(-0.031902 0.00987537 0)
(-0.0282447 0.00907139 0)
(-0.0243194 0.00834364 0)
(-0.0201527 0.00771367 0)
(-0.015768 0.0071972 0)
(-0.0111582 0.00680181 0)
(-0.00639445 0.00653574 0)
(-0.0020359 0.00561018 0)
(0.000158314 -0.0254658 0)
(0.00239099 -0.0287895 0)
(0.00227796 -0.0283804 0)
(0.00247529 -0.0274285 0)
(0.00262334 -0.0260091 0)
(0.00210706 -0.0241707 0)
(0.000819248 -0.0219611 0)
(-0.00128087 -0.0194345 0)
(-0.00431134 -0.016642 0)
(-0.00825912 -0.0136435 0)
(-0.0129783 -0.0104987 0)
(-0.0184233 -0.00727807 0)
(-0.0244718 -0.00405186 0)
(-0.030985 -0.000882367 0)
(-0.0378547 0.00217337 0)
(-0.0448674 0.00506043 0)
(-0.0518458 0.00772022 0)
(-0.0587332 0.0101025 0)
(-0.0652718 0.0122244 0)
(-0.07137 0.0140545 0)
(-0.077023 0.0155267 0)
(-0.0820322 0.0166249 0)
(-0.0862892 0.0173479 0)
(-0.0897188 0.0177036 0)
(-0.0922613 0.0177026 0)
(-0.0938794 0.0173647 0)
(-0.094553 0.0167173 0)
(-0.0942779 0.0157941 0)
(-0.093065 0.0146359 0)
(-0.0909403 0.0132882 0)
(-0.0879456 0.0117991 0)
(-0.0841356 0.010217 0)
(-0.0795691 0.00859064 0)
(-0.0743126 0.00696759 0)
(-0.0684657 0.00539481 0)
(-0.0621423 0.00390957 0)
(-0.0554329 0.00254176 0)
(-0.0484118 0.00131518 0)
(-0.0411502 0.000247312 0)
(-0.0337159 -0.000649571 0)
(-0.026154 -0.00137026 0)
(-0.01844 -0.00191742 0)
(-0.0106069 -0.00229071 0)
(-0.00333981 -0.00217023 0)
(-0.0021959 -0.0237041 0)
(-0.00505825 -0.0266508 0)