/*--------------------------------*- C++ -*----------------------------------*\
  =========                 |
  \\      /  F ield         | OpenFOAM: The Open Source CFD Toolbox
   \\    /   O peration     | Website:  https://openfoam.org
    \\  /    A nd           | Version:  7
     \\/     M anipulation  |
\*---------------------------------------------------------------------------*/
FoamFile
{
    version     2.0;
    format      ascii;
    class       volScalarField;
    location    "8.8";
    object      p;
}
// * * * * * * * * * * * * * * * * * * * * * * * * * * * * * * * * * * * * * //

dimensions      [0 2 -2 0 0 0 0];

internalField   nonuniform List<scalar> 
900
(
8.17864e-07
-0.000150081
-0.000344416
-0.000519783
-0.000642711
-0.000693484
-0.000664751
-0.000554809
-0.000363547
-9.0937e-05
0.000262938
0.000696896
0.00120715
0.00178561
0.00241839
0.00308478
0.00375707
0.00440155
0.00498108
0.00545887
0.00580333
0.00599315
0.00602178
0.00589998
0.00565647
0.0053353
0.0049863
0.00468018
0.00446984
0.00441764
0.000150519
-4.44757e-06
-0.00014203
-0.000257261
-0.000329767
-0.000344945
-0.000296498
-0.000181775
6.14885e-07
0.000251479
0.000570935
0.000957708
0.00140805
0.00191451
0.00246473
0.00304043
0.00361903
0.00417183
0.00466805
0.00507762
0.00537511
0.00554406
0.00558049
0.00549482
0.00531173
0.00506778
0.00480611
0.00456898
0.00440786
0.0043625
0.000354757
0.000128048
-1.32237e-05
-0.000113315
-0.000168361
-0.000169286
-0.00011308
1.40224e-06
0.000175262
0.000409613
0.000705203
0.00106164
0.00147633
0.00194321
0.00245164
0.00298616
0.00352512
0.00404199
0.00450766
0.00489314
0.00517365
0.00533295
0.00536691
0.00528545
0.0051121
0.00488109
0.00463249
0.00440645
0.00424055
0.00416468
0.000543625
0.000231915
6.73902e-05
-3.49607e-05
-8.57839e-05
-8.18219e-05
-2.41944e-05
8.59188e-05
0.000248848
0.000465962
0.000738958
0.00106892
0.00145511
0.00189362
0.00237596
0.00288816
0.00341027
0.00391609
0.00437598
0.00475942
0.00503943
0.00519736
0.00522713
0.00513748
0.00495168
0.00470407
0.0044349
0.004185
0.00398812
0.00385816
0.000669093
0.000270637
7.69861e-05
-3.53137e-05
-8.94435e-05
-8.7257e-05
-3.38455e-05
6.72937e-05
0.000215728
0.000413202
0.000662646
0.000967044
0.00132805
0.00174439
0.00221008
0.00271287
0.00323458
0.00374834
0.00422272
0.00462382
0.00492017
0.00508841
0.0051184
0.00501657
0.00480586
0.00452224
0.00420888
0.00391079
0.00366231
0.00346214
0.000688718
0.000207823
-1.69457e-05
-0.000143893
-0.000207076
-0.000212713
-0.000169392
-8.26247e-05
4.6611e-05
0.000220646
0.000443915
0.000721684
0.0010585
0.00145635
0.00191224
0.00241591
0.00295244
0.00349291
0.00400345
0.00444529
0.00478015
0.00497707
0.00501912
0.00490819
0.00466611
0.00433131
0.00395256
0.00358316
0.00326225
0.0029764
0.000568647
1.2394e-05
-0.000243085
-0.000387296
-0.000463913
-0.000482945
-0.000455974
-0.000390151
-0.000286754
-0.000142669
4.82866e-05
0.000294015
0.000602485
0.000979642
0.00142613
0.00193358
0.00249772
0.0030818
0.00365083
0.00416042
0.00456315
0.00481694
0.00489392
0.00478769
0.00451665
0.00412153
0.00365913
0.0031956
0.00277988
0.00238792
0.000280262
-0.00034328
-0.000627881
-0.000790954
-0.00088489
-0.000923125
-0.000919853
-0.00088359
-0.000815775
-0.000712427
-0.000565492
-0.000364128
-9.63864e-05
0.000248649
0.000678788
0.00119619
0.00178026
0.00241724
0.00306602
0.00367477
0.00418447
0.00453748
0.00468893
0.00461782
0.00433411
0.00387888
0.00331867
0.00273785
0.00220065
0.00167043
-0.00020152
-0.000883886
-0.00119573
-0.00137925
-0.00149485
-0.00155925
-0.00158905
-0.0015941
-0.00157609
-0.00153034
-0.00144707
-0.00131242
-0.00110988
-0.000822287
-0.00043424
6.3786e-05
0.000665832
0.00135916
0.0021052
0.0028479
0.00351533
0.00402916
0.00431906
0.00433921
0.00408187
0.00358276
0.00291834
0.00219742
0.00150668
0.000793766
-0.000898482
-0.00163077
-0.00196811
-0.00217423
-0.00231699
-0.00241636
-0.00249147
-0.00255371
-0.0026055
-0.00264205
-0.0026524
-0.00261994
-0.00252327
-0.00233755
-0.00203688
-0.00159913
-0.00101478
-0.000282273
0.000566714
0.00147642
0.00236282
0.00312205
0.00364753
0.00385331
0.00369778
0.00319916
0.00243998
0.00156008
0.000678534
-0.000276795
-0.00182857
-0.00260125
-0.00296261
-0.00319432
-0.00337113
-0.00351649
-0.00365238
-0.00379238
-0.00394053
-0.00409307
-0.00423903
-0.00435999
-0.00442981
-0.00441498
-0.00427613
-0.00397251
-0.00347116
-0.00274737
-0.00181374
-0.000716357
0.000453757
0.00156495
0.00246268
0.00300023
0.00307656
0.00266939
0.00185521
0.000809583
-0.000302621
-0.00157684
-0.00300488
-0.00380774
-0.00419184
-0.00445289
-0.0046719
-0.0048762
-0.00509126
-0.00533388
-0.00561117
-0.00592218
-0.00625789
-0.0065998
-0.00691812
-0.00717028
-0.00730075
-0.00724312
-0.00692757
-0.00630777
-0.00534789
-0.00407127
-0.00256459
-0.000983479
0.000460716
0.00153688
0.00204868
0.0018945
0.00111756
-7.37757e-05
-0.00145275
-0.00313954
-0.00443446
-0.00525672
-0.00566235
-0.00595674
-0.00622655
-0.00650359
-0.00681775
-0.00719045
-0.00763383
-0.00815219
-0.00874118
-0.00938498
-0.0100523
-0.010692
-0.0112305
-0.011572
-0.0116052
-0.0112235
-0.0103469
-0.00894851
-0.00708869
-0.00493282
-0.00274858
-0.000871654
0.000363608
0.000718689
0.000152449
-0.00111487
-0.00278132
-0.00499038
-0.00611716
-0.00694799
-0.00737364
-0.00770472
-0.0080329
-0.00839524
-0.00882726
-0.00935674
-0.0100032
-0.0107789
-0.0116878
-0.01272
-0.0138458
-0.0150076
-0.0161131
-0.0170328
-0.0176046
-0.0176515
-0.0170311
-0.015635
-0.0134705
-0.0106863
-0.00758963
-0.00462609
-0.00230675
-0.00107909
-0.00115118
-0.00234436
-0.00428475
-0.00713785
-0.00804493
-0.0088743
-0.00931776
-0.00968678
-0.0100776
-0.0105334
-0.0110969
-0.011804
-0.0126841
-0.0137606
-0.0150487
-0.0165489
-0.0182364
-0.0200499
-0.0218795
-0.0235609
-0.0248785
-0.0255832
-0.0254223
-0.0242151
-0.0218784
-0.0185056
-0.0144047
-0.0101088
-0.00632157
-0.00376926
-0.00293937
-0.00379511
-0.00593507
-0.00955776
-0.0102017
-0.0110219
-0.0114796
-0.0118839
-0.0123352
-0.0128843
-0.0135824
-0.0144759
-0.015606
-0.01701
-0.0187175
-0.020742
-0.0230675
-0.025632
-0.0283106
-0.0309058
-0.0331485
-0.03471
-0.0352333
-0.0344483
-0.0321536
-0.0283478
-0.0232867
-0.017536
-0.0119635
-0.0076116
-0.00536765
-0.00548895
-0.00766156
-0.0121686
-0.0125647
-0.0133721
-0.0138386
-0.014269
-0.0147687
-0.0153975
-0.0162176
-0.0172874
-0.0186618
-0.0203935
-0.0225285
-0.0250955
-0.0280889
-0.0314485
-0.0350377
-0.0386291
-0.0419039
-0.0444591
-0.0458359
-0.0457142
-0.0437215
-0.0397396
-0.033921
-0.0267839
-0.0192799
-0.0127405
-0.00853614
-0.00740582
-0.00932309
-0.014797
-0.0151066
-0.0159047
-0.0163715
-0.0168096
-0.017331
-0.0180078
-0.0189156
-0.0201269
-0.0217114
-0.0237379
-0.0262687
-0.0293476
-0.0329799
-0.0371082
-0.0415867
-0.0461628
-0.0504744
-0.0540755
-0.0564767
-0.0571074
-0.0556292
-0.0517662
-0.045516
-0.0372642
-0.0279261
-0.0190161
-0.0123861
-0.00942559
-0.0106688
-0.017131
-0.0178001
-0.018603
-0.019057
-0.0194709
-0.0199682
-0.020638
-0.0215735
-0.0228632
-0.0245926
-0.0268455
-0.0296991
-0.0332102
-0.0373932
-0.0421926
-0.0474549
-0.0529083
-0.0581591
-0.0627165
-0.0660339
-0.067529
-0.0667193
-0.0632288
-0.0569031
-0.0479389
-0.0370934
-0.0258983
-0.0165758
-0.0112406
-0.0112856
-0.0186601
-0.0206248
-0.0214615
-0.021882
-0.0222208
-0.0226231
-0.0232033
-0.0240781
-0.0253549
-0.0271347
-0.0295149
-0.0325843
-0.0364092
-0.0410093
-0.0463285
-0.0522062
-0.0583561
-0.064364
-0.0697102
-0.0738127
-0.0760705
-0.0759286
-0.0729346
-0.0667978
-0.0575123
-0.0455939
-0.0324197
-0.0203803
-0.0122549
-0.0105334
-0.018597
-0.0235777
-0.0244971
-0.0248495
-0.0250344
-0.0252387
-0.0256155
-0.026313
-0.027461
-0.0291754
-0.031564
-0.0347233
-0.0387238
-0.0435856
-0.0492487
-0.0555443
-0.0621747
-0.0687124
-0.0746207
-0.0792975
-0.0821287
-0.082524
-0.0799823
-0.0741121
-0.0647306
-0.0520925
-0.0372982
-0.0226797
-0.011498
-0.00746867
-0.0157752
-0.0266921
-0.0277657
-0.0279884
-0.0278984
-0.0277606
-0.0277865
-0.0281658
-0.0290527
-0.0305762
-0.0328507
-0.0359744
-0.0400159
-0.0449902
-0.0508289
-0.0573529
-0.0642547
-0.0710993
-0.077338
-0.0823514
-0.0855125
-0.0862195
-0.083924
-0.0781839
-0.0686573
-0.0553866
-0.0391543
-0.0220598
-0.00760755
-0.000765088
-0.00852185
-0.0300738
-0.0313889
-0.0313657
-0.0308141
-0.030138
-0.0296316
-0.0295343
-0.0300239
-0.0312377
-0.0332895
-0.0362723
-0.0402459
-0.0452154
-0.0510988
-0.0577044
-0.0647111
-0.0716696
-0.0780229
-0.083145
-0.086389
-0.0871256
-0.0847473
-0.0788352
-0.0688035
-0.0546096
-0.0367382
-0.0169881
0.00110323
0.0113702
0.00549461
-0.0339786
-0.0355974
-0.0351018
-0.0337988
-0.0323228
-0.0310724
-0.0303353
-0.0303035
-0.0311116
-0.032863
-0.0356359
-0.0394751
-0.0443654
-0.0502084
-0.0567949
-0.0637888
-0.0707278
-0.077041
-0.0820833
-0.085176
-0.0856471
-0.0828357
-0.0761602
-0.0650729
-0.0493028
-0.0291143
-0.00601737
0.016571
0.0313184
0.0294207
-0.0389837
-0.0408019
-0.0393857
-0.0368837
-0.0342691
-0.0320423
-0.030514
-0.0298665
-0.0302118
-0.0316271
-0.0341681
-0.0378512
-0.0426373
-0.0484039
-0.0549206
-0.0618329
-0.0686612
-0.0748145
-0.079617
-0.0823411
-0.082244
-0.0785666
-0.0705966
-0.057677
-0.0393779
-0.0158141
0.0119175
0.0409224
0.0621342
0.0672053
-0.0463904
-0.0477064
-0.0444699
-0.0400951
-0.0359213
-0.0324794
-0.0300393
-0.0287276
-0.0286032
-0.0296996
-0.0320308
-0.0355794
-0.0402742
-0.0459632
-0.0523902
-0.0591786
-0.0658271
-0.0717187
-0.0761384
-0.0782967
-0.0773582
-0.0724064
-0.0625808
-0.0470278
-0.0251003
0.00328484
0.0371578
0.0758131
0.106948
0.12338
-0.0593891
-0.0575146
-0.0506306
-0.0433926
-0.037151
-0.0322645
-0.028841
-0.0268812
-0.0263468
-0.0271976
-0.0293912
-0.0328647
-0.0375079
-0.043136
-0.0494645
-0.0560927
-0.0624958
-0.0680279
-0.071932
-0.0733536
-0.0713546
-0.0648304
-0.0527097
-0.0338647
-0.00731008
0.0275119
0.0703485
0.120295
0.166926
0.204735
-0.0860891
-0.0717392
-0.0581208
-0.0465745
-0.0376195
-0.0310991
-0.0267225
-0.0242419
-0.0234554
-0.0242132
-0.0263982
-0.0298936
-0.0345487
-0.0401468
-0.0463787
-0.0528232
-0.0589357
-0.0640434
-0.067344
-0.0679147
-0.0647222
-0.0566094
-0.0421291
-0.0198029
0.0118683
0.0543006
0.108283
0.174196
0.242609
0.324922
-0.138228
-0.0870968
-0.0648674
-0.0474294
-0.0353447
-0.0274716
-0.0226364
-0.0201079
-0.0194584
-0.0204253
-0.022827
-0.026506
-0.0312856
-0.0369329
-0.0431288
-0.049447
-0.0553391
-0.0601269
-0.0629911
-0.0629571
-0.0588531
-0.049553
-0.0333945
-0.00848218
0.0273735
0.0770623
0.14371
0.232485
0.340159
0.509827
-0.311079
-0.0969442
-0.0478085
-0.0289224
-0.0181956
-0.0124825
-0.010037
-0.00960029
-0.0105951
-0.0128157
-0.0161661
-0.020556
-0.0258604
-0.0318892
-0.0383602
-0.0448791
-0.0509257
-0.0558466
-0.0588514
-0.0590199
-0.0552903
-0.0461496
-0.0300992
-0.00517988
0.0312324
0.0834876
0.158246
0.273265
0.448218
0.791958
)
;

boundaryField
{
    movingWall
    {
        type            zeroGradient;
    }
    fixedWalls
    {
        type            zeroGradient;
    }
    frontAndBack
    {
        type            empty;
    }
}


// ************************************************************************* //
