/*--------------------------------*- C++ -*----------------------------------*\
  =========                 |
  \\      /  F ield         | OpenFOAM: The Open Source CFD Toolbox
   \\    /   O peration     | Website:  https://openfoam.org
    \\  /    A nd           | Version:  7
     \\/     M anipulation  |
\*---------------------------------------------------------------------------*/
FoamFile
{
    version     2.0;
    format      ascii;
    class       volScalarField;
    location    "7";
    object      p;
}
// * * * * * * * * * * * * * * * * * * * * * * * * * * * * * * * * * * * * * //

dimensions      [0 2 -2 0 0 0 0];

internalField   nonuniform List<scalar> 
900
(
8.68622e-07
-0.00013637
-0.000299368
-0.000438803
-0.000522961
-0.000534538
-0.000467331
-0.000320377
-9.45344e-05
0.000208885
0.000588239
0.00104095
0.00156247
0.00214505
0.00277664
0.00344001
0.00411261
0.00476699
0.00537249
0.00589784
0.00631464
0.00660128
0.00674672
0.00675321
0.00663754
0.00643066
0.00617475
0.00591784
0.00572264
0.00564534
0.0001376
-2.74188e-06
-0.00011671
-0.000202853
-0.000243181
-0.000224473
-0.000141127
8.89474e-06
0.000226121
0.000510231
0.000860069
0.00127321
0.0017452
0.00226874
0.0028327
0.00342151
0.00401626
0.00459283
0.00512538
0.00558788
0.00595708
0.00621585
0.00635626
0.00638164
0.0063073
0.00615947
0.00597268
0.00578573
0.00563803
0.00556596
0.000308236
0.000107362
-9.44906e-06
-8.23756e-05
-0.000107758
-7.6957e-05
1.29882e-05
0.000162989
0.000373482
0.000644529
0.000975571
0.00136491
0.00180899
0.00230148
0.00283252
0.0033882
0.00395042
0.00449676
0.00500263
0.00544294
0.00579513
0.00604244
0.00617712
0.00620242
0.00613314
0.00599412
0.00581722
0.00563771
0.00548745
0.00537957
0.00045782
0.000184606
4.80441e-05
-2.68567e-05
-4.86763e-05
-1.35476e-05
7.81753e-05
0.000225583
0.000428566
0.000687443
0.00100242
0.00137291
0.00179669
0.00226894
0.00278125
0.00332089
0.00387067
0.00440854
0.00490955
0.00534753
0.00569831
0.00594337
0.00607344
0.00609089
0.00601031
0.0058567
0.00566213
0.00546213
0.00528434
0.00512495
0.000543731
0.000198622
3.76298e-05
-4.57592e-05
-7.0252e-05
-3.60195e-05
5.34613e-05
0.000195488
0.000389411
0.000635872
0.000936017
0.00129065
0.00169922
0.00215872
0.00266239
0.00319857
0.00375129
0.00429779
0.00481174
0.00526443
0.00562826
0.00588112
0.00601061
0.00601728
0.00591551
0.0057316
0.00550011
0.00526004
0.00503904
0.00482104
0.00053197
0.000119852
-6.69848e-05
-0.000162677
-0.000194342
-0.000165431
-8.20729e-05
5.15346e-05
0.000234384
0.00046761
0.000753502
0.0010945
0.00149204
0.00194524
0.00244915
0.00299313
0.00356439
0.00413699
0.00468276
0.00516923
0.00556365
0.00583817
0.00597528
0.00597224
0.00584277
0.0056154
0.00532943
0.0050308
0.00475165
0.00446764
0.000396896
-7.57415e-05
-0.000287934
-0.000397896
-0.000439864
-0.000419979
-0.000346534
-0.000224857
-5.60574e-05
0.000161697
0.000432048
0.000759339
0.00114731
0.00159759
0.00210817
0.00267171
0.00327131
0.00388558
0.00448245
0.00502417
0.0054709
0.00578657
0.00594576
0.00594002
0.00578116
0.00550027
0.00514354
0.00476756
0.00441326
0.00405028
0.000117794
-0.00040883
-0.000645055
-0.000770303
-0.000825055
-0.000817744
-0.000758428
-0.000653257
-0.000503224
-0.00030564
-5.53442e-05
0.000254143
0.000629267
0.0010748
0.00159207
0.0021767
0.00281454
0.00348426
0.00415137
0.0047727
0.00529955
0.00568445
0.0058901
0.00589831
0.00571607
0.00537622
0.00493367
0.00445983
0.00400879
0.00354386
-0.000323022
-0.000897591
-0.00115647
-0.00129792
-0.00136808
-0.00137746
-0.00133765
-0.00125544
-0.00113163
-0.000962639
-0.000741757
-0.00046022
-0.000108501
0.000322098
0.000837473
0.00143784
0.00211324
0.00284595
0.00360024
0.00432814
0.00497077
0.0054656
0.00575768
0.00581243
0.00562625
0.00523061
0.00468996
0.00409546
0.00351956
0.00291625
-0.000940871
-0.00155781
-0.00183825
-0.00199723
-0.00208615
-0.00211754
-0.00210446
-0.0020544
-0.00196809
-0.0018413
-0.00166596
-0.00143113
-0.00112398
-0.000731151
-0.000240613
0.000354883
0.0010526
0.00184432
0.00269565
0.00355683
0.00435905
0.00502111
0.00546273
0.00562244
0.00547533
0.00504392
0.0044006
0.00366183
0.00292541
0.00213108
-0.00174874
-0.00240276
-0.00270408
-0.0028826
-0.00299467
-0.00305496
-0.0030782
-0.00307287
-0.00304012
-0.00297563
-0.00287064
-0.00271255
-0.00248541
-0.00217071
-0.0017487
-0.0012013
-0.000517517
0.000305133
0.00124623
0.00225972
0.00327012
0.00417539
0.00486089
0.00522294
0.00519709
0.00478131
0.00404871
0.00314617
0.00220677
0.00115013
-0.00275693
-0.00344289
-0.00376485
-0.0039656
-0.00410626
-0.00420399
-0.00427559
-0.00433117
-0.0043732
-0.00439837
-0.00439848
-0.0043605
-0.00426629
-0.00409232
-0.00380978
-0.00338559
-0.00278673
-0.00199696
-0.0010044
0.00015939
0.00142138
0.00266099
0.00372095
0.00443567
0.004673
0.0043778
0.00360559
0.00253459
0.00134649
-6.43742e-05
-0.00397252
-0.00468548
-0.00502812
-0.00525425
-0.00542963
-0.00557444
-0.00570832
-0.00584403
-0.00598667
-0.00613568
-0.00628543
-0.00642469
-0.00653514
-0.00658943
-0.00654915
-0.00636386
-0.00597411
-0.00532399
-0.0043655
-0.0030938
-0.00156078
0.000105262
0.00170187
0.00298085
0.00370426
0.00371695
0.00301916
0.0018094
0.000332156
-0.00154648
-0.00539873
-0.00613417
-0.00649767
-0.00675218
-0.0069682
-0.00716967
-0.00738015
-0.00761646
-0.00788817
-0.00819976
-0.00855103
-0.00893578
-0.00933888
-0.00973182
-0.0100676
-0.0102763
-0.0102646
-0.00992307
-0.00915149
-0.00787694
-0.0061045
-0.0039473
-0.00164289
0.000464512
0.00198854
0.0026074
0.00219876
0.000945196
-0.000840054
-0.00332039
-0.00703449
-0.00778894
-0.00817324
-0.00845808
-0.00871887
-0.00898445
-0.00928368
-0.00963922
-0.0100673
-0.0105802
-0.0111867
-0.0118896
-0.0126816
-0.0135371
-0.0144034
-0.0151909
-0.0157679
-0.0159628
-0.0155883
-0.0144941
-0.0125942
-0.00994918
-0.00680274
-0.00358904
-0.000875683
0.000770728
0.00100189
-9.4096e-05
-0.00215773
-0.00538876
-0.0088744
-0.00964647
-0.0100508
-0.0103654
-0.010671
-0.011003
-0.0113973
-0.0118843
-0.0124894
-0.0132356
-0.014144
-0.0152312
-0.0165024
-0.0179404
-0.0194908
-0.0210462
-0.0224344
-0.0234126
-0.023687
-0.0230342
-0.0212121
-0.0181878
-0.0141639
-0.00962631
-0.00532415
-0.0021349
-0.000763742
-0.00135241
-0.00357802
-0.00771165
-0.0109095
-0.0117013
-0.0121236
-0.0124627
-0.0128062
-0.0131978
-0.0136828
-0.0143017
-0.015091
-0.016087
-0.0173266
-0.0188436
-0.0206603
-0.0227726
-0.0251294
-0.0276089
-0.03
-0.0319988
-0.0332287
-0.0332542
-0.0317714
-0.0285881
-0.0237987
-0.0178687
-0.0116763
-0.00642524
-0.00329958
-0.00286337
-0.00500336
-0.010172
-0.0131288
-0.0139484
-0.0143842
-0.0147351
-0.0150985
-0.0155292
-0.0160848
-0.016818
-0.0177784
-0.0190174
-0.0205892
-0.0225472
-0.0249333
-0.0277595
-0.0309817
-0.0344685
-0.0379756
-0.0411376
-0.0434818
-0.0444563
-0.0436025
-0.0405623
-0.0352732
-0.0280921
-0.0199203
-0.0122224
-0.00671749
-0.00460196
-0.00624304
-0.0125244
-0.015523
-0.0163872
-0.0168277
-0.0171665
-0.0175158
-0.0179463
-0.0185315
-0.0193386
-0.0204314
-0.0218768
-0.0237466
-0.0261135
-0.029039
-0.0325512
-0.0366142
-0.0410907
-0.0457106
-0.0500575
-0.0535806
-0.0556289
-0.0556166
-0.0530164
-0.047582
-0.0394856
-0.0295177
-0.0192528
-0.0108856
-0.00639084
-0.0069563
-0.0143231
-0.0180903
-0.0190284
-0.0194576
-0.0197431
-0.0200223
-0.0203891
-0.0209377
-0.0217522
-0.022911
-0.0244955
-0.0265932
-0.0292936
-0.0326745
-0.0367773
-0.0415722
-0.0469176
-0.0525234
-0.0579359
-0.0625533
-0.0656733
-0.0665458
-0.0645687
-0.0593093
-0.0507147
-0.0393483
-0.0266999
-0.0152535
-0.0077686
-0.0065752
-0.0148269
-0.0208463
-0.0219045
-0.0222922
-0.0224572
-0.0225805
-0.0227907
-0.0232091
-0.0239387
-0.0250718
-0.026702
-0.0289289
-0.031854
-0.0355662
-0.0401142
-0.0454698
-0.0514855
-0.0578574
-0.0641059
-0.0695933
-0.0735746
-0.0752481
-0.0739074
-0.0689844
-0.0602154
-0.0478835
-0.0332242
-0.0187512
-0.00784978
-0.00420828
-0.0128759
-0.0238429
-0.0250863
-0.0253752
-0.0253116
-0.0251537
-0.0250807
-0.0252482
-0.0257789
-0.026777
-0.0283442
-0.0305871
-0.0336133
-0.037516
-0.0423436
-0.0480623
-0.054519
-0.0613947
-0.0681959
-0.0742598
-0.0788103
-0.0810309
-0.0801399
-0.075472
-0.0665985
-0.0535372
-0.0371831
-0.0198414
-0.00525196
0.00146546
-0.00675051
-0.0272039
-0.0287091
-0.0287879
-0.0283234
-0.0277064
-0.027187
-0.0269599
-0.0271653
-0.0279136
-0.0293091
-0.0314587
-0.0344694
-0.0384311
-0.0433846
-0.0492823
-0.055968
-0.0630961
-0.0701677
-0.0765
-0.0812944
-0.0837252
-0.0829446
-0.0781999
-0.0689591
-0.0550262
-0.0369609
-0.0167292
0.00185606
0.0123036
0.00598147
-0.0312021
-0.0330168
-0.0326645
-0.0315241
-0.0302026
-0.0290373
-0.0282578
-0.0280118
-0.0284062
-0.0295386
-0.0315086
-0.0344145
-0.0383347
-0.0432982
-0.0492418
-0.0559781
-0.0631595
-0.0702612
-0.0765856
-0.0813117
-0.0835642
-0.0824374
-0.0771254
-0.0669628
-0.0515825
-0.0312801
-0.00765683
0.0156347
0.030821
0.0286011
-0.0364267
-0.0384304
-0.0372049
-0.034954
-0.0325987
-0.0305568
-0.0290668
-0.028261
-0.0282252
-0.029037
-0.0307789
-0.0335324
-0.037357
-0.0422595
-0.0481559
-0.0548328
-0.0619195
-0.0688658
-0.0749506
-0.0793147
-0.0810137
-0.0790936
-0.0725984
-0.0607314
-0.0429779
-0.0194252
0.00872665
0.0384143
0.0602396
0.0651983
-0.0441757
-0.0456507
-0.0426566
-0.0386261
-0.034813
-0.0316433
-0.0293025
-0.0278652
-0.0273684
-0.027851
-0.0293673
-0.0319697
-0.035691
-0.0405099
-0.0463131
-0.052859
-0.0597452
-0.0663933
-0.0720487
-0.0758022
-0.0766337
-0.0734463
-0.0651439
-0.0507276
-0.0294616
-0.00122783
0.0329979
0.0720177
0.103873
0.120427
-0.0575951
-0.0558343
-0.0492406
-0.0424295
-0.03663
-0.032077
-0.0287863
-0.0267101
-0.0257925
-0.02601
-0.027366
-0.0298746
-0.0335327
-0.0382837
-0.0439804
-0.050348
-0.0569525
-0.0631832
-0.0682476
-0.0711818
-0.0708798
-0.0660668
-0.0554636
-0.0377864
-0.0119544
0.0226095
0.0655966
0.115947
0.163116
0.201116
-0.0846629
-0.0703559
-0.0570736
-0.0460122
-0.0375528
-0.0314028
-0.0271721
-0.0245729
-0.0233942
-0.0235086
-0.0248503
-0.027383
-0.0310617
-0.0357935
-0.0413977
-0.0475688
-0.0538446
-0.0595839
-0.0639557
-0.0659444
-0.0643899
-0.057838
-0.0448051
-0.0236226
0.00732071
0.0494577
0.10351
0.169735
0.238572
0.320962
-0.136952
-0.0857423
-0.0639541
-0.0470236
-0.0354689
-0.0279912
-0.0233201
-0.0206857
-0.0196571
-0.0199979
-0.0215799
-0.0243254
-0.0281597
-0.0329664
-0.0385459
-0.0445781
-0.0505901
-0.0559323
-0.0597561
-0.0609929
-0.0583527
-0.0505798
-0.0358139
-0.0119987
0.0231407
0.072516
0.139193
0.228196
0.336144
0.505912
-0.309595
-0.0954919
-0.0467324
-0.0284084
-0.0182532
-0.0129792
-0.0107488
-0.0102617
-0.0109345
-0.0125849
-0.015167
-0.0186656
-0.0230521
-0.0282469
-0.0340817
-0.0402653
-0.0463534
-0.0517272
-0.05558
-0.0569164
-0.0545447
-0.0468699
-0.0321438
-0.00831332
0.0273346
0.0791947
0.153896
0.26908
0.444257
0.788085
)
;

boundaryField
{
    movingWall
    {
        type            zeroGradient;
    }
    fixedWalls
    {
        type            zeroGradient;
    }
    frontAndBack
    {
        type            empty;
    }
}


// ************************************************************************* //
