/*--------------------------------*- C++ -*----------------------------------*\
  =========                 |
  \\      /  F ield         | OpenFOAM: The Open Source CFD Toolbox
   \\    /   O peration     | Website:  https://openfoam.org
    \\  /    A nd           | Version:  7
     \\/     M anipulation  |
\*---------------------------------------------------------------------------*/
FoamFile
{
    version     2.0;
    format      ascii;
    class       volVectorField;
    location    "7";
    object      U;
}
// * * * * * * * * * * * * * * * * * * * * * * * * * * * * * * * * * * * * * //

dimensions      [0 1 -1 0 0 0 0];

internalField   nonuniform List<vector> 
900
(
(7.88779e-05 -7.78813e-05 0)
(6.29076e-05 3.26839e-06 0)
(-0.000268611 0.000102534 0)
(-0.000848209 0.000176972 0)
(-0.00160618 0.000223569 0)
(-0.00247789 0.000248406 0)
(-0.00340969 0.000258598 0)
(-0.0043614 0.000259344 0)
(-0.00530256 0.000253468 0)
(-0.0062076 0.000241891 0)
(-0.00705196 0.000224223 0)
(-0.00780952 0.000199297 0)
(-0.0084513 0.00016568 0)
(-0.00894566 0.000122162 0)
(-0.00925981 6.82692e-05 0)
(-0.00936275 4.65032e-06 0)
(-0.00922889 -6.70327e-05 0)
(-0.0088429 -0.000142624 0)
(-0.00820486 -0.000216637 0)
(-0.00733386 -0.000282359 0)
(-0.00627041 -0.000332531 0)
(-0.00507602 -0.00036042 0)
(-0.00382958 -0.000360975 0)
(-0.00262048 -0.000331834 0)
(-0.00153947 -0.00027392 0)
(-0.000667494 -0.000191644 0)
(-6.44232e-05 -9.37992e-05 0)
(0.000234612 4.67211e-06 0)
(0.000246964 8.51137e-05 0)
(9.43734e-05 9.40842e-05 0)
(-8.75318e-07 -6.54491e-05 0)
(-0.000394561 0.000390212 0)
(-0.00146571 0.000881385 0)
(-0.00304739 0.00127073 0)
(-0.00501677 0.00153835 0)
(-0.00724918 0.00169828 0)
(-0.00962913 0.00177313 0)
(-0.0120603 0.00178234 0)
(-0.0144623 0.00173816 0)
(-0.0167638 0.00164576 0)
(-0.0188967 0.00150484 0)
(-0.0207912 0.00131177 0)
(-0.022374 0.00106207 0)
(-0.0235693 0.000752811 0)
(-0.0243023 0.000385118 0)
(-0.0245062 -3.38565e-05 0)
(-0.0241289 -0.000489218 0)
(-0.0231431 -0.000957165 0)
(-0.021558 -0.00140635 0)
(-0.0194241 -0.00179987 0)
(-0.0168386 -0.00209923 0)
(-0.0139427 -0.00226963 0)
(-0.0109142 -0.00228576 0)
(-0.00795259 -0.00213699 0)
(-0.00525857 -0.00183084 0)
(-0.00301085 -0.00139453 0)
(-0.00134145 -0.000876755 0)
(-0.000313229 -0.000351197 0)
(0.000108311 8.27033e-05 0)
(8.94487e-05 0.000243739 0)
(-0.000108728 0.000272445 0)
(-0.000940798 0.00147497 0)
(-0.00277247 0.00265166 0)
(-0.00528402 0.00359334 0)
(-0.00830684 0.00426007 0)
(-0.0116811 0.00467209 0)
(-0.0152527 0.0048695 0)
(-0.0188877 0.00489008 0)
(-0.0224695 0.0047596 0)
(-0.025892 0.00449019 0)
(-0.0290525 0.00408277 0)
(-0.0318472 0.00353147 0)
(-0.0341696 0.00282909 0)
(-0.0359113 0.00197295 0)
(-0.0369683 0.000970504 0)
(-0.0372487 -0.00015576 0)
(-0.036683 -0.00136444 0)
(-0.0352375 -0.00259447 0)
(-0.0329276 -0.00376692 0)
(-0.0298258 -0.00479055 0)
(-0.0260675 -0.0055714 0)
(-0.0218491 -0.00602524 0)
(-0.0174168 -0.00609137 0)
(-0.0130473 -0.00574521 0)
(-0.00902031 -0.00500729 0)
(-0.00558582 -0.00394741 0)
(-0.00293063 -0.00268596 0)
(-0.00114483 -0.00139516 0)
(-0.000198002 -0.000302706 0)
(3.86962e-05 0.000263925 0)
(-0.000204989 0.000908142 0)
(-0.00145341 0.00317595 0)
(-0.00401257 0.00522602 0)
(-0.00738813 0.00684194 0)
(-0.011357 0.00798736 0)
(-0.0157287 0.00869813 0)
(-0.0203215 0.00903495 0)
(-0.0249758 0.00905477 0)
(-0.0295507 0.00879711 0)
(-0.0339153 0.00828113 0)
(-0.0379423 0.00750903 0)
(-0.0415027 0.00647293 0)
(-0.0444644 0.00516372 0)
(-0.0466941 0.00358064 0)
(-0.0480637 0.00174073 0)
(-0.0484599 -0.000313154 0)
(-0.0477957 -0.00250748 0)
(-0.0460262 -0.00473377 0)
(-0.0431646 -0.00685401 0)
(-0.0392929 -0.00870948 0)
(-0.0345701 -0.0101366 0)
(-0.0292315 -0.010988 0)
(-0.0235775 -0.0111567 0)
(-0.0179507 -0.0105982 0)
(-0.0127019 -0.00934709 0)
(-0.00814998 -0.00752495 0)
(-0.00453842 -0.00533959 0)
(-0.00199295 -0.00307981 0)
(-0.000504799 -0.00110907 0)
(-7.9778e-06 0.00010797 0)
(-0.000284684 0.00180825 0)
(-0.00190722 0.00545164 0)
(-0.00513697 0.00855038 0)
(-0.0093062 0.0109389 0)
(-0.0141337 0.0126166 0)
(-0.0193985 0.0136512 0)
(-0.0248959 0.0141307 0)
(-0.0304488 0.0141336 0)
(-0.0359004 0.0137136 0)
(-0.0411047 0.0128964 0)
(-0.0459177 0.0116847 0)
(-0.0501929 0.0100678 0)
(-0.0537787 0.00803427 0)
(-0.0565207 0.00558487 0)
(-0.0582678 0.00274663 0)
(-0.0588831 -0.000415929 0)
(-0.0582551 -0.00379417 0)
(-0.0563161 -0.00722634 0)
(-0.0530635 -0.010507 0)
(-0.0485729 -0.0133981 0)
(-0.0430117 -0.0156516 0)
(-0.0366424 -0.0170408 0)
(-0.0298141 -0.0173966 0)
(-0.022937 -0.0166433 0)
(-0.0164426 -0.0148257 0)
(-0.010733 -0.0121222 0)
(-0.00612518 -0.00884116 0)
(-0.00279614 -0.00540461 0)
(-0.000768975 -0.00232414 0)
(-3.75892e-05 -0.000200142 0)
(-0.000350377 0.00293904 0)
(-0.00230296 0.00824947 0)
(-0.00613932 0.012568 0)
(-0.0110321 0.0158228 0)
(-0.0166434 0.01808 0)
(-0.0227222 0.0194577 0)
(-0.0290446 0.0200817 0)
(-0.0354213 0.0200565 0)
(-0.0416875 0.0194511 0)
(-0.0476892 0.0182978 0)
(-0.0532739 0.0165982 0)
(-0.0582839 0.0143369 0)
(-0.0625531 0.0114968 0)
(-0.0659075 0.00807713 0)
(-0.0681707 0.00411065 0)
(-0.0691767 -0.000319312 0)
(-0.0687771 -0.00506475 0)
(-0.0668643 -0.00991443 0)
(-0.0634008 -0.0145882 0)
(-0.0584345 -0.0187557 0)
(-0.0521224 -0.0220654 0)
(-0.0447423 -0.0241876 0)
(-0.0366893 -0.0248663 0)
(-0.0284516 -0.0239737 0)
(-0.0205632 -0.0215534 0)
(-0.0135388 -0.0178422 0)
(-0.0078001 -0.0132643 0)
(-0.00359972 -0.00839978 0)
(-0.00100246 -0.00393465 0)
(-5.12164e-05 -0.000629346 0)
(-0.000405772 0.00426941 0)
(-0.00264909 0.0115125 0)
(-0.00703007 0.0172129 0)
(-0.0125803 0.0214247 0)
(-0.0189099 0.0243083 0)
(-0.0257407 0.0260509 0)
(-0.0328332 0.0268277 0)
(-0.0399916 0.0267757 0)
(-0.0470491 0.025982 0)
(-0.0538519 0.0244848 0)
(-0.0602459 0.0222832 0)
(-0.0660688 0.0193531 0)
(-0.0711441 0.0156665 0)
(-0.07528 0.0112141 0)
(-0.0782717 0.00602684 0)
(-0.0799091 0.000198813 0)
(-0.0799968 -0.00609261 0)
(-0.0783707 -0.0125861 0)
(-0.0749262 -0.0189227 0)
(-0.0696565 -0.0246667 0)
(-0.062683 -0.0293394 0)
(-0.0542811 -0.0324748 0)
(-0.0448877 -0.0336921 0)
(-0.0350815 -0.0327756 0)
(-0.0255297 -0.0297438 0)
(-0.0169039 -0.0248884 0)
(-0.00977778 -0.0187683 0)
(-0.0045176 -0.012159 0)
(-0.00124745 -0.00596755 0)
(-5.59981e-05 -0.00116604 0)
(-0.000453599 0.00577412 0)
(-0.00295387 0.0151896 0)
(-0.00782273 0.0224233 0)
(-0.0139695 0.0276817 0)
(-0.0209592 0.031242 0)
(-0.0284909 0.0333794 0)
(-0.0363142 0.0343304 0)
(-0.0442325 0.0342719 0)
(-0.0520841 0.0333125 0)
(-0.0597225 0.0314973 0)
(-0.067 0.02882 0)
(-0.0737568 0.0252426 0)
(-0.0798108 0.0207184 0)
(-0.0849534 0.0152182 0)
(-0.0889479 0.0087587 0)
(-0.091535 0.00142996 0)
(-0.0924513 -0.00657941 0)
(-0.0914476 -0.0149619 0)
(-0.0883251 -0.02328 0)
(-0.0829866 -0.0309802 0)
(-0.0754828 -0.0374284 0)
(-0.0660583 -0.0419779 0)
(-0.0551786 -0.0440674 0)
(-0.043522 -0.0433371 0)
(-0.0319233 -0.0397373 0)
(-0.0212686 -0.0335995 0)
(-0.0123514 -0.0256382 0)
(-0.00571042 -0.0168779 0)
(-0.00156326 -0.0085188 0)
(-6.1115e-05 -0.00182501 0)
(-0.000495318 0.00743241 0)
(-0.00322275 0.0192356 0)
(-0.00852738 0.0281438 0)
(-0.0152139 0.034537 0)
(-0.0228095 0.0388302 0)
(-0.0309963 0.0414029 0)
(-0.0395181 0.0425658 0)
(-0.0481837 0.0425438 0)
(-0.056844 0.0414719 0)
(-0.0653676 0.0394025 0)
(-0.0736222 0.0363218 0)
(-0.081458 0.0321711 0)
(-0.0886943 0.0268741 0)
(-0.0951087 0.0203668 0)
(-0.100431 0.0126313 0)
(-0.104344 0.00373202 0)
(-0.106501 -0.00614886 0)
(-0.10654 -0.016679 0)
(-0.104134 -0.0273487 0)
(-0.0990535 -0.0374766 0)
(-0.0912321 -0.0462418 0)
(-0.0808421 -0.0527625 0)
(-0.0683485 -0.0562218 0)
(-0.0545246 -0.0560318 0)
(-0.0404033 -0.0520023 0)
(-0.0271522 -0.0444668 0)
(-0.0158758 -0.0343122 0)
(-0.00737435 -0.0228821 0)
(-0.00202075 -0.0117733 0)
(-7.64754e-05 -0.00265609 0)
(-0.000531405 0.00922581 0)
(-0.00345803 0.023609 0)
(-0.00914877 0.034322 0)
(-0.0163196 0.0419367 0)
(-0.0244674 0.047024 0)
(-0.0332621 0.0500835 0)
(-0.0424481 0.0515129 0)
(-0.0518456 0.0515944 0)
(-0.0613253 0.0504946 0)
(-0.0707801 0.0482755 0)
(-0.080102 0.0449129 0)
(-0.0891611 0.0403203 0)
(-0.0977858 0.0343788 0)
(-0.105746 0.0269704 0)
(-0.11274 0.0180174 0)
(-0.118387 0.0075285 0)
(-0.122244 -0.00435104 0)
(-0.123816 -0.0172871 0)
(-0.122611 -0.0307186 0)
(-0.118223 -0.0438337 0)
(-0.110416 -0.0555963 0)
(-0.0992327 -0.0648287 0)
(-0.0850844 -0.0703656 0)
(-0.0688097 -0.0712754 0)
(-0.0516507 -0.0671122 0)
(-0.0351218 -0.0581346 0)
(-0.0207533 -0.0453983 0)
(-0.00973557 -0.0306488 0)
(-0.00270062 -0.0160213 0)
(-0.000112544 -0.00374897 0)
(-0.00056168 0.0111363 0)
(-0.00365954 0.0282693 0)
(-0.00968654 0.040906 0)
(-0.0172846 0.0498256 0)
(-0.0259261 0.0557712 0)
(-0.035274 0.0593776 0)
(-0.0450779 0.0611425 0)
(-0.0551757 0.0614157 0)
(-0.0654648 0.0604022 0)
(-0.0758707 0.0581764 0)
(-0.0863194 0.0547016 0)
(-0.0967107 0.0498564 0)
(-0.106893 0.0434646 0)
(-0.116636 0.0353322 0)
(-0.125613 0.0252924 0)
(-0.133382 0.0132613 0)
(-0.139394 -0.000692637 0)
(-0.143012 -0.0162676 0)
(-0.143556 -0.0328829 0)
(-0.140402 -0.0496065 0)
(-0.133091 -0.0651695 0)
(-0.121462 -0.0780422 0)
(-0.105797 -0.086609 0)
(-0.0869273 -0.0894477 0)
(-0.0662755 -0.0856885 0)
(-0.0457442 -0.0753733 0)
(-0.0274155 -0.0596754 0)
(-0.0130464 -0.0408222 0)
(-0.00369367 -0.0216718 0)
(-0.00018065 -0.00523778 0)
(-0.000585588 0.013145 0)
(-0.00382555 0.0331752 0)
(-0.010137 0.0478417 0)
(-0.0181006 0.0581438 0)
(-0.0271689 0.0650107 0)
(-0.0370006 0.0692275 0)
(-0.0473546 0.0714055 0)
(-0.0580906 0.0719732 0)
(-0.0691389 0.071182 0)
(-0.0804645 0.0691227 0)
(-0.0920357 0.0657458 0)
(-0.103792 0.0608876 0)
(-0.115611 0.0543005 0)
(-0.127276 0.0456913 0)
(-0.138445 0.0347721 0)
(-0.148625 0.0213278 0)
(-0.157165 0.00530464 0)
(-0.163291 -0.0130847 0)
(-0.166135 -0.0332693 0)
(-0.16483 -0.054227 0)
(-0.158647 -0.0744613 0)
(-0.147151 -0.0920553 0)
(-0.130386 -0.10485 0)
(-0.109061 -0.110769 0)
(-0.0846767 -0.108292 0)
(-0.0595067 -0.097009 0)
(-0.0362931 -0.0780674 0)
(-0.0175807 -0.054217 0)
(-0.00510241 -0.0292655 0)
(-0.000293828 -0.00730647 0)
(-0.000602524 0.0152319 0)
(-0.00395425 0.0382829 0)
(-0.0104959 0.055071 0)
(-0.0187576 0.0668229 0)
(-0.0281736 0.0746672 0)
(-0.0383995 0.0795536 0)
(-0.0492046 0.082221 0)
(-0.0604732 0.0831887 0)
(-0.0721712 0.0827642 0)
(-0.0843077 0.0810597 0)
(-0.0968986 0.0780136 0)
(-0.10993 0.0734145 0)
(-0.123321 0.0669303 0)
(-0.136877 0.0581472 0)
(-0.150256 0.0466255 0)
(-0.162937 0.0319803 0)
(-0.1742 0.0139888 0)
(-0.183147 -0.0072794 0)
(-0.188743 -0.0313084 0)
(-0.189897 -0.0570374 0)
(-0.185593 -0.0827793 0)
(-0.175059 -0.106235 0)
(-0.157985 -0.124646 0)
(-0.134782 -0.135129 0)
(-0.106846 -0.135248 0)
(-0.0766944 -0.123789 0)
(-0.0477635 -0.101573 0)
(-0.0236239 -0.071804 0)
(-0.00704369 -0.0394829 0)
(-0.000468397 -0.0101957 0)
(-0.000612222 0.0173758 0)
(-0.0040456 0.0435474 0)
(-0.0107627 0.0625314 0)
(-0.0192498 0.0757852 0)
(-0.0289213 0.0846475 0)
(-0.0394276 0.0902472 0)
(-0.0505472 0.0934655 0)
(-0.0621876 0.0949252 0)
(-0.0743503 0.0949997 0)
(-0.0870883 0.0938296 0)
(-0.100467 0.0913432 0)
(-0.114522 0.0872781 0)
(-0.129218 0.0812081 0)
(-0.144398 0.0725816 0)
(-0.159741 0.0607831 0)
(-0.174725 0.0452254 0)
(-0.188603 0.0254784 0)
(-0.200409 0.00142832 0)
(-0.208995 -0.0265352 0)
(-0.213103 -0.0573666 0)
(-0.211459 -0.0892694 0)
(-0.202924 -0.119627 0)
(-0.186729 -0.145099 0)
(-0.162793 -0.161904 0)
(-0.132124 -0.166418 0)
(-0.0972094 -0.156169 0)
(-0.0620588 -0.131128 0)
(-0.0314495 -0.0946605 0)
(-0.00965061 -0.0531464 0)
(-0.000726316 -0.0142121 0)
(-0.000615241 0.0195564 0)
(-0.00410387 0.0489255 0)
(-0.0109463 0.0701594 0)
(-0.0195846 0.0849445 0)
(-0.029408 0.0948393 0)
(-0.040056 0.101167 0)
(-0.0513116 0.104965 0)
(-0.0631016 0.106974 0)
(-0.0754583 0.107644 0)
(-0.0884738 0.107149 0)
(-0.102258 0.105412 0)
(-0.116896 0.102119 0)
(-0.132398 0.0967455 0)
(-0.148655 0.088594 0)
(-0.16539 0.0768602 0)
(-0.182118 0.060738 0)
(-0.198126 0.0395674 0)
(-0.212456 0.0130179 0)
(-0.223932 -0.0187045 0)
(-0.231229 -0.054642 0)
(-0.232906 -0.0930063 0)
(-0.227485 -0.130998 0)
(-0.213686 -0.164813 0)
(-0.190746 -0.189796 0)
(-0.158957 -0.200946 0)
(-0.120339 -0.194027 0)
(-0.0791179 -0.167382 0)
(-0.0412677 -0.123867 0)
(-0.0130695 -0.0712043 0)
(-0.00109791 -0.0197379 0)
(-0.000613589 0.0217571 0)
(-0.00414063 0.0543811 0)
(-0.0110713 0.077896 0)
(-0.0197928 0.0942103 0)
(-0.0296581 0.105113 0)
(-0.040287 0.112138 0)
(-0.05146 0.116494 0)
(-0.0631161 0.119053 0)
(-0.0753101 0.120348 0)
(-0.088164 0.120598 0)
(-0.101823 0.119722 0)
(-0.116412 0.11736 0)
(-0.131988 0.112889 0)
(-0.148497 0.105472 0)
(-0.165727 0.0941184 0)
(-0.183273 0.0778077 0)
(-0.200519 0.0556518 0)
(-0.216614 0.0270978 0)
(-0.230457 -0.0078658 0)
(-0.240794 -0.0485228 0)
(-0.246155 -0.0931472 0)
(-0.244826 -0.138971 0)
(-0.235046 -0.181967 0)
(-0.21527 -0.216793 0)
(-0.184757 -0.237061 0)
(-0.144527 -0.236341 0)
(-0.0983848 -0.210379 0)
(-0.0531322 -0.160315 0)
(-0.0174471 -0.0946838 0)
(-0.00162468 -0.0272393 0)
(-0.000611531 0.02397 0)
(-0.00417878 0.0598958 0)
(-0.0111868 0.0856965 0)
(-0.0199406 0.103496 0)
(-0.0297399 0.115329 0)
(-0.0401738 0.122956 0)
(-0.0510119 0.127778 0)
(-0.0621972 0.130806 0)
(-0.0737974 0.132668 0)
(-0.0859527 0.133631 0)
(-0.0988309 0.133616 0)
(-0.112586 0.132222 0)
(-0.127317 0.128745 0)
(-0.143028 0.122217 0)
(-0.159593 0.111489 0)
(-0.176727 0.0953503 0)
(-0.193967 0.0727095 0)
(-0.210664 0.0428011 0)
(-0.225975 0.00538248 0)
(-0.238783 -0.0390915 0)
(-0.247709 -0.0891455 0)
(-0.251054 -0.142275 0)
(-0.246703 -0.194553 0)
(-0.232352 -0.240324 0)
(-0.206044 -0.272055 0)
(-0.167282 -0.280943 0)
(-0.11861 -0.259175 0)
(-0.0668054 -0.204417 0)
(-0.0229062 -0.124589 0)
(-0.00236282 -0.0372675 0)
(-0.000616766 0.0262036 0)
(-0.00425764 0.0654824 0)
(-0.0113764 0.0935452 0)
(-0.0201435 0.112731 0)
(-0.0297822 0.125344 0)
(-0.039839 0.133398 0)
(-0.0500665 0.138502 0)
(-0.0604061 0.141822 0)
(-0.0709301 0.144084 0)
(-0.0817858 0.145605 0)
(-0.0931518 0.146318 0)
(-0.105201 0.14579 0)
(-0.118069 0.143252 0)
(-0.131822 0.13764 0)
(-0.14644 0.127681 0)
(-0.161789 0.112023 0)
(-0.177615 0.0894172 0)
(-0.193536 0.0589179 0)
(-0.209017 0.0200769 0)
(-0.223254 -0.026885 0)
(-0.235161 -0.0809459 0)
(-0.243193 -0.140064 0)
(-0.245124 -0.200786 0)
(-0.238092 -0.257657 0)
(-0.218955 -0.302542 0)
(-0.185373 -0.324508 0)
(-0.137771 -0.311527 0)
(-0.0816176 -0.255725 0)
(-0.0295123 -0.161726 0)
(-0.00338893 -0.0504487 0)
(-0.000642417 0.0284938 0)
(-0.00444044 0.0712043 0)
(-0.0117714 0.101473 0)
(-0.0205818 0.121874 0)
(-0.029989 0.135023 0)
(-0.0394895 0.14323 0)
(-0.0488189 0.148332 0)
(-0.0579177 0.151658 0)
(-0.066861 0.154036 0)
(-0.0757978 0.155837 0)
(-0.08491 0.157008 0)
(-0.0943833 0.157101 0)
(-0.104387 0.155308 0)
(-0.115057 0.150507 0)
(-0.126487 0.141353 0)
(-0.138719 0.126414 0)
(-0.151741 0.104347 0)
(-0.165471 0.0740915 0)
(-0.179729 0.0350359 0)
(-0.194113 -0.0128724 0)
(-0.207951 -0.0691006 0)
(-0.220026 -0.132204 0)
(-0.228283 -0.199557 0)
(-0.229646 -0.266484 0)
(-0.220067 -0.325039 0)
(-0.195371 -0.362898 0)
(-0.153247 -0.363826 0)
(-0.096387 -0.312548 0)
(-0.0372406 -0.206454 0)
(-0.00481126 -0.0674641 0)
(-0.000710862 0.0309204 0)
(-0.00482648 0.0772029 0)
(-0.0125683 0.10958 0)
(-0.0215174 0.130925 0)
(-0.0306528 0.144252 0)
(-0.0394236 0.152218 0)
(-0.0475617 0.156921 0)
(-0.0550202 0.15986 0)
(-0.061885 0.161963 0)
(-0.0683102 0.163654 0)
(-0.0744818 0.164899 0)
(-0.0805991 0.165254 0)
(-0.0868678 0.163898 0)
(-0.0934979 0.159698 0)
(-0.100706 0.151292 0)
(-0.10872 0.137232 0)
(-0.117771 0.116148 0)
(-0.12808 0.0869231 0)
(-0.139823 0.0488273 0)
(-0.153058 0.0015684 0)
(-0.167529 -0.0547417 0)
(-0.182447 -0.119379 0)
(-0.196224 -0.190762 0)
(-0.205966 -0.265497 0)
(-0.207232 -0.33671 0)
(-0.194393 -0.39188 0)
(-0.162249 -0.41144 0)
(-0.109468 -0.371747 0)
(-0.0459497 -0.258372 0)
(-0.00678938 -0.0890284 0)
(-0.000861789 0.0336341 0)
(-0.00557244 0.0837326 0)
(-0.0140556 0.118057 0)
(-0.0233139 0.139937 0)
(-0.0321609 0.15293 0)
(-0.0400235 0.160128 0)
(-0.0466653 0.163922 0)
(-0.0520828 0.165983 0)
(-0.0563949 0.167336 0)
(-0.0597753 0.168449 0)
(-0.0624238 0.169313 0)
(-0.0645612 0.169499 0)
(-0.066436 0.16821 0)
(-0.0683365 0.164339 0)
(-0.0706037 0.156567 0)
(-0.0736457 0.143493 0)
(-0.0779259 0.123765 0)
(-0.0839402 0.0962679 0)
(-0.092186 0.0601961 0)
(-0.103088 0.015073 0)
(-0.11682 -0.0393036 0)
(-0.133108 -0.102945 0)
(-0.150931 -0.175353 0)
(-0.167963 -0.254708 0)
(-0.179999 -0.336004 0)
(-0.180688 -0.407954 0)
(-0.162347 -0.449409 0)
(-0.118943 -0.428858 0)
(-0.0553505 -0.316015 0)
(-0.00955655 -0.115875 0)
(-0.00116963 0.0369022 0)
(-0.00693157 0.0912104 0)
(-0.0166528 0.127206 0)
(-0.0264562 0.149005 0)
(-0.0349875 0.160958 0)
(-0.0417193 0.166708 0)
(-0.0465157 0.168975 0)
(-0.0494706 0.169598 0)
(-0.050773 0.169677 0)
(-0.050641 0.169713 0)
(-0.0493054 0.169719 0)
(-0.0470198 0.169296 0)
(-0.0440832 0.167696 0)
(-0.0408623 0.16388 0)
(-0.0378065 0.15661 0)
(-0.0354944 0.144601 0)
(-0.0345891 0.126533 0)
(-0.0358051 0.101346 0)
(-0.0398993 0.0682019 0)
(-0.0475704 0.0264891 0)
(-0.0593648 -0.0242713 0)
(-0.0754766 -0.0846468 0)
(-0.095489 -0.155099 0)
(-0.117908 -0.235405 0)
(-0.139367 -0.322924 0)
(-0.153737 -0.408989 0)
(-0.151782 -0.473254 0)
(-0.12285 -0.478556 0)
(-0.0649318 -0.37665 0)
(-0.013419 -0.148742 0)
(-0.00178124 0.041194 0)
(-0.00932584 0.100279 0)
(-0.0209654 0.137443 0)
(-0.0315558 0.158231 0)
(-0.0396419 0.168177 0)
(-0.0448839 0.171632 0)
(-0.0473628 0.171666 0)
(-0.0473495 0.170255 0)
(-0.0451543 0.168538 0)
(-0.0410714 0.167023 0)
(-0.0353824 0.165737 0)
(-0.0283849 0.164316 0)
(-0.0204307 0.162081 0)
(-0.0119577 0.158091 0)
(-0.00348008 0.15123 0)
(0.00426025 0.1403 0)
(0.0104464 0.124136 0)
(0.0142396 0.101709 0)
(0.01468 0.0721721 0)
(0.0108806 0.0348199 0)
(0.00201235 -0.0110491 0)
(-0.0124974 -0.0663327 0)
(-0.0327869 -0.132195 0)
(-0.0582889 -0.209775 0)
(-0.0869272 -0.298863 0)
(-0.113756 -0.394422 0)
(-0.129331 -0.479549 0)
(-0.119229 -0.515255 0)
(-0.0737776 -0.436191 0)
(-0.0186703 -0.188302 0)
(-0.00299461 0.0473402 0)
(-0.0134717 0.111879 0)
(-0.0278384 0.149241 0)
(-0.0392875 0.167598 0)
(-0.0464856 0.174242 0)
(-0.0495449 0.174387 0)
(-0.0489405 0.171426 0)
(-0.0452259 0.167405 0)
(-0.0388931 0.163435 0)
(-0.0303459 0.159987 0)
(-0.0199334 0.157078 0)
(-0.00800024 0.154378 0)
(0.00506234 0.151281 0)
(0.0187713 0.146962 0)
(0.0325286 0.140441 0)
(0.0455642 0.130626 0)
(0.0569822 0.116526 0)
(0.0658081 0.0971568 0)
(0.0709933 0.0716819 0)
(0.0715096 0.0393322 0)
(0.0663583 -0.000740351 0)
(0.0546925 -0.049593 0)
(0.0358482 -0.108793 0)
(0.0095115 -0.180368 0)
(-0.0236936 -0.26613 0)
(-0.0608031 -0.365062 0)
(-0.0937647 -0.466092 0)
(-0.105854 -0.533489 0)
(-0.0802061 -0.489093 0)
(-0.0253199 -0.234836 0)
(-0.00541324 0.0568473 0)
(-0.0205732 0.127286 0)
(-0.0383161 0.162925 0)
(-0.0500612 0.176686 0)
(-0.0551465 0.17833 0)
(-0.0545842 0.174007 0)
(-0.0494911 0.167309 0)
(-0.0408291 0.160207 0)
(-0.0293336 0.15368 0)
(-0.0155426 0.148093 0)
(0.000123332 0.143418 0)
(0.0172844 0.139332 0)
(0.0355364 0.135296 0)
(0.0543932 0.130594 0)
(0.0732479 0.124387 0)
(0.0913428 0.115752 0)
(0.107779 0.10379 0)
(0.121544 0.0876245 0)
(0.131549 0.066448 0)
(0.136679 0.0394739 0)
(0.135814 0.00581346 0)
(0.127862 -0.0356809 0)
(0.111719 -0.0866737 0)
(0.0863501 -0.149541 0)
(0.0510085 -0.227369 0)
(0.00624286 -0.322739 0)
(-0.0429801 -0.431875 0)
(-0.0795387 -0.527892 0)
(-0.0812501 -0.528059 0)
(-0.0325745 -0.287705 0)
(-0.0102152 0.0725489 0)
(-0.0325165 0.147979 0)
(-0.0531132 0.178107 0)
(-0.0627662 0.184015 0)
(-0.0627059 0.178539 0)
(-0.0555295 0.168566 0)
(-0.0432972 0.157566 0)
(-0.0274932 0.14719 0)
(-0.00912437 0.138119 0)
(0.0111545 0.130515 0)
(0.032888 0.124235 0)
(0.055708 0.118932 0)
(0.0792594 0.11411 0)
(0.103122 0.109153 0)
(0.126764 0.103354 0)
(0.149507 0.0959483 0)
(0.170528 0.0861614 0)
(0.188862 0.0732322 0)
(0.203438 0.056425 0)
(0.213099 0.0349972 0)
(0.216592 0.0081096 0)
(0.212611 -0.0253703 0)
(0.199705 -0.0669589 0)
(0.176227 -0.118952 0)
(0.140349 -0.184863 0)
(0.0904645 -0.269758 0)
(0.0271497 -0.37722 0)
(-0.034888 -0.493352 0)
(-0.0721473 -0.543986 0)
(-0.0382334 -0.345079 0)
(-0.019451 0.0994754 0)
(-0.0514683 0.17435 0)
(-0.0698814 0.192064 0)
(-0.0703128 0.18557 0)
(-0.0583138 0.170716 0)
(-0.0388317 0.154346 0)
(-0.0150144 0.139122 0)
(0.0112202 0.125954 0)
(0.0387527 0.114992 0)
(0.0669679 0.106064 0)
(0.0955241 0.0988409 0)
(0.124202 0.0929127 0)
(0.152806 0.0878031 0)
(0.181082 0.0829795 0)
(0.208665 0.0778627 0)
(0.235042 0.0718419 0)
(0.259535 0.0642955 0)
(0.281303 0.0546039 0)
(0.299346 0.0421523 0)
(0.312528 0.0263101 0)
(0.319465 0.00638194 0)
(0.318708 -0.018568 0)
(0.308501 -0.0497676 0)
(0.286712 -0.0891652 0)
(0.250689 -0.139956 0)
(0.197266 -0.208093 0)
(0.123445 -0.302931 0)
(0.0374896 -0.426746 0)
(-0.0453955 -0.527289 0)
(-0.0376116 -0.402146 0)
(-0.0347665 0.143551 0)
(-0.0740944 0.199154 0)
(-0.0703751 0.193626 0)
(-0.0449056 0.170419 0)
(-0.00909335 0.145804 0)
(0.030508 0.124419 0)
(0.0706291 0.106966 0)
(0.109789 0.0930588 0)
(0.147406 0.0820984 0)
(0.183371 0.0735062 0)
(0.217782 0.0667603 0)
(0.250792 0.0613885 0)
(0.282523 0.0569442 0)
(0.313 0.0529892 0)
(0.342107 0.049085 0)
(0.369556 0.0447904 0)
(0.394869 0.0396661 0)
(0.41737 0.0332787 0)
(0.436188 0.0251946 0)
(0.450285 0.0149593 0)
(0.458236 0.00202841 0)
(0.458609 -0.0140404 0)
(0.449411 -0.0341421 0)
(0.428243 -0.0597122 0)
(0.391889 -0.0931361 0)
(0.336509 -0.139621 0)
(0.255794 -0.210483 0)
(0.151725 -0.325011 0)
(0.0146396 -0.465889 0)
(-0.017336 -0.441567 0)
(-0.0376194 0.235834 0)
(-0.0480267 0.203323 0)
(0.0269706 0.15275 0)
(0.0987147 0.116992 0)
(0.165694 0.0905117 0)
(0.225937 0.0711223 0)
(0.279146 0.0571793 0)
(0.32606 0.0471104 0)
(0.367699 0.0397378 0)
(0.405047 0.0342729 0)
(0.438947 0.030174 0)
(0.470075 0.0270388 0)
(0.498931 0.0245428 0)
(0.525832 0.0224063 0)
(0.550903 0.0203746 0)
(0.574067 0.0182085 0)
(0.595042 0.0156805 0)
(0.613338 0.0125746 0)
(0.628252 0.00868728 0)
(0.63884 0.0038235 0)
(0.644055 -0.00222844 0)
(0.642644 -0.0097246 0)
(0.632559 -0.0191163 0)
(0.611686 -0.0310664 0)
(0.576619 -0.0467956 0)
(0.523716 -0.0696382 0)
(0.443187 -0.10779 0)
(0.333653 -0.188299 0)
(0.143279 -0.335946 0)
(0.0605697 -0.412801 0)
(0.231273 0.158599 0)
(0.29128 0.117011 0)
(0.440525 0.075808 0)
(0.539099 0.0504821 0)
(0.605898 0.0341808 0)
(0.655256 0.0234697 0)
(0.693332 0.0165322 0)
(0.723476 0.0120581 0)
(0.748014 0.00913925 0)
(0.768584 0.00720344 0)
(0.786297 0.00589713 0)
(0.801905 0.00499286 0)
(0.815904 0.0043352 0)
(0.828595 0.00381086 0)
(0.840114 0.00333142 0)
(0.850445 0.0028235 0)
(0.859431 0.00222406 0)
(0.866793 0.00147703 0)
(0.872129 0.000540054 0)
(0.874939 -0.000626733 0)
(0.87457 -0.00197095 0)
(0.870227 -0.00367434 0)
(0.860918 -0.00584114 0)
(0.845639 -0.00857893 0)
(0.821986 -0.0121269 0)
(0.788247 -0.0175186 0)
(0.732776 -0.0269338 0)
(0.655804 -0.0489272 0)
(0.454074 -0.109993 0)
(0.313166 -0.177455 0)
)
;

boundaryField
{
    movingWall
    {
        type            fixedValue;
        value           uniform (1 0 0);
    }
    fixedWalls
    {
        type            noSlip;
    }
    frontAndBack
    {
        type            empty;
    }
}


// ************************************************************************* //
