/*--------------------------------*- C++ -*----------------------------------*\
  =========                 |
  \\      /  F ield         | OpenFOAM: The Open Source CFD Toolbox
   \\    /   O peration     | Website:  https://openfoam.org
    \\  /    A nd           | Version:  7
     \\/     M anipulation  |
\*---------------------------------------------------------------------------*/
FoamFile
{
    version     2.0;
    format      ascii;
    class       volVectorField;
    location    "0.63";
    object      U;
}
// * * * * * * * * * * * * * * * * * * * * * * * * * * * * * * * * * * * * * //

dimensions      [0 1 -1 0 0 0 0];

internalField   nonuniform List<vector> 
1936
(
(-12.8673 3.22352 0)
(-67.2515 169.038 0)
(-33.6261 386.875 0)
(-9.30804 417.499 0)
(-13.9096 399.085 0)
(-11.8204 425.734 0)
(3.25705 445.423 0)
(19.2048 410.313 0)
(25.8651 339.199 0)
(20.1011 280.816 0)
(4.32359 263.363 0)
(-8.43816 275.051 0)
(-21.9387 342.082 0)
(-23.4176 467.898 0)
(18.1743 473.614 0)
(31.9319 327.559 0)
(5.10964 248.733 0)
(-6.18068 250.699 0)
(-29.5385 318.723 0)
(-30.2362 470.701 0)
(18.4178 470.846 0)
(18.1682 322.766 0)
(-8.81773 262.846 0)
(-19.4795 278.184 0)
(-38.0118 392.239 0)
(7.79894 504.104 0)
(38.9371 414.56 0)
(22.0558 289.419 0)
(12.0262 259.082 0)
(-2.96737 263.99 0)
(-25.4234 347.482 0)
(-20.0703 485.836 0)
(24.5124 464.805 0)
(28.632 312.737 0)
(2.36288 248.566 0)
(-8.72324 251.913 0)
(-33.7917 331.342 0)
(-21.0144 477.575 0)
(21.2761 470.09 0)
(20.0264 331.627 0)
(-3.68061 264.98 0)
(-14.4741 258.278 0)
(-35.4637 319.345 0)
(-31.9695 478.461 0)
(-14.4517 7.75201 0)
(-73.5943 1.24752 0)
(-37.1963 -3.4569 0)
(-11.7267 -2.42025 0)
(-15.0629 -0.804776 0)
(-12.3159 -1.77795 0)
(3.14291 -2.71969 0)
(18.8345 -2.0374 0)
(24.0548 -0.151643 0)
(16.8144 1.89401 0)
(3.50607 2.97266 0)
(-5.46088 2.51372 0)
(-21.5019 0.38689 0)
(-25.1491 -3.07815 0)
(18.4619 -3.89967 0)
(29.1704 0.0115834 0)
(1.23731 3.50998 0)
(-2.7524 3.58235 0)
(-27.2652 0.829674 0)
(-31.6232 -3.21962 0)
(19.5246 -3.32181 0)
(15.9998 1.09603 0)
(-10.3778 3.86436 0)
(-13.8493 1.97081 0)
(-35.8796 -3.28496 0)
(8.11121 -5.30284 0)
(40.1697 -1.58106 0)
(18.0337 1.61398 0)
(8.56388 3.06827 0)
(0.106216 3.24356 0)
(-24.9853 0.512529 0)
(-21.4535 -3.43063 0)
(25.1141 -3.61725 0)
(25.5148 0.698912 0)
(-0.49745 3.76992 0)
(-4.30222 3.40826 0)
(-31.1117 -0.0694211 0)
(-21.7941 -3.90789 0)
(22.555 -2.93726 0)
(19.1277 1.11684 0)
(-5.95893 3.45718 0)
(-9.1797 3.23533 0)
(-30.4728 -0.132403 0)
(-33.2111 -4.89889 0)
(-6.00706 16.0892 0)
(-67.9576 3.08769 0)
(-37.0883 -7.4665 0)
(-12.8534 -5.10847 0)
(-14.2229 -1.6517 0)
(-12.0347 -3.70761 0)
(3.10899 -5.697 0)
(18.8298 -4.14588 0)
(23.7463 -0.0618307 0)
(15.2065 3.98883 0)
(1.23198 5.83595 0)
(-7.67747 5.15128 0)
(-23.604 1.13246 0)
(-24.5364 -6.74156 0)
(21.6357 -8.34003 0)
(30.7273 0.58806 0)
(1.33227 7.07026 0)
(-2.56103 7.13499 0)
(-28.248 2.21924 0)
(-31.1448 -7.05205 0)
(23.1691 -7.2543 0)
(19.971 2.53813 0)
(-3.98772 7.45434 0)
(-6.46712 4.4428 0)
(-37.5852 -5.84822 0)
(1.2308 -11.3159 0)
(38.4219 -3.23083 0)
(17.7257 3.91769 0)
(3.1234 6.10336 0)
(-4.92402 6.49766 0)
(-28.1857 1.25869 0)
(-20.8182 -7.64384 0)
(28.2641 -7.64816 0)
(26.8815 1.96493 0)
(0.551579 7.43775 0)
(-3.20127 6.88822 0)
(-31.8826 0.49315 0)
(-23.9407 -8.34215 0)
(23.1685 -6.54493 0)
(23.2251 2.46326 0)
(0.80792 6.67603 0)
(-1.87129 6.49555 0)
(-27.1301 0.720508 0)
(-34.013 -10.0716 0)
(2.53996 22.6382 0)
(-56.3829 5.45674 0)
(-31.3379 -10.179 0)
(-15.1435 -7.6126 0)
(-13.4996 -2.8755 0)
(-10.3093 -5.52358 0)
(1.88646 -8.24651 0)
(13.0116 -5.83987 0)
(15.6367 0.21567 0)
(8.07163 5.90384 0)
(-1.42155 8.19906 0)
(-4.86527 7.235 0)
(-16.5969 1.49372 0)
(-18.587 -10.0509 0)
(17.7092 -11.9109 0)
(20.8803 1.2901 0)
(-2.80097 9.98466 0)
(1.34089 10.0089 0)
(-18.9106 3.32094 0)
(-23.8408 -10.3502 0)
(19.8199 -10.6013 0)
(13.6897 3.3529 0)
(-0.995434 9.88596 0)
(5.7788 6.98891 0)
(-26.8212 -6.72504 0)
(-3.74988 -15.9876 0)
(27.0562 -4.9661 0)
(9.70964 6.07963 0)
(-3.10513 8.90676 0)
(-3.85848 8.88028 0)
(-20.9194 1.36274 0)
(-15.3141 -11.4542 0)
(23.0646 -10.867 0)
(17.2206 3.1256 0)
(-1.83539 10.3408 0)
(2.08163 9.77263 0)
(-21.33 1.23295 0)
(-19.4872 -11.8983 0)
(17.4201 -9.89777 0)
(17.4495 2.969 0)
(2.34092 8.90463 0)
(6.71948 9.30787 0)
(-13.3525 2.05677 0)
(-27.1247 -13.8099 0)
(10.4091 27.7574 0)
(-45.818 8.20994 0)
(-25.1131 -11.5098 0)
(-15.635 -9.78198 0)
(-12.5033 -4.6892 0)
(-9.02959 -7.34257 0)
(-0.00963175 -10.2014 0)
(6.76342 -6.95166 0)
(7.81804 0.592094 0)
(1.91535 7.37224 0)
(-3.11012 9.76464 0)
(-2.35584 8.46111 0)
(-10.8585 1.44956 0)
(-13.0769 -12.3967 0)
(13.7178 -14.0581 0)
(12.5761 1.94704 0)
(-5.85688 11.7291 0)
(4.38831 11.7301 0)
(-11.5372 4.02371 0)
(-16.9712 -12.4942 0)
(16.6818 -12.7601 0)
(8.91377 3.51308 0)
(-0.303898 10.7844 0)
(12.4898 8.80676 0)
(-16.5379 -6.13265 0)
(-7.61476 -18.505 0)
(16.6528 -6.41781 0)
(3.62785 7.62133 0)
(-6.27627 10.9481 0)
(-1.56756 10.114 0)
(-14.6341 0.981936 0)
(-10.299 -14.1332 0)
(17.943 -12.761 0)
(9.32103 3.99215 0)
(-4.03225 12.0117 0)
(5.53235 11.5353 0)
(-12.6709 1.97114 0)
(-14.9165 -13.9924 0)
(12.2581 -12.3535 0)
(12.5939 2.73607 0)
(1.70248 9.93496 0)
(10.6111 11.0848 0)
(-3.65968 3.40039 0)
(-20.7424 -15.6181 0)
(16.8627 31.181 0)
(-34.4932 11.1625 0)
(-18.3715 -11.5298 0)
(-13.8657 -11.3839 0)
(-11.115 -6.76484 0)
(-8.17841 -8.98702 0)
(-2.47158 -11.4098 0)
(0.643146 -7.45805 0)
(0.783775 0.943159 0)
(-3.00704 8.13457 0)
(-3.71987 10.3707 0)
(0.185825 8.81774 0)
(-6.07718 1.1137 0)
(-8.33716 -13.6605 0)
(9.6826 -14.7464 0)
(5.65434 2.49726 0)
(-7.7963 12.2681 0)
(6.26699 12.2736 0)
(-5.66758 4.28692 0)
(-10.927 -13.4728 0)
(13.4515 -13.6904 0)
(4.77813 3.29665 0)
(-1.68914 10.523 0)
(13.9467 9.56561 0)
(-7.76569 -4.56234 0)
(-9.21181 -18.7238 0)
(8.05585 -7.45684 0)
(-1.10668 8.23285 0)
(-6.70795 11.9286 0)
(2.26935 10.3366 0)
(-8.95467 0.410448 0)
(-6.14087 -15.5362 0)
(12.9249 -13.3071 0)
(2.91695 4.55457 0)
(-5.68482 12.4828 0)
(7.41119 12.0975 0)
(-5.83509 2.58602 0)
(-10.3331 -14.6442 0)
(7.91188 -13.7617 0)
(7.97831 2.12708 0)
(-1.27494 9.99682 0)
(10.6386 11.7124 0)
(2.2654 4.39097 0)
(-15.002 -15.6748 0)
(20.5547 32.4547 0)
(-21.2524 13.9796 0)
(-10.8883 -10.2456 0)
(-10.0899 -12.1417 0)
(-9.09718 -8.62603 0)
(-7.44154 -10.2029 0)
(-4.91582 -11.7985 0)
(-4.51199 -7.41066 0)
(-4.7846 1.10087 0)
(-6.29934 8.01707 0)
(-3.6227 9.92831 0)
(2.09118 8.36497 0)
(-2.29074 0.617762 0)
(-4.52136 -13.7402 0)
(5.73104 -14.0603 0)
(0.219245 2.81725 0)
(-8.10594 11.7055 0)
(6.48963 11.7058 0)
(-1.20453 4.06898 0)
(-5.95606 -13.2937 0)
(9.95433 -13.3914 0)
(1.13176 2.91362 0)
(-3.09813 9.50449 0)
(12.0039 9.16765 0)
(-1.62634 -2.70101 0)
(-8.38206 -16.9377 0)
(1.92529 -7.83408 0)
(-4.40059 7.82041 0)
(-5.37363 11.6379 0)
(5.47173 9.72045 0)
(-4.09268 -0.0916319 0)
(-2.97497 -15.5326 0)
(8.11822 -12.5886 0)
(-1.87762 4.7336 0)
(-5.9571 11.8696 0)
(7.62831 11.5466 0)
(-0.831054 2.89863 0)
(-5.9131 -13.9804 0)
(4.42901 -13.9439 0)
(3.67186 1.47882 0)
(-4.11823 9.33181 0)
(8.40272 11.1743 0)
(5.27864 4.73821 0)
(-9.86363 -14.3122 0)
(20.6932 31.1757 0)
(-6.85022 16.0697 0)
(-2.86785 -7.65507 0)
(-4.93538 -11.7543 0)
(-6.16157 -9.76332 0)
(-6.25493 -10.738 0)
(-6.42185 -11.3749 0)
(-7.8061 -6.9324 0)
(-8.23652 0.907979 0)
(-7.78655 7.04328 0)
(-3.19274 8.62178 0)
(3.0292 7.24761 0)
(0.441587 -0.00966722 0)
(-1.70915 -12.6521 0)
(2.11927 -12.2203 0)
(-3.66108 2.80671 0)
(-7.14632 10.2355 0)
(5.5229 10.2014 0)
(1.89196 3.41703 0)
(-2.23634 -12.0542 0)
(6.30241 -11.9698 0)
(-1.85804 2.44449 0)
(-3.55648 7.97985 0)
(8.8299 7.86649 0)
(1.70139 -1.125 0)
(-5.91776 -13.7991 0)
(-1.6701 -7.3467 0)
(-6.18287 6.55279 0)
(-3.67715 10.1948 0)
(6.59779 8.47235 0)
(-0.256082 -0.466968 0)
(-0.814361 -14.1452 0)
(3.76121 -10.847 0)
(-4.96886 4.4663 0)
(-5.05659 10.3513 0)
(6.72252 10.1045 0)
(2.5014 2.79784 0)
(-1.99592 -12.2334 0)
(1.78358 -12.8345 0)
(-0.0960752 0.893759 0)
(-5.261 8.15889 0)
(5.75223 9.66453 0)
(6.35634 4.38901 0)
(-5.36244 -11.9354 0)
(16.9335 27.4194 0)
(5.19323 16.7351 0)
(4.65717 -4.08316 0)
(0.725606 -10.0713 0)
(-2.38497 -9.79722 0)
(-4.25825 -10.4102 0)
(-6.37136 -10.2293 0)
(-8.79555 -6.16149 0)
(-9.31561 0.397832 0)
(-7.6873 5.40764 0)
(-2.65581 6.76481 0)
(3.12596 5.65005 0)
(2.09468 -0.649219 0)
(-0.025463 -10.6089 0)
(-0.700296 -9.60315 0)
(-5.83433 2.40739 0)
(-5.75576 8.16565 0)
(4.14071 8.10188 0)
(3.62775 2.43294 0)
(0.104785 -9.97545 0)
(2.97939 -9.70173 0)
(-3.79801 1.83008 0)
(-3.32444 6.1719 0)
(5.85958 6.10844 0)
(2.9395 -0.15841 0)
(-3.11151 -10.0801 0)
(-3.18722 -6.04259 0)
(-6.49631 4.82625 0)
(-2.4215 8.00348 0)
(6.00585 6.79575 0)
(2.38063 -0.741444 0)
(0.38647 -11.6303 0)
(0.371766 -8.46081 0)
(-6.2664 3.7176 0)
(-3.82259 8.24294 0)
(5.39914 8.11723 0)
(4.36104 2.27407 0)
(0.845631 -9.75419 0)
(0.00717558 -10.6141 0)
(-2.85946 0.363489 0)
(-4.94318 6.59413 0)
(3.73122 7.57382 0)
(6.19819 3.52729 0)
(-1.84547 -8.97878 0)
(11.028 22.0704 0)
(11.2767 15.5589 0)
(9.8149 -0.449791 0)
(5.55255 -7.33797 0)
(1.42472 -8.63086 0)
(-1.75243 -9.17301 0)
(-4.94949 -8.54648 0)
(-7.7693 -5.19977 0)
(-8.40652 -0.244304 0)
(-6.54007 3.50288 0)
(-2.14688 4.66203 0)
(2.5946 3.80323 0)
(2.63039 -1.09688 0)
(0.487236 -7.98559 0)
(-2.43968 -6.73575 0)
(-6.28025 1.71059 0)
(-4.44731 5.84662 0)
(2.77924 5.77014 0)
(3.96108 1.33513 0)
(1.0928 -7.42237 0)
(0.50813 -7.05659 0)
(-4.38173 1.08222 0)
(-2.86076 4.31501 0)
(3.50133 4.29294 0)
(2.90311 0.208016 0)
(-1.08047 -6.51672 0)
(-3.27174 -4.26126 0)
(-5.54807 3.0908 0)
(-1.57237 5.5962 0)
(4.68427 4.84503 0)
(3.54782 -0.85035 0)
(0.753626 -8.46724 0)
(-1.64518 -5.89917 0)
(-5.91386 2.63279 0)
(-2.74656 5.92436 0)
(4.01715 5.90603 0)
(4.82742 1.49291 0)
(2.22846 -6.96914 0)
(-0.878735 -7.73304 0)
(-4.03249 -0.0393323 0)
(-3.97849 4.74254 0)
(2.3364 5.34272 0)
(5.14481 2.43881 0)
(0.232112 -5.93437 0)
(5.98317 16.4332 0)
(11.2803 12.9349 0)
(11.2455 2.14312 0)
(8.05802 -4.27148 0)
(4.0424 -6.53106 0)
(0.458994 -7.21669 0)
(-2.93942 -6.56715 0)
(-5.6298 -4.13993 0)
(-6.40105 -0.79208 0)
(-4.95948 1.74329 0)
(-1.71598 2.65348 0)
(1.69164 2.04192 0)
(2.16157 -1.2486 0)
(0.144503 -5.30272 0)
(-3.07948 -4.17413 0)
(-5.40084 0.956715 0)
(-3.31514 3.61044 0)
(1.51786 3.51292 0)
(3.09304 0.427398 0)
(1.04115 -4.89328 0)
(-0.923566 -4.56908 0)
(-3.86735 0.404199 0)
(-2.33037 2.61 0)
(1.69852 2.66456 0)
(2.10262 0.220993 0)
(-0.231199 -3.64105 0)
(-2.65558 -2.51963 0)
(-3.92828 1.69239 0)
(-0.962309 3.40485 0)
(3.17694 2.95287 0)
(3.27345 -0.766129 0)
(0.627554 -5.31697 0)
(-2.27787 -3.62161 0)
(-4.51015 1.55283 0)
(-1.85059 3.74174 0)
(2.67292 3.74212 0)
(4.06828 0.762741 0)
(2.28097 -4.35489 0)
(-1.08837 -4.85938 0)
(-3.65157 -0.262681 0)
(-2.84988 2.92454 0)
(1.28153 3.32418 0)
(3.54464 1.43559 0)
(0.928058 -3.3195 0)
(3.16524 11.5562 0)
(8.09789 9.82335 0)
(9.41004 3.30683 0)
(7.7507 -1.68507 0)
(4.7229 -4.10988 0)
(1.67733 -4.9558 0)
(-1.19051 -4.57334 0)
(-3.39395 -3.07538 0)
(-4.20933 -1.09369 0)
(-3.38286 0.437724 0)
(-1.33765 1.04274 0)
(0.767979 0.677488 0)
(1.18672 -1.13442 0)
(-0.406011 -3.07339 0)
(-2.82835 -2.28722 0)
(-3.95653 0.343704 0)
(-2.40083 1.79528 0)
(0.431504 1.67457 0)
(1.64936 -0.154116 0)
(0.419813 -2.86068 0)
(-1.4566 -2.64361 0)
(-2.92549 -0.0509037 0)
(-1.84336 1.27371 0)
(0.404264 1.38419 0)
(0.991143 0.126649 0)
(-0.210575 -1.69864 0)
(-1.87657 -1.23725 0)
(-2.39204 0.75131 0)
(-0.584541 1.71732 0)
(1.78053 1.46362 0)
(2.14049 -0.553376 0)
(0.303948 -2.80665 0)
(-1.93279 -1.92461 0)
(-2.87782 0.72143 0)
(-1.14677 1.99681 0)
(1.48861 1.96773 0)
(2.62976 0.259177 0)
(1.55727 -2.31889 0)
(-0.926653 -2.57971 0)
(-2.52408 -0.295928 0)
(-1.81663 1.49114 0)
(0.51427 1.75493 0)
(1.95958 0.725761 0)
(0.80419 -1.48939 0)
(1.83905 8.01538 0)
(4.65421 7.05969 0)
(6.09389 3.3933 0)
(5.56348 0.040646 0)
(3.8061 -1.99324 0)
(1.7839 -2.88327 0)
(-0.198236 -2.83942 0)
(-1.73316 -2.11879 0)
(-2.39485 -1.1543 0)
(-2.03973 -0.388221 0)
(-0.965629 -0.0503647 0)
(0.11746 -0.181922 0)
(0.291479 -0.89852 0)
(-0.7166 -1.56712 0)
(-2.10751 -1.1362 0)
(-2.58656 -0.0368238 0)
(-1.7121 0.584941 0)
(-0.296007 0.460313 0)
(0.372257 -0.433844 0)
(-0.268898 -1.54642 0)
(-1.44809 -1.4219 0)
(-2.08281 -0.286282 0)
(-1.47812 0.401475 0)
(-0.374006 0.523069 0)
(0.0535115 0.0223071 0)
(-0.434968 -0.654002 0)
(-1.23664 -0.526489 0)
(-1.36877 0.205927 0)
(-0.444817 0.634599 0)
(0.705298 0.523628 0)
(0.94016 -0.335614 0)
(-0.0371514 -1.22403 0)
(-1.28101 -0.880945 0)
(-1.6156 0.207265 0)
(-0.693126 0.824823 0)
(0.614792 0.791196 0)
(1.25442 -0.000646075 0)
(0.704216 -1.03065 0)
(-0.665044 -1.13682 0)
(-1.45982 -0.210924 0)
(-1.0539 0.585336 0)
(0.0665273 0.738811 0)
(0.818856 0.311032 0)
(0.439596 -0.484753 0)
(1.09689 5.74864 0)
(2.38696 5.12651 0)
(3.26682 3.00985 0)
(3.20878 0.958906 0)
(2.37732 -0.511463 0)
(1.25866 -1.32553 0)
(0.106932 -1.54238 0)
(-0.79737 -1.37056 0)
(-1.22486 -1.07062 0)
(-1.11744 -0.820211 0)
(-0.663579 -0.650904 0)
(-0.23837 -0.597411 0)
(-0.239911 -0.683599 0)
(-0.749102 -0.753503 0)
(-1.3693 -0.561143 0)
(-1.55463 -0.229845 0)
(-1.17203 -0.0690332 0)
(-0.585564 -0.172282 0)
(-0.331531 -0.514359 0)
(-0.647317 -0.858487 0)
(-1.20584 -0.790799 0)
(-1.45614 -0.379739 0)
(-1.18139 -0.0718498 0)
(-0.69432 0.0293607 0)
(-0.448441 -0.0820427 0)
(-0.576662 -0.254114 0)
(-0.838102 -0.253248 0)
(-0.830869 -0.0756692 0)
(-0.431858 0.0630517 0)
(0.0391608 0.0484143 0)
(0.137656 -0.200004 0)
(-0.265473 -0.458077 0)
(-0.772774 -0.376062 0)
(-0.861007 -0.04856 0)
(-0.451039 0.177245 0)
(0.0920373 0.16754 0)
(0.36293 -0.0965378 0)
(0.128826 -0.390441 0)
(-0.445019 -0.4116 0)
(-0.763015 -0.131494 0)
(-0.583517 0.123802 0)
(-0.120857 0.197835 0)
(0.209709 0.0907627 0)
(0.158648 -0.0895438 0)
(0.658562 4.28027 0)
(1.37999 3.95907 0)
(1.80707 2.66036 0)
(1.8077 1.37707 0)
(1.40779 0.354368 0)
(0.800766 -0.323355 0)
(0.177628 -0.689074 0)
(-0.322537 -0.845257 0)
(-0.589906 -0.905372 0)
(-0.615285 -0.912863 0)
(-0.504466 -0.844139 0)
(-0.40891 -0.702328 0)
(-0.454697 -0.551 0)
(-0.64433 -0.429985 0)
(-0.8392 -0.34876 0)
(-0.8803 -0.316822 0)
(-0.743557 -0.345203 0)
(-0.564478 -0.413542 0)
(-0.521141 -0.49829 0)
(-0.671293 -0.554805 0)
(-0.882208 -0.516714 0)
(-0.968291 -0.397518 0)
(-0.86767 -0.284242 0)
(-0.681588 -0.209288 0)
(-0.563668 -0.181291 0)
(-0.562166 -0.187415 0)
(-0.598277 -0.206144 0)
(-0.559418 -0.203156 0)
(-0.415055 -0.176614 0)
(-0.256934 -0.144009 0)
(-0.220649 -0.151461 0)
(-0.336481 -0.188943 0)
(-0.471716 -0.196002 0)
(-0.46674 -0.155547 0)
(-0.313257 -0.108317 0)
(-0.133909 -0.0943028 0)
(-0.0477022 -0.120568 0)
(-0.116384 -0.143188 0)
(-0.28838 -0.129735 0)
(-0.383825 -0.0954288 0)
(-0.312608 -0.0664923 0)
(-0.146199 -0.0454238 0)
(-0.0160186 -0.035408 0)
(0.0284081 -0.0236282 0)
(0.411918 3.24765 0)
(0.971884 3.18298 0)
(1.27224 2.39982 0)
(1.28516 1.58255 0)
(1.09189 0.852453 0)
(0.755849 0.280171 0)
(0.371005 -0.141742 0)
(0.0418809 -0.453631 0)
(-0.186893 -0.674246 0)
(-0.312885 -0.797027 0)
(-0.373418 -0.788397 0)
(-0.412735 -0.661973 0)
(-0.456405 -0.490616 0)
(-0.500335 -0.362249 0)
(-0.520074 -0.323959 0)
(-0.498305 -0.360455 0)
(-0.447966 -0.420715 0)
(-0.411254 -0.456425 0)
(-0.428278 -0.456774 0)
(-0.495715 -0.438745 0)
(-0.563349 -0.416898 0)
(-0.585118 -0.393775 0)
(-0.553548 -0.35959 0)
(-0.497236 -0.311005 0)
(-0.452596 -0.258913 0)
(-0.428973 -0.228437 0)
(-0.412198 -0.232427 0)
(-0.384403 -0.253233 0)
(-0.339332 -0.249002 0)
(-0.294602 -0.207357 0)
(-0.277394 -0.15848 0)
(-0.289111 -0.143422 0)
(-0.296616 -0.166387 0)
(-0.268202 -0.198231 0)
(-0.215196 -0.203081 0)
(-0.169946 -0.177846 0)
(-0.146626 -0.132844 0)
(-0.152611 -0.0847068 0)
(-0.177495 -0.0695217 0)
(-0.185218 -0.0954732 0)
(-0.155869 -0.130953 0)
(-0.10378 -0.139913 0)
(-0.0547893 -0.112801 0)
(-0.00926179 -0.0685992 0)
(0.252622 2.46722 0)
(0.696096 2.56142 0)
(0.978236 2.124 0)
(1.07746 1.62103 0)
(1.02295 1.12227 0)
(0.866772 0.652878 0)
(0.644415 0.243035 0)
(0.399581 -0.108302 0)
(0.178591 -0.384225 0)
(-0.00190572 -0.556243 0)
(-0.139253 -0.605131 0)
(-0.2343 -0.550148 0)
(-0.290693 -0.449943 0)
(-0.31059 -0.374051 0)
(-0.299719 -0.357799 0)
(-0.274071 -0.38858 0)
(-0.251964 -0.426471 0)
(-0.247041 -0.439248 0)
(-0.262221 -0.424976 0)
(-0.286996 -0.403895 0)
(-0.304575 -0.393251 0)
(-0.306618 -0.390384 0)
(-0.296443 -0.378492 0)
(-0.282659 -0.346817 0)
(-0.270919 -0.304478 0)
(-0.25966 -0.273757 0)
(-0.246994 -0.267011 0)
(-0.233973 -0.271604 0)
(-0.22136 -0.261915 0)
(-0.20991 -0.228428 0)
(-0.200065 -0.190065 0)
(-0.189379 -0.175515 0)
(-0.172791 -0.193191 0)
(-0.150212 -0.218557 0)
(-0.131664 -0.222405 0)
(-0.123183 -0.194818 0)
(-0.116398 -0.14863 0)
(-0.106129 -0.105817 0)
(-0.0931914 -0.092474 0)
(-0.0788159 -0.115203 0)
(-0.0645725 -0.150129 0)
(-0.0494108 -0.166429 0)
(-0.0316175 -0.154291 0)
(-0.00966393 -0.117188 0)
(0.145835 1.87745 0)
(0.464832 2.03264 0)
(0.698873 1.80447 0)
(0.84804 1.51041 0)
(0.90014 1.1826 0)
(0.869058 0.841957 0)
(0.773584 0.500381 0)
(0.632339 0.183321 0)
(0.468929 -0.0835779 0)
(0.306894 -0.273087 0)
(0.163685 -0.37203 0)
(0.051939 -0.395044 0)
(-0.0239355 -0.379422 0)
(-0.0661732 -0.364079 0)
(-0.0817992 -0.370339 0)
(-0.0832593 -0.392728 0)
(-0.0837302 -0.412262 0)
(-0.0898106 -0.415631 0)
(-0.100296 -0.405309 0)
(-0.110655 -0.393541 0)
(-0.11626 -0.388314 0)
(-0.116551 -0.385666 0)
(-0.114758 -0.375182 0)
(-0.113932 -0.351925 0)
(-0.114168 -0.32226 0)
(-0.113467 -0.297884 0)
(-0.110931 -0.284867 0)
(-0.107507 -0.276869 0)
(-0.104228 -0.26286 0)
(-0.100804 -0.239794 0)
(-0.0959164 -0.217635 0)
(-0.0892592 -0.20971 0)
(-0.0797151 -0.217334 0)
(-0.0690231 -0.226403 0)
(-0.0624751 -0.221014 0)
(-0.0606464 -0.197532 0)
(-0.0574251 -0.165031 0)
(-0.0484325 -0.137312 0)
(-0.0348615 -0.127145 0)
(-0.0219638 -0.137832 0)
(-0.0145388 -0.157939 0)
(-0.0114131 -0.17118 0)
(-0.00746179 -0.171376 0)
(-0.00397051 -0.144627 0)
(0.081346 1.44132 0)
(0.299691 1.59981 0)
(0.469492 1.48028 0)
(0.611007 1.31096 0)
(0.702684 1.10332 0)
(0.742473 0.869185 0)
(0.732833 0.620534 0)
(0.679835 0.374051 0)
(0.595668 0.151433 0)
(0.496129 -0.0272709 0)
(0.395181 -0.151657 0)
(0.304282 -0.226971 0)
(0.230486 -0.271366 0)
(0.175414 -0.302981 0)
(0.136432 -0.332752 0)
(0.108648 -0.359804 0)
(0.0870086 -0.377998 0)
(0.0682371 -0.384347 0)
(0.0515569 -0.382465 0)
(0.0374092 -0.378781 0)
(0.0265088 -0.376285 0)
(0.0188404 -0.372179 0)
(0.0127416 -0.361579 0)
(0.00661117 -0.34317 0)
(0.000360642 -0.3211 0)
(-0.0053414 -0.301371 0)
(-0.00974977 -0.286621 0)
(-0.012518 -0.274355 0)
(-0.0139046 -0.260548 0)
(-0.0143865 -0.24484 0)
(-0.0141749 -0.231833 0)
(-0.0135882 -0.226259 0)
(-0.0126996 -0.226439 0)
(-0.011685 -0.225644 0)
(-0.0113373 -0.216501 0)
(-0.0116324 -0.198633 0)
(-0.0105586 -0.177533 0)
(-0.0060738 -0.160138 0)
(0.000971389 -0.151546 0)
(0.00703777 -0.153267 0)
(0.00925814 -0.160986 0)
(0.00753447 -0.168195 0)
(0.00542389 -0.171326 0)
(0.000179192 -0.149104 0)
(0.0471126 1.1163 0)
(0.1988 1.25498 0)
(0.317243 1.187 0)
(0.43039 1.08543 0)
(0.518638 0.954117 0)
(0.579038 0.799249 0)
(0.609335 0.628517 0)
(0.610253 0.452208 0)
(0.585578 0.283212 0)
(0.542611 0.133792 0)
(0.490381 0.0117692 0)
(0.435897 -0.0823698 0)
(0.383942 -0.154332 0)
(0.337194 -0.21133 0)
(0.296329 -0.257857 0)
(0.260849 -0.294481 0)
(0.229914 -0.320104 0)
(0.202769 -0.335139 0)
(0.178825 -0.342492 0)
(0.157641 -0.34569 0)
(0.138968 -0.346302 0)
(0.122656 -0.343297 0)
(0.108364 -0.334946 0)
(0.0956329 -0.321318 0)
(0.0841538 -0.304961 0)
(0.073818 -0.289147 0)
(0.0646478 -0.275544 0)
(0.0569927 -0.263557 0)
(0.0511423 -0.251895 0)
(0.0464925 -0.240602 0)
(0.0421711 -0.23136 0)
(0.0377379 -0.225553 0)
(0.0331007 -0.222047 0)
(0.0284851 -0.217433 0)
(0.0242373 -0.208684 0)
(0.0208106 -0.195811 0)
(0.0188432 -0.1816 0)
(0.0186133 -0.169422 0)
(0.0193848 -0.161533 0)
(0.0196016 -0.158417 0)
(0.0179491 -0.158781 0)
(0.0140247 -0.16049 0)
(0.00945543 -0.16184 0)
(0.00177312 -0.140881 0)
(0.0302925 0.863535 0)
(0.138972 0.976803 0)
(0.223748 0.933918 0)
(0.310198 0.868999 0)
(0.382802 0.783747 0)
(0.440643 0.68153 0)
(0.481789 0.566762 0)
(0.505226 0.445137 0)
(0.511596 0.323378 0)
(0.503498 0.208434 0)
(0.484969 0.105346 0)
(0.459884 0.0164602 0)
(0.431139 -0.0586258 0)
(0.400724 -0.121622 0)
(0.370068 -0.173904 0)
(0.340117 -0.215915 0)
(0.311512 -0.247759 0)
(0.284612 -0.27021 0)
(0.259501 -0.284984 0)
(0.236136 -0.294034 0)
(0.214441 -0.298561 0)
(0.19442 -0.298737 0)
(0.176154 -0.294402 0)
(0.159667 -0.286064 0)
(0.144859 -0.275218 0)
(0.131546 -0.263722 0)
(0.11955 -0.252835 0)
(0.108777 -0.242835 0)
(0.0991364 -0.233498 0)
(0.0903854 -0.224857 0)
(0.0821233 -0.217371 0)
(0.0739493 -0.211349 0)
(0.0657099 -0.206233 0)
(0.0576023 -0.200664 0)
(0.0500083 -0.193409 0)
(0.0433045 -0.184365 0)
(0.0377224 -0.174598 0)
(0.033183 -0.165559 0)
(0.0292626 -0.158316 0)
(0.0253343 -0.153254 0)
(0.0208391 -0.150148 0)
(0.0154743 -0.148447 0)
(0.00999992 -0.14759 0)
(0.00210363 -0.127325 0)
(0.0220988 0.656123 0)
(0.100875 0.744435 0)
(0.16411 0.71562 0)
(0.230048 0.672292 0)
(0.287497 0.61559 0)
(0.336634 0.547507 0)
(0.376327 0.470577 0)
(0.405619 0.387885 0)
(0.424553 0.302907 0)
(0.433408 0.219301 0)
(0.43338 0.140174 0)
(0.426562 0.0676642 0)
(0.414558 0.00286897 0)
(0.398629 -0.0538974 0)
(0.379901 -0.102622 0)
(0.359414 -0.143314 0)
(0.338046 -0.176069 0)
(0.316478 -0.201297 0)
(0.295174 -0.219806 0)
(0.274426 -0.232593 0)
(0.254428 -0.240513 0)
(0.235348 -0.244122 0)
(0.217362 -0.243845 0)
(0.200619 -0.240277 0)
(0.185152 -0.234328 0)
(0.170875 -0.227065 0)
(0.157634 -0.219384 0)
(0.145265 -0.211801 0)
(0.133615 -0.204519 0)
(0.122512 -0.197642 0)
(0.111777 -0.191309 0)
(0.101249 -0.185583 0)
(0.0908336 -0.180253 0)
(0.0805976 -0.174865 0)
(0.0707371 -0.168964 0)
(0.0614602 -0.162424 0)
(0.0528953 -0.155537 0)
(0.045034 -0.148831 0)
(0.0377362 -0.142798 0)
(0.0307791 -0.13774 0)
(0.0239301 -0.133756 0)
(0.0169554 -0.130801 0)
(0.0105806 -0.128835 0)
(0.00216001 -0.110371 0)
(0.0179608 0.487222 0)
(0.0766435 0.553181 0)
(0.126728 0.533203 0)
(0.17896 0.503484 0)
(0.225262 0.464962 0)
(0.26639 0.418937 0)
(0.301728 0.366921 0)
(0.330524 0.310662 0)
(0.352522 0.252071 0)
(0.367941 0.193031 0)
(0.37691 0.135479 0)
(0.379816 0.0809201 0)
(0.377777 0.0304839 0)
(0.371658 -0.0150913 0)
(0.36211 -0.0553614 0)
(0.349934 -0.0900776 0)
(0.335852 -0.119158 0)
(0.320487 -0.142715 0)
(0.304358 -0.161058 0)
(0.287872 -0.17465 0)
(0.271341 -0.183998 0)
(0.255011 -0.189589 0)
(0.239093 -0.191892 0)
(0.223773 -0.191419 0)
(0.209121 -0.188769 0)
(0.195112 -0.18459 0)
(0.181711 -0.179485 0)
(0.168847 -0.173926 0)
(0.156413 -0.168227 0)
(0.144302 -0.162585 0)
(0.132414 -0.157125 0)
(0.120688 -0.151912 0)
(0.109101 -0.146926 0)
(0.0976717 -0.142042 0)
(0.0864902 -0.137123 0)
(0.0756644 -0.132101 0)
(0.0652763 -0.127035 0)
(0.055364 -0.122088 0)
(0.0459162 -0.117462 0)
(0.0368766 -0.113334 0)
(0.0281613 -0.109829 0)
(0.0195218 -0.107015 0)
(0.0119531 -0.105011 0)
(0.00237166 -0.0897427 0)
(0.016163 0.360987 0)
(0.0626875 0.409223 0)
(0.105618 0.394684 0)
(0.149703 0.373405 0)
(0.189007 0.34621 0)
(0.224647 0.313941 0)
(0.256242 0.277529 0)
(0.283196 0.238038 0)
(0.305195 0.196632 0)
(0.322191 0.154501 0)
(0.334266 0.112771 0)
(0.341636 0.0725082 0)
(0.344617 0.0345809 0)
(0.343835 -0.000344394 0)
(0.339925 -0.0317949 0)
(0.333269 -0.0594591 0)
(0.324372 -0.0831722 0)
(0.313728 -0.102905 0)
(0.301781 -0.118756 0)
(0.28892 -0.130937 0)
(0.275471 -0.139731 0)
(0.261703 -0.145467 0)
(0.247836 -0.148498 0)
(0.234051 -0.149203 0)
(0.220471 -0.148004 0)
(0.207148 -0.145333 0)
(0.194099 -0.141611 0)
(0.181315 -0.137215 0)
(0.168757 -0.132444 0)
(0.156378 -0.127525 0)
(0.14413 -0.122616 0)
(0.131976 -0.117821 0)
(0.119922 -0.113191 0)
(0.107992 -0.108734 0)
(0.0962098 -0.104432 0)
(0.0846378 -0.100272 0)
(0.0733399 -0.0962698 0)
(0.0623649 -0.092479 0)
(0.0517405 -0.0889804 0)
(0.0414717 -0.0858614 0)
(0.0315488 -0.0831986 0)
(0.0216692 -0.0810431 0)
(0.0131394 -0.079494 0)
(0.00255523 -0.0680166 0)
(0.015483 0.268966 0)
(0.0541092 0.304075 0)
(0.0926115 0.293092 0)
(0.130946 0.27736 0)
(0.165359 0.257559 0)
(0.196943 0.234165 0)
(0.225388 0.207762 0)
(0.250205 0.179062 0)
(0.271119 0.148849 0)
(0.288011 0.117934 0)
(0.300901 0.087088 0)
(0.309953 0.0570526 0)
(0.315381 0.0284838 0)
(0.317476 0.00190742 0)
(0.316597 -0.022272 0)
(0.313103 -0.0437663 0)
(0.307369 -0.0623978 0)
(0.299765 -0.0780908 0)
(0.290647 -0.0908618 0)
(0.280345 -0.100809 0)
(0.269153 -0.108096 0)
(0.257331 -0.112939 0)
(0.245105 -0.115586 0)
(0.232643 -0.116313 0)
(0.220091 -0.11542 0)
(0.207555 -0.113221 0)
(0.195089 -0.110024 0)
(0.182724 -0.106132 0)
(0.170467 -0.101801 0)
(0.15831 -0.0972438 0)
(0.146246 -0.0926351 0)
(0.134279 -0.088101 0)
(0.122395 -0.0836833 0)
(0.110568 -0.0794899 0)
(0.0988273 -0.0755492 0)
(0.0872225 -0.0718756 0)
(0.0758032 -0.0684864 0)
(0.0646139 -0.0654089 0)
(0.0536891 -0.0626807 0)
(0.0430531 -0.0603452 0)
(0.0327336 -0.0584444 0)
(0.0224351 -0.0570082 0)
(0.0135273 -0.0560492 0)
(0.00265494 -0.0481608 0)
(0.014667 0.199314 0)
(0.0471978 0.224632 0)
(0.0816606 0.216353 0)
(0.114908 0.2047 0)
(0.145098 0.190153 0)
(0.17302 0.172944 0)
(0.198379 0.153465 0)
(0.220761 0.132228 0)
(0.23993 0.109807 0)
(0.255761 0.0867939 0)
(0.268267 0.0636869 0)
(0.277558 0.041155 0)
(0.283738 0.0196313 0)
(0.286897 -0.000484164 0)
(0.287342 -0.0188649 0)
(0.285429 -0.0352748 0)
(0.281381 -0.0495522 0)
(0.275482 -0.0616118 0)
(0.268032 -0.0714393 0)
(0.259318 -0.0790823 0)
(0.249605 -0.0846417 0)
(0.239137 -0.088261 0)
(0.228126 -0.0901157 0)
(0.216749 -0.0904126 0)
(0.205159 -0.0893656 0)
(0.193483 -0.0872125 0)
(0.181797 -0.0841912 0)
(0.17016 -0.0805322 0)
(0.158609 -0.0764502 0)
(0.147148 -0.0721336 0)
(0.135813 -0.0677434 0)
(0.124681 -0.0633415 0)
(0.113645 -0.0591588 0)
(0.102622 -0.0552173 0)
(0.0917158 -0.0515702 0)
(0.0809696 -0.0482489 0)
(0.0704054 -0.0452799 0)
(0.0600475 -0.0426895 0)
(0.049918 -0.0405042 0)
(0.0400374 -0.0387524 0)
(0.0304423 -0.0374629 0)
(0.0209263 -0.0366601 0)
(0.0126206 -0.0362691 0)
(0.00255115 -0.031433 0)
(0.0132557 0.146804 0)
(0.0403531 0.164927 0)
(0.0702541 0.158776 0)
(0.09837 0.150179 0)
(0.124234 0.139424 0)
(0.148233 0.12663 0)
(0.170079 0.1121 0)
(0.189421 0.0962053 0)
(0.206073 0.0793057 0)
(0.219805 0.0619341 0)
(0.230726 0.0446869 0)
(0.238934 0.0278216 0)
(0.244312 0.011675 0)
(0.247006 -0.00344038 0)
(0.247258 -0.0172709 0)
(0.245356 -0.029622 0)
(0.241534 -0.0403613 0)
(0.236025 -0.0494099 0)
(0.2291 -0.0567428 0)
(0.221025 -0.0623854 0)
(0.212034 -0.0664027 0)
(0.202358 -0.068894 0)
(0.192204 -0.069987 0)
(0.181737 -0.0698306 0)
(0.171109 -0.0685902 0)
(0.160448 -0.0664434 0)
(0.149837 -0.0635769 0)
(0.139348 -0.0601646 0)
(0.129068 -0.0563839 0)
(0.119045 -0.0523136 0)
(0.109362 -0.0481532 0)
(0.0998259 -0.0441349 0)
(0.0903875 -0.0403323 0)
(0.0812233 -0.0367497 0)
(0.0722973 -0.0334496 0)
(0.0636066 -0.0304836 0)
(0.0551439 -0.0278903 0)
(0.0469093 -0.025701 0)
(0.0389061 -0.0239431 0)
(0.0311392 -0.0226435 0)
(0.0236353 -0.0218289 0)
(0.0163135 -0.0215251 0)
(0.00994526 -0.0216033 0)
(0.00200041 -0.0190293 0)
(0.0111872 0.108461 0)
(0.0330314 0.12146 0)
(0.0576616 0.116919 0)
(0.0804011 0.110541 0)
(0.101501 0.102488 0)
(0.121032 0.092839 0)
(0.138618 0.0818248 0)
(0.153833 0.0698145 0)
(0.166712 0.0572574 0)
(0.177441 0.0443658 0)
(0.185664 0.0315279 0)
(0.19117 0.0189185 0)
(0.194227 0.00684079 0)
(0.195065 -0.00447166 0)
(0.193751 -0.0148303 0)
(0.190488 -0.0240793 0)
(0.185607 -0.0321134 0)
(0.179322 -0.0388677 0)
(0.171915 -0.0443156 0)
(0.163631 -0.0484679 0)
(0.154684 -0.051369 0)
(0.145259 -0.0530881 0)
(0.135552 -0.0537223 0)
(0.125774 -0.0533807 0)
(0.116086 -0.0521864 0)
(0.106613 -0.0502715 0)
(0.0974523 -0.0477681 0)
(0.0886975 -0.0447875 0)
(0.0805143 -0.0414719 0)
(0.0728237 -0.0380552 0)
(0.0653775 -0.0345724 0)
(0.0583181 -0.0311956 0)
(0.0518234 -0.0278924 0)
(0.0457874 -0.0247892 0)
(0.0401108 -0.0219384 0)
(0.0347596 -0.019396 0)
(0.0297093 -0.0172061 0)
(0.0249389 -0.0154048 0)
(0.0204231 -0.0140258 0)
(0.0161459 -0.0131006 0)
(0.0121168 -0.0126616 0)
(0.00836475 -0.0127385 0)
(0.00535431 -0.0131855 0)
(0.000858807 -0.0119573 0)
(0.00861745 0.0816251 0)
(0.0250848 0.0910291 0)
(0.0437544 0.0877357 0)
(0.0607751 0.0831418 0)
(0.0765602 0.0772412 0)
(0.0909016 0.0701077 0)
(0.103538 0.0619479 0)
(0.114319 0.0530606 0)
(0.122954 0.0437946 0)
(0.129253 0.0342951 0)
(0.133293 0.0246352 0)
(0.135142 0.0151615 0)
(0.134955 0.00607871 0)
(0.132922 -0.00244773 0)
(0.129238 -0.0102774 0)
(0.123994 -0.0172963 0)
(0.117351 -0.023418 0)
(0.10966 -0.0285872 0)
(0.101172 -0.0327824 0)
(0.0920773 -0.0360068 0)
(0.0826474 -0.0382913 0)
(0.0730562 -0.0396901 0)
(0.0635048 -0.0402732 0)
(0.0542346 -0.0401245 0)
(0.0453893 -0.0393381 0)
(0.0371135 -0.0380059 0)
(0.0295466 -0.0362229 0)
(0.0227394 -0.0341052 0)
(0.0166136 -0.0317351 0)
(0.0112957 -0.0292968 0)
(0.00689169 -0.0268095 0)
(0.00332114 -0.0242404 0)
(0.000550333 -0.0217163 0)
(-0.00151363 -0.0193281 0)
(-0.00297219 -0.0171256 0)
(-0.00391474 -0.0151546 0)
(-0.00442753 -0.0134585 0)
(-0.00458561 -0.0120808 0)
(-0.0044529 -0.0110674 0)
(-0.0040816 -0.0104656 0)
(-0.00348094 -0.0103257 0)
(-0.00249344 -0.0106953 0)
(-0.000858558 -0.0114464 0)
(-0.000812723 -0.0106818 0)
(0.00578563 0.0651126 0)
(0.0169322 0.0722796 0)
(0.0295986 0.0698332 0)
(0.0408045 0.0664877 0)
(0.0508848 0.062199 0)
(0.0596025 0.0570292 0)
(0.0667226 0.0511318 0)
(0.0721177 0.0446437 0)
(0.0756919 0.0376384 0)
(0.0774168 0.0304014 0)
(0.0773498 0.023093 0)
(0.0755553 0.0158782 0)
(0.0721445 0.00890832 0)
(0.0672779 0.00231996 0)
(0.0611426 -0.00377443 0)
(0.0538956 -0.00928958 0)
(0.045732 -0.0141559 0)
(0.036823 -0.0183296 0)
(0.0273374 -0.0217927 0)
(0.0175191 -0.0245493 0)
(0.00761106 -0.0266237 0)
(-0.00218292 -0.0280654 0)
(-0.0116694 -0.0289256 0)
(-0.0206509 -0.029268 0)
(-0.0289506 -0.0291891 0)
(-0.0364089 -0.0287313 0)
(-0.0429164 -0.0279806 0)
(-0.0483575 -0.0270321 0)
(-0.052662 -0.0259407 0)