/*--------------------------------*- C++ -*----------------------------------*\
  =========                 |
  \\      /  F ield         | OpenFOAM: The Open Source CFD Toolbox
   \\    /   O peration     | Website:  https://openfoam.org
    \\  /    A nd           | Version:  7
     \\/     M anipulation  |
\*---------------------------------------------------------------------------*/
FoamFile
{
    version     2.0;
    format      ascii;
    class       surfaceScalarField;
    location    "9.6";
    object      phi;
}
// * * * * * * * * * * * * * * * * * * * * * * * * * * * * * * * * * * * * * //

dimensions      [0 3 -1 0 0 0 0];

internalField   nonuniform List<scalar> 
1740
(
7.13858e-07
-7.14459e-07
-2.87589e-07
1.00144e-06
-3.19817e-06
2.91058e-06
-7.65691e-06
4.45874e-06
-1.3182e-05
5.52511e-06
-1.93528e-05
6.17082e-06
-2.58497e-05
6.49682e-06
-3.24335e-05
6.58384e-06
-3.8909e-05
6.47545e-06
-4.50896e-05
6.18067e-06
-5.07731e-05
5.68348e-06
-5.57279e-05
4.95473e-06
-5.96929e-05
3.96501e-06
-6.23905e-05
2.69761e-06
-6.35512e-05
1.16068e-06
-6.29479e-05
-6.03262e-07
-6.04355e-05
-2.51236e-06
-5.59964e-05
-4.43915e-06
-4.97729e-05
-6.22349e-06
-4.20855e-05
-7.68742e-06
-3.34268e-05
-8.65872e-06
-2.44272e-05
-8.99955e-06
-1.57929e-05
-8.63433e-06
-8.22185e-06
-7.57102e-06
-2.31045e-06
-5.9114e-06
1.54512e-06
-3.85557e-06
3.21823e-06
-1.67312e-06
2.8994e-06
3.18824e-07
1.33808e-06
1.56132e-06
1.33807e-06
-1.00165e-06
2.8719e-07
-5.86299e-06
5.86278e-06
-1.47451e-05
1.17927e-05
-2.69073e-05
1.6621e-05
-4.14634e-05
2.00812e-05
-5.75645e-05
2.22719e-05
-7.44783e-05
2.34106e-05
-9.1586e-05
2.36915e-05
-0.000108338
2.32272e-05
-0.000124201
2.20441e-05
-0.000138621
2.01033e-05
-0.000151
1.73334e-05
-0.000160703
1.36687e-05
-0.000167094
9.08823e-06
-0.000169581
3.64814e-06
-0.000167715
-2.4694e-06
-0.000161225
-9.00242e-06
-0.000150149
-1.5515e-05
-0.000134872
-2.15006e-05
-0.000116157
-2.64028e-05
-9.51255e-05
-2.96902e-05
-7.3184e-05
-3.0941e-05
-5.18917e-05
-2.99266e-05
-3.27867e-05
-2.66761e-05
-1.71901e-05
-2.1508e-05
-6.01926e-06
-1.50264e-05
3.9697e-07
-8.08934e-06
2.53996e-06
-1.82416e-06
1.62967e-06
2.47162e-06
2.96774e-06
-3.16749e-06
3.45468e-06
-1.26206e-05
1.53158e-05
-2.75811e-05
2.67532e-05
-4.69554e-05
3.59953e-05
-6.95454e-05
4.26712e-05
-9.42211e-05
4.69475e-05
-0.000119978
4.91675e-05
-0.000145927
4.96406e-05
-0.000171248
4.85478e-05
-0.000195133
4.59293e-05
-0.000216747
4.17177e-05
-0.00023521
3.57965e-05
-0.000249611
2.80691e-05
-0.000259052
1.85295e-05
-0.000262735
7.33064e-06
-0.000260029
-5.17491e-06
-0.000250606
-1.84258e-05
-0.000234533
-3.1588e-05
-0.00021235
-4.36833e-05
-0.000185107
-5.36457e-05
-0.000154342
-6.04557e-05
-0.000121985
-6.32975e-05
-9.01957e-05
-6.17161e-05
-6.11279e-05
-5.57438e-05
-3.66659e-05
-4.597e-05
-1.81544e-05
-3.35378e-05
-6.1567e-06
-2.00871e-05
-3.0183e-07
-7.67904e-06
9.15228e-07
1.25457e-06
3.88296e-06
-5.31362e-06
8.7683e-06
-1.93241e-05
2.93263e-05
-4.0271e-05
4.77001e-05
-6.65007e-05
6.2225e-05
-9.64891e-05
7.26596e-05
-0.000128877
7.93358e-05
-0.00016247
8.27601e-05
-0.000196194
8.33649e-05
-0.000229041
8.13944e-05
-0.000260004
7.68925e-05
-0.00028804
6.97534e-05
-0.000312052
5.98084e-05
-0.000330911
4.69281e-05
-0.00034351
3.11293e-05
-0.000348854
1.26745e-05
-0.000346159
-7.86989e-06
-0.000334974
-2.96106e-05
-0.000315322
-5.12405e-05
-0.000287781
-7.1224e-05
-0.000253549
-8.78774e-05
-0.000214434
-9.95707e-05
-0.000172764
-0.000104968
-0.0001312
-0.00010328
-9.24682e-05
-9.44756e-05
-5.90246e-05
-7.94136e-05
-3.27111e-05
-5.98513e-05
-1.44516e-05
-3.83465e-05
-4.04272e-06
-1.8088e-05
-9.47451e-08
-2.69341e-06
3.78821e-06
-7.28101e-06
1.60493e-05
-2.56232e-05
4.76685e-05
-5.22767e-05
7.43536e-05
-8.49863e-05
9.49345e-05
-0.000121878
0.000109551
-0.000161385
0.000118843
-0.000202172
0.000123547
-0.000243048
0.000124241
-0.000282886
0.000121232
-0.00032055
0.000114556
-0.00035485
0.000104054
-0.000384526
8.94842e-05
-0.000408265
7.06672e-05
-0.00042476
4.76241e-05
-0.000432798
2.07127e-05
-0.000431387
-9.28064e-06
-0.000419854
-4.11433e-05
-0.000398052
-7.30431e-05
-0.000366454
-0.000102821
-0.000326263
-0.000128069
-0.000279437
-0.000146397
-0.00022863
-0.000155775
-0.000177006
-0.000154904
-0.00012793
-0.000143552
-8.45601e-05
-0.000122783
-4.94047e-05
-9.50068e-05
-2.39221e-05
-6.38291e-05
-8.25327e-06
-3.37568e-05
-1.13766e-06
-9.80902e-06
2.65055e-06
-9.04995e-06
2.50993e-05
-3.14016e-05
7.00201e-05
-6.33899e-05
0.000106342
-0.000102174
0.000133718
-0.000145537
0.000152915
-0.000191728
0.000165034
-0.00023931
0.000171129
-0.00028703
0.00017196
-0.000333704
0.000167906
-0.00037813
0.000158982
-0.000419027
0.000144951
-0.00045501
0.000125467
-0.0004846
0.000100257
-0.000506273
6.92974e-05
-0.000518551
3.29903e-05
-0.00052015
-7.68151e-06
-0.000510022
-5.12714e-05
-0.000487697
-9.53677e-05
-0.000453371
-0.000137148
-0.000408079
-0.00017336
-0.000353805
-0.00020067
-0.000293471
-0.00021611
-0.000230776
-0.000217598
-0.000169865
-0.000204463
-0.000114824
-0.000177825
-6.90957e-05
-0.000140735
-3.49276e-05
-9.79972e-05
-1.29848e-05
-5.56996e-05
-2.22055e-06
-2.05732e-05
4.2999e-07
-1.06337e-05
3.5733e-05
-3.66366e-05
9.6023e-05
-7.3535e-05
0.00014324
-0.000117957
0.000178141
-0.00016738
0.000202337
-0.000219897
0.000217552
-0.000274014
0.000225246
-0.000328466
0.000226412
-0.000382071
0.000221511
-0.000433618
0.000210529
-0.000481785
0.000193118
-0.000525097
0.000168779
-0.000561917
0.000137077
-0.000590482
9.78625e-05
-0.000608964
5.14717e-05
-0.000615749
-8.9609e-07
-0.000609161
-5.78593e-05
-0.000588292
-0.000116237
-0.000552831
-0.000172609
-0.000503445
-0.000222746
-0.00044197
-0.000262145
-0.000371501
-0.000286578
-0.000296297
-0.000292803
-0.000221439
-0.000279321
-0.000152233
-0.00024703
-9.34301e-05
-0.000199538
-4.84288e-05
-0.000142999
-1.86823e-05
-8.54461e-05
-3.47327e-06
-3.57822e-05
-3.04328e-06
-1.20401e-05
4.77731e-05
-4.1314e-05
0.000125297
-8.26563e-05
0.000184583
-0.000132242
0.000227726
-0.000187291
0.000257387
-0.000245789
0.00027605
-0.000306226
0.000285683
-0.000367375
0.000287561
-0.000428113
0.000282249
-0.000487275
0.000269691
-0.000543546
0.00024939
-0.000595398
0.00022063
-0.000641047
0.000182727
-0.000678475
0.00013529
-0.000705496
7.84933e-05
-0.000719766
1.33734e-05
-0.000719325
-5.83003e-05
-0.000702328
-0.000133233
-0.000667783
-0.000207154
-0.000615746
-0.000274784
-0.000547671
-0.00033022
-0.000466649
-0.0003676
-0.000377438
-0.000382014
-0.000286174
-0.000370585
-0.0001997
-0.000333505
-0.000124541
-0.000274696
-6.57568e-05
-0.000201783
-2.59933e-05
-0.00012521
-5.06277e-06
-5.67127e-05
-8.10605e-06
-1.32609e-05
6.1034e-05
-4.53928e-05
0.000157429
-9.06608e-05
0.000229851
-0.000144873
0.000281939
-0.000205056
0.000317569
-0.00026913
0.000340125
-0.000335619
0.000352171
-0.000403381
0.000355324
-0.000471403
0.00035027
-0.000538617
0.000336905
-0.000603767
0.00031454
-0.000665306
0.000282169
-0.000721329
0.000238749
-0.000769554
0.000183515
-0.000807362
0.000116301
-0.000831871
3.78828e-05
-0.000840301
-4.98703e-05
-0.000829971
-0.000143563
-0.000798945
-0.00023818
-0.000746386
-0.000327343
-0.000673053
-0.000403554
-0.000581729
-0.000458924
-0.00047746
-0.000486283
-0.000367424
-0.000480621
-0.000260259
-0.00044067
-0.000164805
-0.00037015
-8.84636e-05
-0.000278124
-3.56941e-05
-0.000177979
-7.21655e-06
-8.51903e-05
-1.53226e-05
-1.42732e-05
7.53072e-05
-4.87987e-05
0.000191954
-9.74013e-05
0.000278453
-0.000155614
0.000340151
-0.000220327
0.000382282
-0.000289447
0.000409245
-0.000361566
0.000424289
-0.000435671
0.000429429
-0.0005109
0.0004255
-0.000586333
0.000412338
-0.000660818
0.000389026
-0.000732836
0.000354186
-0.000800395
0.000306308
-0.000860982
0.000244102
-0.000911571
0.00016689
-0.000948697
7.50086e-05
-0.000968781
-2.97862e-05
-0.000968154
-0.000144189
-0.000943795
-0.000262539
-0.000893704
-0.000377434
-0.000817566
-0.000479692
-0.000717409
-0.000559081
-0.000598137
-0.000605555
-0.000467706
-0.000611052
-0.000336635
-0.000571741
-0.000216598
-0.000490187
-0.000118205
-0.000376518
-4.86387e-05
-0.000247546
-1.01777e-05
-0.000123651
-2.55003e-05
-1.50435e-05
9.03507e-05
-5.14311e-05
0.000228342
-0.000102685
0.000329707
-0.000164151
0.000401617
-0.000232639
0.000450771
-0.000306074
0.00048268
-0.000383147
0.000501362
-0.000462999
0.000509282
-0.000544953
0.000507454
-0.000628271
0.000495655
-0.000711948
0.000472703
-0.000794541
0.000436779
-0.000874033
0.0003858
-0.000947748
0.000317817
-0.00101233
0.000231474
-0.0010638
0.000126476
-0.00109787
4.28594e-06
-0.00110988
-0.000132177
-0.0010957
-0.000276726
-0.00105193
-0.000421199
-0.000976819
-0.000554806
-0.000871051
-0.000664849
-0.000738697
-0.000737908
-0.00058787
-0.000761879
-0.000430693
-0.000728917
-0.000282015
-0.000638865
-0.000156633
-0.0005019
-6.57329e-05
-0.000338446
-1.42095e-05
-0.000175175
-3.97097e-05
-1.55349e-05
0.000105886
-5.31801e-05
0.000265987
-0.000106299
0.000382826
-0.000170131
0.000465448
-0.000241448
0.000522088
-0.000318211
0.000559443
-0.000399219
0.000582369
-0.000483777
0.000593839
-0.000571402
0.000595079
-0.000661556
0.00058581
-0.000753417
0.000564563
-0.000845668
0.000529031
-0.000936345
0.000476477
-0.00102272
0.000404191
-0.00110126
0.000310012
-0.00116769
0.000192906
-0.00121697
5.35661e-05
-0.00124403
-0.000105113
-0.00124348
-0.000277282
-0.00121053
-0.000454145
-0.00114166
-0.000623679
-0.0010356
-0.000770907
-0.000894662
-0.000878843
-0.00072606
-0.000930482
-0.000542687
-0.00091229
-0.00036245
-0.000819102
-0.000205238
-0.000659112
-8.79093e-05
-0.000455774
-1.96034e-05
-0.000243481
-5.93132e-05
-1.57156e-05
0.000121601
-5.39508e-05
0.000304222
-0.000108053
0.000436928
-0.000173221
0.000530616
-0.000246213
0.00059508
-0.000325025
0.000638255
-0.000408549
0.000665893
-0.000496236
0.000681527
-0.000587787
0.00068663
-0.000682865
0.000680888
-0.000780843
0.000662541
-0.000880582
0.00062877
-0.000980258
0.000576152
-0.00107723
0.000501167
-0.00116801
0.00040079
-0.00124825
0.000273143
-0.00131281
0.000118131
-0.00135599
-6.19413e-05
-0.00137184
-0.000261426
-0.00135428
-0.000471707
-0.00129787
-0.000680084
-0.00119889
-0.000869894
-0.00105685
-0.00102088
-0.000876608
-0.00111072
-0.000670306
-0.00111859
-0.000457987
-0.00103142
-0.000265093
-0.000852006
-0.000116068
-0.000604799
-2.66817e-05
-0.000332867
-8.59948e-05
-1.55698e-05
0.000137171
-5.36941e-05
0.000342347
-0.000107831
0.000491066
-0.000173188
0.000595973
-0.000246506
0.000668398
-0.000325793
0.000717542
-0.000409999
0.000750099
-0.000498682
0.00077021
-0.000591691
0.000779638
-0.000688864
0.000778062
-0.000789776
0.000763453
-0.000893506
0.0007325
-0.000998467
0.000681113
-0.00110229
0.000604985
-0.00120175
0.000500252
-0.0012928
0.000364195
-0.00137064
0.000195972
-0.00142926
-3.32305e-06
-0.00146301
-0.000227677
-0.00146464
-0.000470074
-0.0014271
-0.000717628
-0.00134393
-0.000953063
-0.001211
-0.00115381
-0.00102918
-0.00129255
-0.000807648
-0.00134012
-0.000566588
-0.00127248
-0.000336427
-0.00108217
-0.000150954
-0.000790272
-3.57857e-05
-0.000448035
-0.000121781
-1.51093e-05
0.00015228
-5.24418e-05
0.000379679
-0.000105659
0.000544283
-0.00016999
0.000660303
-0.000242137
0.000740545
-0.000320075
0.00079548
-0.00040276
0.000832784
-0.000489801
0.000857251
-0.000581141
0.000870978
-0.000676761
0.000873683
-0.000776426
0.000863118
-0.000879469
0.000835544
-0.000984636
0.000786279
-0.00108998
0.000710333
-0.00119285
0.000603113
-0.00128981
0.000461164
-0.00137668
0.000282839
-0.00144874
6.87313e-05
-0.00149955
-0.000176864
-0.00152246
-0.000447161
-0.00150914
-0.00073095
-0.00145061
-0.00101159
-0.00133866
-0.00126576
-0.00116873
-0.00146247
-0.000944533
-0.00156432
-0.000683229
-0.00153379
-0.000418052
-0.00134734
-0.000192951
-0.00101537
-4.72468e-05
-0.000593739
-0.000169027
-1.43865e-05
0.000166667
-5.03449e-05
0.000415637
-0.000101769
0.000595708
-0.000163879
0.000722413
-0.000233291
0.000809956
-0.000307893
0.000870083
-0.000386588
0.000911479
-0.000468976
0.000939639
-0.000555043
0.000957045
-0.000644876
0.000963516
-0.000738423
0.000956665
-0.000835306
0.000932426
-0.000934694
0.000885667
-0.00103524
0.000810877
-0.00113505
0.000702921
-0.00123167
0.000557791
-0.00132207
0.00037324
-0.00140254
0.000149193
-0.0014678
-0.000111599
-0.00151177
-0.000403193
-0.00152579
-0.00071693
-0.00149913
-0.00103825
-0.00141975
-0.00134514
-0.00127696
-0.00160526
-0.00106673
-0.00177455
-0.000799355
-0.00180116
-0.000506756
-0.00163994
-0.000241823
-0.00128031
-6.13437e-05
-0.000774218
-0.000230371
-1.35068e-05
0.000180174
-4.77124e-05
0.000449843
-9.6668e-05
0.000644663
-0.000155495
0.00078124
-0.000220652
0.000875113
-0.000289886
0.000939317
-0.000362
0.000983593
-0.000436548
0.00101419
-0.000513524
0.00103402
-0.0005931
0.00104309
-0.000675414
0.00103898
-0.000760418
0.00101743
-0.000847791
0.000973041
-0.000936903
0.000899989
-0.00102681
0.00079283
-0.00111625
0.000647233
-0.00120357
0.00046056
-0.00128659
0.000232204
-0.00136148
-3.67054e-05
-0.00142366
-0.000341016
-0.001465
-0.000675583
-0.00147421
-0.00102904
-0.00143648
-0.00138288
-0.0013353
-0.00170644
-0.00115761
-0.00195224
-0.000903167
-0.00205561
-0.000596921
-0.00194619
-0.000296446
-0.00158078
-7.82655e-05
-0.000992398
-0.000308636
-1.26442e-05
0.000192818
-4.50548e-05
0.000482254
-9.12057e-05
0.000690814
-0.000145948
0.000835983
-0.000205494
0.000934659
-0.000267414
0.00100124
-0.000330403
0.00104658
-0.000393965
0.00107775
-0.00045811
0.00109817
-0.00052311
0.00110809
-0.000589324
0.00110519
-0.000657091
0.0010852
-0.000726675
0.00104262
-0.000798255
0.000971569
-0.000871937
0.000866512
-0.000947734
0.000723031
-0.00102547
0.0005383
-0.00110455
0.00031128
-0.00118352
4.22643e-05
-0.00125872
-0.000265811
-0.0013241
-0.000610205
-0.00136903
-0.000984113
-0.00137756
-0.00137435
-0.00132888
-0.00175512
-0.00120113
-0.00207998
-0.000981079
-0.00227566
-0.000680646
-0.00224662
-0.000354626
-0.0019068
-9.8111e-05
-0.00124891
-0.000406747
-1.20637e-05
0.000204881
-4.31387e-05
0.000513329
-8.6649e-05
0.000734324
-0.000136897
0.000886231
-0.000189748
0.00098751
-0.000242604
0.00105409
-0.000294105
0.00109808
-0.000343769
0.00112741
-0.000391683
0.00114608
-0.00043828
0.00115469
-0.000484205
0.00115112
-0.000530249
0.00113124
-0.000577325
0.0010897
-0.000626478
0.00102072
-0.000678887
0.000918921
-0.000735829
0.000779973
-0.00079855
0.000601021
-0.000868021
0.000380751
-0.000944721
0.000118964
-0.00102683
-0.000183703
-0.00111042
-0.000526609
-0.00118682
-0.000907716
-0.00124089
-0.00132028
-0.00124989
-0.00174612
-0.00118515
-0.00214473
-0.00102005
-0.00244075
-0.000748553
-0.00251812
-0.000413087
-0.00224227
-0.000120957
-0.00154104
-0.000527705
-1.21624e-05
0.000217044
-4.30724e-05
0.000544239
-8.47752e-05
0.000776027
-0.000130611
0.000932066
-0.000176014
0.00103291
-0.000218305
0.00109638
-0.000256213
0.00113599
-0.000289416
0.00116062
-0.000318207
0.00117487
-0.000343288
0.00117977
-0.000365678
0.00117351
-0.000386688
0.00115225
-0.000407927
0.00111094
-0.000431309
0.0010441
-0.000459054
0.000946665
-0.000493595
0.000814514
-0.000537417
0.000644843
-0.000592856
0.00043619
-0.000661753
0.000187861
-0.000744448
-0.000101007
-0.000839029
-0.000432028
-0.000939539
-0.000807206
-0.00103341
-0.00122641
-0.00109883
-0.0016807
-0.00110365
-0.00213992
-0.00100994
-0.00253445
-0.000791188
-0.00273688
-0.000467684
-0.00256577
-0.000146995
-0.00186173
-0.0006747
-1.35535e-05
0.000230597
-4.64551e-05
0.00057714
-8.80107e-05
0.000817583
-0.000130043
0.000974099
-0.000167543
0.00107041
-0.000197965
0.00112681
-0.000220401
0.00115843
-0.000234933
0.00117515
-0.000242253
0.00118219
-0.000243475
0.00118099
-0.00024009
0.00117012
-0.000233988
0.00114615
-0.000227477
0.00110443
-0.000223289
0.00103992
-0.000224572
0.000947948
-0.00023479
0.000824732
-0.000257354
0.000667407
-0.000295593
0.000474428
-0.000352568
0.000244836
-0.000430062
-2.35138e-05
-0.000528088
-0.000334002
-0.000643654
-0.00069164
-0.000767963
-0.0011021
-0.000882794
-0.00156586
-0.000956651
-0.00206606
-0.000944516
-0.00254659
-0.00080011
-0.00288128
-0.000513661
-0.00285222
-0.000176619
-0.00219877
-0.000851319
-1.72389e-05
0.000247836
-5.56406e-05
0.000615542
-9.96364e-05
0.000861579
-0.000138889
0.00101335
-0.000168119
0.00109964
-0.000185358
0.00114404
-0.000190492
0.00116356
-0.000184355
0.00116901
-0.000168281
0.00116612
-0.000143955
0.00115666
-0.000113425
0.00113959
-7.91831e-05
0.00111191
-4.42154e-05
0.00106946
-1.20274e-05
0.00100773
1.35609e-05
0.00092236
2.85433e-05
0.000809749
2.84884e-05
0.000667462
9.30256e-06
0.000493614
-3.21496e-05
0.000286288
-9.92295e-05
4.35661e-05
-0.000193556
-0.000239676
-0.000314717
-0.00057048
-0.00045824
-0.000958575
-0.000611457
-0.00141265
-0.00074769
-0.00192983
-0.000820514
-0.00247376
-0.000767905
-0.00293389
-0.000545545
-0.00307458
-0.000210252
-0.00253407
-0.00106157
-2.49568e-05
0.000272793
-7.41792e-05
0.000664765
-0.000124036
0.000911435
-0.000161525
0.00105084
-0.0001817
0.00111982
-0.000183953
0.0011463
-0.000169603
0.00114921
-0.000140669
0.00114008
-9.9392e-05
0.00112484
-4.81659e-05
0.00110544
1.0361e-05
0.00108107
7.31755e-05
0.00104909
0.000136773
0.00100586
0.000197175
0.000947327
0.000249944
0.00086959
0.000290366
0.000769328
0.00031384
0.000643988
0.000315941
0.000491513
0.000292442
0.000309787
0.000240055
9.59527e-05
0.000155752
-0.000155372
3.7763e-05
-0.00045249
-0.000113423
-0.00080739
-0.000292076
-0.00123399
-0.00047976
-0.00174214
-0.000634934
-0.00231859
-0.000686679
-0.00288215
-0.000556136
-0.00320512
-0.000247512
-0.00284269
-0.00130908
-3.98439e-05
0.000312637
-0.00010744
0.000732361
-0.000166759
0.000970755
-0.000202394
0.00108648
-0.000211187
0.00112861
-0.000195183
0.00113029
-0.000157989
0.00111202
-0.000103291
0.00108538
-3.44794e-05
0.00105603
4.52622e-05
0.0010257
0.000132739
0.00099359
0.000224501
0.000957331
0.000316708
0.000913655
0.00040508
0.000858955
0.00048495
0.000789721
0.00055144
0.000702837
0.000599697
0.000595731
0.00062507
0.000466141
0.000623219
0.000311638
0.000590219
0.000128953
0.000522165
-8.73187e-05
0.000415455
-0.000345781
0.00026673
-0.000658664
7.53653e-05
-0.00104263
-0.00015058
-0.0015162
-0.000381307
-0.00208786
-0.000545376
-0.00271808
-0.000534257
-0.00321624
-0.00028527
-0.00309168
-0.00159435
-6.75896e-05
0.000380227
-0.000163106
0.000827877
-0.000233442
0.00104109
-0.000263337
0.00111637
-0.000254415
0.00111969
-0.000213336
0.00108922
-0.000147038
0.00104572
-6.13504e-05
0.000999693
3.90353e-05
0.000955642
0.00015019
0.000914542
0.000268505
0.000875275
0.000390341
0.000835495
0.000511803
0.000792193
0.000628643
0.000742116
0.000736278
0.000682086
0.000829918
0.000609197
0.000904744
0.000520905
0.000956046
0.000414838
0.000979266
0.000288419
0.000969937
0.000138282
0.000923239
-4.06204e-05
0.000833939
-0.000256481
0.000695669
-0.000520394
0.000501955
-0.000848916
0.000250429
-0.00126467
-4.38838e-05
-0.00179355
-0.000325717
-0.00243625
-0.00046121
-0.00308075
-0.000314618
-0.00323827
-0.00190897
-0.000118157
0.000498384
-0.000249917
0.000959636
-0.000324061
0.00111523
-0.000334026
0.00112634
-0.000291679
0.00107734
-0.000210997
0.00100853
-0.00010333
0.000938051
2.30743e-05
0.000873289
0.000162342
0.000816374
0.000310084
0.0007668
0.000462657
0.000722702
0.00061664
0.000681512
0.000768503
0.00064033
0.00091443
0.000596189
0.00105029
0.000546228
0.00117167
0.000487813
0.00127402
0.000418555
0.00135269
0.000336174
0.00140289
0.000238216
0.00141954
0.000121631
0.0013967
-1.77846e-05
0.0013278
-0.00018758
0.00120382
-0.000396408
0.00101381
-0.000658908
0.000746269
-0.000997132
0.000399142
-0.00144642
1.15938e-05
-0.0020487
-0.000305606
-0.00276355
-0.000322181
-0.0032217
-0.00223115
-0.000207513
0.000705897
-0.000366865
0.00111899
-0.000409832
0.0011582
-0.000360795
0.0010773
-0.000250324
0.00096687
-0.000102253
0.000860463
6.76357e-05
0.000768163
0.000249535
0.00069139
0.000437451
0.000628458
0.000627556
0.000576695
0.000817071
0.000533188
0.00100356
0.000495027
0.00118448
0.000459403
0.001357
0.000423667
0.00151786
0.000385375
0.00166336
0.000342313
0.00178944
0.000292469
0.00189169
0.000233923
0.00196526
0.000164646
0.00200454
8.23568e-05
0.00200244
-1.56847e-05
0.00195132
-0.000136465
0.00183995
-0.000285035
0.00165423
-0.00047319
0.00137622
-0.000719118
0.000987546
-0.00105775
0.000490472
-0.00155162
-1.04519e-05
-0.00226263
-0.000265177
-0.00296697
-0.00249633
-0.000346152
0.00105205
-0.000439891
0.00121273
-0.000348202
0.00106651
-0.000156912
0.000886009
7.87802e-05
0.000731178
0.000330005
0.000609238
0.000582167
0.000516
0.000828478
0.00044508
0.00106619
0.000390749
0.0012944
0.00034848
0.00151286
0.000314729
0.00172126
0.000286625
0.0019189
0.000261762
0.00210448
0.000238085
0.00227604
0.000213817
0.00243094
0.000187414
0.00256589
0.000157522
0.00267693
0.000122885
0.00275939
8.21847e-05
0.0028077
3.40427e-05
0.00281519
-2.31768e-05
0.00277209
-9.33572e-05
0.00266674
-0.00017969
0.00248321
-0.000289653
0.00219963
-0.000435541
0.00178681
-0.000644931
0.00121329
-0.000978107
0.00052147
-0.00157081
-2.00991e-05
-0.0024254
-0.00251643
-0.000307009
0.00135906
-5.91563e-05
0.000964873
0.000365797
0.000641559
0.000786028
0.000465778
0.00117108
0.000346124
0.00151679
0.000263531
0.00182544
0.000207352
0.0021018
0.000168721
0.00235111
0.000141432
0.00257802
0.000121569
0.00278616
0.000106598
0.00297803
9.47498e-05
0.00315508
8.47115e-05
0.0033177
7.54693e-05
0.0034653
6.62173e-05
0.00359641
5.62998e-05
0.00370876
4.51761e-05
0.00379927
3.237e-05
0.00386392
1.75369e-05
0.00389723
7.30816e-07
0.00389555
-2.14932e-05
0.00384826
-4.60694e-05
0.00374521
-7.66413e-05
0.00357127
-0.000115709
0.00330374
-0.000168011
0.00290673
-0.000247922
0.00232028
-0.00039166
0.00148682
-0.00073734
0.000505369
-0.00144395
-0.00201106
0.00135906
0.00232393
0.00296549
0.00343127
0.00377739
0.00404092
0.00424828
0.004417
0.00455843
0.00468
0.0047866
0.00488135
0.00496606
0.00504153
0.00510774
0.00516404
0.00520922
0.00524159
0.00525913
0.00525986
0.00523836
0.0051923
0.00511565
0.00499995
0.00483193
0.00458401
0.00419235
0.00345501
0.00201106
)
;

boundaryField
{
    movingWall
    {
        type            calculated;
        value           uniform 0;
    }
    fixedWalls
    {
        type            calculated;
        value           uniform 0;
    }
    frontAndBack
    {
        type            empty;
        value           nonuniform 0();
    }
}


// ************************************************************************* //
