/*--------------------------------*- C++ -*----------------------------------*\
  =========                 |
  \\      /  F ield         | OpenFOAM: The Open Source CFD Toolbox
   \\    /   O peration     | Website:  https://openfoam.org
    \\  /    A nd           | Version:  7
     \\/     M anipulation  |
\*---------------------------------------------------------------------------*/
FoamFile
{
    version     2.0;
    format      ascii;
    class       volVectorField;
    location    "9.6";
    object      U;
}
// * * * * * * * * * * * * * * * * * * * * * * * * * * * * * * * * * * * * * //

dimensions      [0 1 -1 0 0 0 0];

internalField   nonuniform List<vector> 
900
(
(9.93705e-05 -9.79548e-05 0)
(0.000114559 -1.20826e-05 0)
(-0.000224086 9.95667e-05 0)
(-0.000858381 0.000187545 0)
(-0.00170562 0.000244011 0)
(-0.00269307 0.000275301 0)
(-0.00375915 0.000289937 0)
(-0.0048578 0.000294106 0)
(-0.00595382 0.000290884 0)
(-0.00701628 0.000280789 0)
(-0.00801336 0.000262583 0)
(-0.00890907 0.000234073 0)
(-0.0096621 0.000192882 0)
(-0.0102269 0.000137229 0)
(-0.0105568 6.66973e-05 0)
(-0.0106093 -1.71233e-05 0)
(-0.0103519 -0.000110802 0)
(-0.00976983 -0.000207576 0)
(-0.00887265 -0.000298661 0)
(-0.00769887 -0.000373997 0)
(-0.00631697 -0.000423605 0)
(-0.00482223 -0.000439335 0)
(-0.00332829 -0.000416555 0)
(-0.00195461 -0.000355445 0)
(-0.000810916 -0.000261643 0)
(1.58851e-05 -0.000146789 0)
(0.000475704 -2.53472e-05 0)
(0.000569154 8.52649e-05 0)
(0.000372449 0.000148706 0)
(0.000108542 0.000108909 0)
(1.58977e-05 -0.000118639 0)
(-0.000389287 0.000383132 0)
(-0.00157001 0.000950973 0)
(-0.00336014 0.0014144 0)
(-0.00562008 0.00174002 0)
(-0.00820602 0.00194153 0)
(-0.0109844 0.00204517 0)
(-0.0138431 0.00207308 0)
(-0.0166866 0.00203765 0)
(-0.0194266 0.00194166 0)
(-0.0219734 0.00178076 0)
(-0.0242312 0.00154688 0)
(-0.0260966 0.00123209 0)
(-0.0274617 0.00083241 0)
(-0.0282219 0.000351334 0)
(-0.0282874 -0.000197612 0)
(-0.0275949 -0.000788008 0)
(-0.0261225 -0.00138112 0)
(-0.0239037 -0.00192857 0)
(-0.0210341 -0.00237691 0)
(-0.0176726 -0.00267474 0)
(-0.0140338 -0.00278114 0)
(-0.0103704 -0.0026739 0)
(-0.00694727 -0.00235577 0)
(-0.0040102 -0.00185752 0)
(-0.00175214 -0.00123814 0)
(-0.000280283 -0.000579589 0)
(0.000399325 1.26007e-05 0)
(0.000424663 0.000397672 0)
(0.000151387 0.000369023 0)
(-0.000108403 0.000229006 0)
(-0.00103768 0.00158352 0)
(-0.00313897 0.0029625 0)
(-0.00605771 0.00408998 0)
(-0.00960098 0.00490463 0)
(-0.0135831 0.00542533 0)
(-0.0178249 0.00569743 0)
(-0.0221689 0.00576243 0)
(-0.0264747 0.0056448 0)
(-0.0306089 0.00535034 0)
(-0.0344356 0.00487055 0)
(-0.037812 0.00418998 0)
(-0.0405872 0.00329501 0)
(-0.0426083 0.00218274 0)
(-0.0437304 0.000869072 0)
(-0.0438306 -0.000605089 0)
(-0.0428248 -0.00216943 0)
(-0.0406874 -0.00372587 0)
(-0.0374673 -0.00515466 0)
(-0.0332967 -0.00632567 0)
(-0.0283934 -0.00711494 0)
(-0.0230515 -0.00742412 0)
(-0.0176192 -0.00719971 0)
(-0.0124656 -0.00644816 0)
(-0.00793777 -0.00524354 0)
(-0.00431523 -0.00372695 0)
(-0.00176515 -0.00209985 0)
(-0.000310043 -0.000619634 0)
(0.000198423 0.000410711 0)
(0.00012305 0.000603362 0)
(-0.000228945 0.000945604 0)
(-0.00168231 0.0035484 0)
(-0.00470187 0.00597307 0)
(-0.00871337 0.0079192 0)
(-0.0134558 0.00932557 0)
(-0.0187062 0.0102283 0)
(-0.024252 0.0106957 0)
(-0.0299051 0.0107889 0)
(-0.0354945 0.0105433 0)
(-0.0408544 0.00996629 0)
(-0.0458151 0.0090441 0)
(-0.0501982 0.00775339 0)
(-0.0538165 0.00607566 0)
(-0.0564808 0.00401182 0)
(-0.0580119 0.0015956 0)
(-0.0582571 -0.00109636 0)
(-0.0571086 -0.00394094 0)
(-0.0545261 -0.00676653 0)
(-0.0505571 -0.00936576 0)
(-0.0453488 -0.0115138 0)
(-0.0391535 -0.0129951 0)
(-0.0323208 -0.0136362 0)
(-0.0252752 -0.0133388 0)
(-0.0184775 -0.0121066 0)
(-0.0123729 -0.0100612 0)
(-0.00733337 -0.00744189 0)
(-0.00360076 -0.00459304 0)
(-0.00124087 -0.00194604 0)
(-0.000118923 2.48139e-06 0)
(8.10986e-05 0.000680755 0)
(-0.000334783 0.00200181 0)
(-0.00228005 0.00625495 0)
(-0.00617818 0.00995244 0)
(-0.0112291 0.0128459 0)
(-0.0170978 0.0149165 0)
(-0.023524 0.0162388 0)
(-0.0302684 0.0169132 0)
(-0.0371223 0.0170224 0)
(-0.0438956 0.0166123 0)
(-0.0504025 0.0156899 0)
(-0.0564504 0.0142339 0)
(-0.061835 0.0122113 0)
(-0.06634 0.00959753 0)
(-0.0697441 0.00639682 0)
(-0.0718331 0.00266136 0)
(-0.0724186 -0.001495 0)
(-0.0713558 -0.00589169 0)
(-0.0685706 -0.0102749 0)
(-0.0640864 -0.0143375 0)
(-0.0580403 -0.0177434 0)
(-0.050696 -0.0201643 0)
(-0.0424425 -0.0213281 0)
(-0.0337737 -0.0210692 0)
(-0.0252476 -0.0193729 0)
(-0.0174247 -0.0164028 0)
(-0.0107958 -0.0125052 0)
(-0.00570643 -0.00818778 0)
(-0.00229345 -0.00408291 0)
(-0.000459423 -0.000900937 0)
(4.46239e-05 0.000582124 0)
(-0.000426632 0.00336918 0)
(-0.00282185 0.00965933 0)
(-0.00753907 0.0148552 0)
(-0.013564 0.0188206 0)
(-0.0204884 0.0216213 0)
(-0.0280168 0.023396 0)
(-0.0358881 0.02429 0)
(-0.0438813 0.0244132 0)
(-0.0517975 0.0238221 0)
(-0.0594412 0.0225217 0)
(-0.066607 0.0204799 0)
(-0.0730731 0.0176497 0)
(-0.0785994 0.0139955 0)
(-0.0829324 0.00951954 0)
(-0.0858178 0.00428726 0)
(-0.0870208 -0.00155409 0)
(-0.0863398 -0.00776845 0)
(-0.0836405 -0.0140156 0)
(-0.0788943 -0.0198789 0)
(-0.0721988 -0.0248919 0)
(-0.0638033 -0.0285863 0)
(-0.054119 -0.030557 0)
(-0.0437069 -0.030535 0)
(-0.0332367 -0.0284567 0)
(-0.0234159 -0.0245117 0)
(-0.0148969 -0.019156 0)
(-0.00817549 -0.0130835 0)
(-0.00349661 -0.00716469 0)
(-0.000823291 -0.00236342 0)
(1.65725e-05 0.000307023 0)
(-0.000507205 0.00501586 0)
(-0.00330878 0.0137032 0)
(-0.00877594 0.0206138 0)
(-0.015701 0.0257731 0)
(-0.0236094 0.029371 0)
(-0.0321743 0.0316364 0)
(-0.0411191 0.032775 0)
(-0.0502182 0.0329308 0)
(-0.0592734 0.032173 0)
(-0.0680893 0.0305026 0)
(-0.0764573 0.0278721 0)
(-0.0841453 0.0242135 0)
(-0.0908931 0.0194712 0)
(-0.0964144 0.0136343 0)
(-0.100407 0.00676773 0)
(-0.102577 -0.000959272 0)
(-0.102644 -0.00924898 0)
(-0.100382 -0.0176925 0)
(-0.0956799 -0.025754 0)
(-0.0885592 -0.0328148 0)
(-0.0792223 -0.0382316 0)
(-0.0680791 -0.0414191 0)
(-0.05575 -0.0419514 0)
(-0.0430308 -0.0396655 0)
(-0.0308147 -0.0347431 0)
(-0.0199741 -0.0277439 0)
(-0.0112199 -0.0195744 0)
(-0.00496013 -0.0113943 0)
(-0.0012506 -0.00448398 0)
(-1.00227e-05 -0.000155363 0)
(-0.000578083 0.00691178 0)
(-0.00374162 0.0183248 0)
(-0.0098832 0.0271532 0)
(-0.0176271 0.0336272 0)
(-0.026442 0.0380954 0)
(-0.0359766 0.0409026 0)
(-0.0459461 0.0423305 0)
(-0.0561281 0.0425661 0)
(-0.0663338 0.0416939 0)
(-0.0763778 0.0397089 0)
(-0.0860569 0.0365424 0)
(-0.0951362 0.0320961 0)
(-0.10334 0.026281 0)
(-0.11035 0.0190568 0)
(-0.115811 0.0104711 0)
(-0.11934 0.000696491 0)
(-0.120571 -0.0099337 0)
(-0.119172 -0.0209398 0)
(-0.114896 -0.0316641 0)
(-0.107651 -0.0413174 0)
(-0.0975513 -0.0490423 0)
(-0.0849695 -0.0540146 0)
(-0.0705631 -0.055577 0)
(-0.0552572 -0.0533906 0)
(-0.0401666 -0.0475686 0)
(-0.0264522 -0.0387508 0)
(-0.0151266 -0.0280811 0)
(-0.00684115 -0.0170782 0)
(-0.00179621 -0.00743062 0)
(-4.15505e-05 -0.000844837 0)
(-0.000639262 0.00902713 0)
(-0.00411735 0.0234585 0)
(-0.0108502 0.0343921 0)
(-0.0193216 0.0422997 0)
(-0.028955 0.0477193 0)
(-0.0393829 0.0511348 0)
(-0.0503191 0.0529202 0)
(-0.0615525 0.0533143 0)
(-0.072912 0.0524204 0)
(-0.0842309 0.0502258 0)
(-0.0953205 0.0466338 0)
(-0.10595 0.0415041 0)
(-0.115834 0.0346976 0)
(-0.124623 0.0261241 0)
(-0.131905 0.0157904 0)
(-0.137213 0.00384713 0)
(-0.140069 -0.00937349 0)
(-0.140002 -0.0233226 0)
(-0.136611 -0.0372264 0)
(-0.129647 -0.0501132 0)
(-0.119085 -0.060874 0)
(-0.105208 -0.0683791 0)
(-0.0886632 -0.0716472 0)
(-0.0704822 -0.0700547 0)
(-0.0520195 -0.0635465 0)
(-0.034793 -0.0527851 0)
(-0.0202261 -0.0391644 0)
(-0.00932801 -0.0246471 0)
(-0.0025306 -0.0114594 0)
(-8.89332e-05 -0.00183857 0)
(-0.000689493 0.0113295 0)
(-0.004429 0.0290319 0)
(-0.0116594 0.0422391 0)
(-0.0207533 0.0516949 0)
(-0.0311007 0.0581532 0)
(-0.0423256 0.062258 0)
(-0.0541472 0.0644907 0)
(-0.0663725 0.0651513 0)
(-0.0788551 0.0643659 0)
(-0.0914545 0.0621124 0)
(-0.104005 0.0582592 0)
(-0.116288 0.0526108 0)
(-0.128014 0.0449593 0)
(-0.138809 0.0351399 0)
(-0.148207 0.0230889 0)
(-0.155661 0.0089033 0)
(-0.160575 -0.00710388 0)
(-0.162329 -0.0243514 0)
(-0.160345 -0.0419643 0)
(-0.154185 -0.0587863 0)
(-0.143631 -0.0734295 0)
(-0.128803 -0.0843962 0)
(-0.110262 -0.0902767 0)
(-0.0890807 -0.0900218 0)
(-0.0668329 -0.0832558 0)
(-0.0454423 -0.0705486 0)
(-0.0268655 -0.0535194 0)
(-0.0126277 -0.0346661 0)
(-0.00353099 -0.0169235 0)
(-0.00016302 -0.00324926 0)
(-0.000726747 0.0137814 0)
(-0.00466672 0.0349626 0)
(-0.0122874 0.0505886 0)
(-0.021881 0.0616993 0)
(-0.0328155 0.0692857 0)
(-0.0447122 0.0741697 0)
(-0.057301 0.0769542 0)
(-0.0704109 0.07801 0)
(-0.0839252 0.0774903 0)
(-0.0977356 0.0753631 0)
(-0.111705 0.0714547 0)
(-0.125635 0.0655021 0)
(-0.139243 0.0572098 0)
(-0.152138 0.0463136 0)
(-0.163816 0.0326499 0)
(-0.173659 0.0162282 0)
(-0.180967 -0.00269212 0)
(-0.18498 -0.0235202 0)
(-0.184946 -0.0453218 0)
(-0.180213 -0.0667732 0)
(-0.170324 -0.0862031 0)
(-0.155156 -0.101704 0)
(-0.135073 -0.11134 0)
(-0.111073 -0.113471 0)
(-0.0848603 -0.107189 0)
(-0.0587613 -0.0927662 0)
(-0.0353795 -0.0719477 0)
(-0.0169583 -0.0478332 0)
(-0.00488172 -0.0242821 0)
(-0.000275542 -0.00523258 0)
(-0.000748722 0.0163396 0)
(-0.00481972 0.0411559 0)
(-0.0127086 0.0593183 0)
(-0.0226595 0.0721775 0)
(-0.0340272 0.0809761 0)
(-0.0464339 0.0867288 0)
(-0.0596222 0.0901725 0)
(-0.0734445 0.0917582 0)
(-0.0878151 0.0916713 0)
(-0.10266 0.0898698 0)
(-0.117876 0.0861334 0)
(-0.133291 0.0801205 0)
(-0.148638 0.0714319 0)
(-0.163528 0.0596835 0)
(-0.177438 0.0445865 0)
(-0.18971 0.0260353 0)
(-0.199559 0.0042009 0)
(-0.206129 -0.0203716 0)
(-0.208529 -0.0467112 0)
(-0.205892 -0.0733779 0)
(-0.197491 -0.0984522 0)
(-0.182888 -0.119617 0)
(-0.162121 -0.134342 0)
(-0.135936 -0.140237 0)
(-0.105995 -0.135591 0)
(-0.0749291 -0.120067 0)
(-0.0460474 -0.0952928 0)
(-0.0225394 -0.0649624 0)
(-0.00667567 -0.0341036 0)
(-0.000440586 -0.00799097 0)
(-0.00075342 0.0189546 0)
(-0.00487885 0.047505 0)
(-0.0129011 0.0682887 0)
(-0.0230473 0.0829694 0)
(-0.0346658 0.0930496 0)
(-0.04738 0.0997473 0)
(-0.0609433 0.103944 0)
(-0.0752289 0.10618 0)
(-0.0901795 0.106679 0)
(-0.105754 0.10539 0)
(-0.121883 0.102045 0)
(-0.138428 0.0962153 0)
(-0.155147 0.0873894 0)
(-0.171672 0.0750488 0)
(-0.18749 0.0587633 0)
(-0.201944 0.0382921 0)
(-0.214231 0.0136892 0)
(-0.223437 -0.014595 0)
(-0.228582 -0.0455953 0)
(-0.228648 -0.0778326 0)
(-0.222644 -0.109218 0)
(-0.209765 -0.137085 0)
(-0.189594 -0.158313 0)
(-0.162418 -0.169639 0)
(-0.129587 -0.168265 0)
(-0.0938061 -0.152802 0)
(-0.0590228 -0.124327 0)
(-0.0295716 -0.0869397 0)
(-0.00901403 -0.0470619 0)
(-0.000676001 -0.0117787 0)
(-0.000739812 0.0215725 0)
(-0.00483969 0.0538947 0)
(-0.0128529 0.0773457 0)
(-0.0230181 0.0938924 0)
(-0.0346796 0.105297 0)
(-0.047459 0.112987 0)
(-0.061115 0.117998 0)
(-0.0755346 0.120967 0)
(-0.0906826 0.122163 0)
(-0.106546 0.12153 0)
(-0.123087 0.118752 0)
(-0.140202 0.113315 0)
(-0.157688 0.104592 0)
(-0.175218 0.0919286 0)
(-0.192324 0.0747478 0)
(-0.208397 0.0526666 0)
(-0.222685 0.02561 0)
(-0.234288 -0.0060864 0)
(-0.242231 -0.041586 0)
(-0.245425 -0.0794038 0)
(-0.242666 -0.117415 0)
(-0.232788 -0.152744 0)
(-0.214835 -0.181776 0)
(-0.188426 -0.200354 0)
(-0.154274 -0.204353 0)
(-0.114767 -0.190814 0)
(-0.0742257 -0.15957 0)
(-0.0381979 -0.114639 0)
(-0.0120014 -0.0639194 0)
(-0.00100452 -0.0169065 0)
(-0.000708545 0.0241389 0)
(-0.0047062 0.0602073 0)
(-0.0125706 0.0863282 0)
(-0.0225734 0.104747 0)
(-0.0340535 0.117479 0)
(-0.0466232 0.126163 0)
(-0.0600383 0.131995 0)
(-0.0741907 0.135719 0)
(-0.0890576 0.137653 0)
(-0.104646 0.137745 0)
(-0.120946 0.135635 0)
(-0.137891 0.130733 0)
(-0.155326 0.122302 0)
(-0.172986 0.109562 0)
(-0.190484 0.0918016 0)
(-0.207308 0.0685037 0)
(-0.222824 0.0394602 0)
(-0.23628 0.00486925 0)
(-0.246751 -0.0345831 0)
(-0.253159 -0.0775387 0)
(-0.25425 -0.121991 0)
(-0.248554 -0.165055 0)
(-0.234571 -0.202831 0)
(-0.211106 -0.230394 0)
(-0.177907 -0.242187 0)
(-0.136548 -0.23318 0)
(-0.0912077 -0.20105 0)
(-0.0484396 -0.148777 0)
(-0.0157345 -0.0854858 0)
(-0.00145441 -0.0237431 0)
(-0.000662668 0.0266042 0)
(-0.00449441 0.0663345 0)
(-0.012088 0.09508 0)
(-0.0217568 0.115329 0)
(-0.0328275 0.129336 0)
(-0.0448939 0.138953 0)
(-0.0576991 0.145542 0)
(-0.0711299 0.149958 0)
(-0.0851663 0.152581 0)
(-0.0998276 0.153368 0)
(-0.115127 0.151929 0)
(-0.131037 0.147608 0)
(-0.147461 0.13958 0)
(-0.164218 0.126961 0)
(-0.181031 0.108932 0)
(-0.197536 0.0848627 0)
(-0.213274 0.0544256 0)
(-0.227685 0.0176846 0)
(-0.240027 -0.0248222 0)
(-0.24938 -0.072013 0)
(-0.254533 -0.122145 0)
(-0.253862 -0.172565 0)
(-0.245417 -0.219401 0)
(-0.227177 -0.257263 0)
(-0.197689 -0.279279 0)
(-0.157206 -0.278026 0)
(-0.109027 -0.248017 0)
(-0.0601148 -0.18971 0)
(-0.0202855 -0.112543 0)
(-0.00206039 -0.0327105 0)
(-0.000608376 0.0289314 0)
(-0.00423649 0.0721919 0)
(-0.0114747 0.103467 0)
(-0.0206671 0.125446 0)
(-0.0311156 0.140608 0)
(-0.0423846 0.151019 0)
(-0.0541966 0.158211 0)
(-0.0664261 0.163162 0)
(-0.0790495 0.166318 0)
(-0.0920933 0.167661 0)
(-0.105593 0.166785 0)
(-0.119563 0.162989 0)
(-0.133975 0.155386 0)
(-0.148748 0.143023 0)
(-0.163746 0.125008 0)
(-0.17878 0.100636 0)
(-0.193607 0.0694959 0)
(-0.207911 0.0315363 0)
(-0.221211 -0.0128953 0)
(-0.232847 -0.0630456 0)
(-0.241783 -0.117543 0)
(-0.24643 -0.174221 0)
(-0.244587 -0.229611 0)
(-0.233537 -0.278317 0)
(-0.210585 -0.312555 0)
(-0.174271 -0.322518 0)
(-0.126211 -0.298713 0)
(-0.0727588 -0.23717 0)
(-0.0256837 -0.145729 0)
(-0.00286576 -0.044271 0)
(-0.000555948 0.0311062 0)
(-0.00398523 0.077739 0)
(-0.0108458 0.1114 0)
(-0.0194715 0.134937 0)
(-0.0291201 0.15105 0)
(-0.0393176 0.162023 0)
(-0.0497627 0.169569 0)
(-0.0603168 0.174794 0)
(-0.0709533 0.178225 0)
(-0.0817073 0.179879 0)
(-0.09264 0.179354 0)
(-0.103815 0.175931 0)
(-0.115283 0.168696 0)
(-0.127078 0.15666 0)
(-0.139219 0.1389 0)
(-0.15171 0.114679 0)
(-0.164537 0.0835345 0)
(-0.177649 0.0453282 0)
(-0.19089 0.000231525 0)
(-0.203884 -0.0513229 0)
(-0.215865 -0.108442 0)
(-0.225492 -0.169637 0)
(-0.230566 -0.232197 0)
(-0.227958 -0.291272 0)
(-0.213913 -0.338822 0)
(-0.185134 -0.363127 0)
(-0.140869 -0.35031 0)
(-0.0855877 -0.290012 0)
(-0.0319044 -0.185389 0)
(-0.00392839 -0.0589106 0)
(-0.000521371 0.0331502 0)
(-0.0038205 0.083004 0)
(-0.0103732 0.118857 0)
(-0.0184185 0.143696 0)
(-0.0271436 0.160455 0)
(-0.0360324 0.171654 0)
(-0.0447658 0.179201 0)
(-0.053203 0.184344 0)
(-0.0613245 0.187697 0)
(-0.0691841 0.18933 0)
(-0.076879 0.188866 0)
(-0.0845323 0.185597 0)
(-0.0922858 0.178613 0)
(-0.100299 0.16693 0)
(-0.108753 0.149633 0)
(-0.117847 0.125984 0)
(-0.127789 0.0955059 0)
(-0.138779 0.0579963 0)
(-0.15096 0.0134853 0)
(-0.164263 -0.0378449 0)
(-0.178263 -0.0956459 0)
(-0.19198 -0.159193 0)
(-0.203483 -0.226796 0)
(-0.209609 -0.294676 0)
(-0.205943 -0.355366 0)
(-0.187554 -0.396151 0)
(-0.150973 -0.399124 0)
(-0.0975316 -0.346052 0)
(-0.038872 -0.231398 0)
(-0.00533472 -0.0771272 0)
(-0.000529879 0.0351382 0)
(-0.00386043 0.0881145 0)
(-0.0103015 0.125916 0)
(-0.0178518 0.151692 0)
(-0.0255966 0.168668 0)
(-0.0329843 0.17964 0)
(-0.0397004 0.186735 0)
(-0.0456266 0.191352 0)
(-0.0507743 0.194206 0)
(-0.0552354 0.195431 0)
(-0.059159 0.194694 0)
(-0.0627417 0.191327 0)
(-0.0662254 0.184454 0)
(-0.0698999 0.173132 0)
(-0.0741054 0.156483 0)
(-0.0792274 0.133801 0)
(-0.0856759 0.104608 0)
(-0.0938611 0.0686704 0)
(-0.104159 0.0259117 0)
(-0.116786 -0.0237187 0)
(-0.131661 -0.0803292 0)
(-0.148209 -0.143942 0)
(-0.164971 -0.214003 0)
(-0.179138 -0.288202 0)
(-0.186183 -0.360467 0)
(-0.180065 -0.418346 0)
(-0.154693 -0.441072 0)
(-0.107339 -0.402094 0)
(-0.0464728 -0.28298 0)
(-0.00722425 -0.0994363 0)
(-0.000624123 0.0372262 0)
(-0.00428291 0.0933369 0)
(-0.0109747 0.132778 0)
(-0.0182299 0.158983 0)
(-0.0250015 0.175592 0)
(-0.0307321 0.185752 0)
(-0.0351562 0.191842 0)
(-0.0382228 0.195423 0)
(-0.0400103 0.197316 0)
(-0.0406773 0.197725 0)
(-0.0404448 0.196378 0)
(-0.0395952 0.192668 0)
(-0.0384762 0.185779 0)
(-0.0375034 0.174833 0)
(-0.0371632 0.159016 0)
(-0.0380101 0.137663 0)
(-0.0406186 0.110306 0)
(-0.0455536 0.0766927 0)
(-0.0533763 0.0366728 0)
(-0.0645168 -0.0100192 0)
(-0.0791586 -0.063815 0)
(-0.0971296 -0.125372 0)
(-0.117545 -0.195203 0)
(-0.138266 -0.272633 0)
(-0.15524 -0.353645 0)
(-0.162077 -0.427426 0)
(-0.150613 -0.472227 0)
(-0.113695 -0.454153 0)
(-0.0545465 -0.338561 0)
(-0.00981781 -0.126401 0)
(-0.000882556 0.0396989 0)
(-0.00536748 0.0991304 0)
(-0.0128792 0.139796 0)
(-0.0201491 0.165714 0)
(-0.025989 0.181171 0)
(-0.029906 0.189784 0)
(-0.0317616 0.194223 0)
(-0.0316385 0.196216 0)
(-0.0297317 0.196678 0)
(-0.026299 0.195883 0)
(-0.0216531 0.193626 0)
(-0.0161711 0.189369 0)
(-0.0103041 0.18238 0)
(-0.00457619 0.171858 0)
(0.000402886 0.157052 0)
(0.00393421 0.137346 0)
(0.00532226 0.112299 0)
(0.00391226 0.0816249 0)
(-0.00100135 0.0450811 0)
(-0.0099882 0.00229919 0)
(-0.023399 -0.0473953 0)
(-0.0414085 -0.105126 0)
(-0.0637098 -0.172249 0)
(-0.0890183 -0.249619 0)
(-0.114263 -0.335609 0)
(-0.133578 -0.422287 0)
(-0.137682 -0.489274 0)
(-0.115251 -0.497795 0)
(-0.0628029 -0.395652 0)
(-0.0134245 -0.158668 0)
(-0.00145945 0.0430593 0)
(-0.0075737 0.106217 0)
(-0.016708 0.147483 0)
(-0.0243619 0.172079 0)
(-0.0292619 0.185338 0)
(-0.031123 0.191504 0)
(-0.0300583 0.193569 0)
(-0.0263733 0.193406 0)
(-0.0204365 0.191999 0)
(-0.0126371 0.189669 0)
(-0.00339299 0.186267 0)
(0.00682573 0.181326 0)
(0.0174783 0.1742 0)
(0.0279455 0.164173 0)
(0.0375293 0.150559 0)
(0.0454578 0.132784 0)
(0.0509487 0.110429 0)
(0.0532556 0.0831673 0)
(0.0516379 0.050661 0)
(0.0454562 0.0124812 0)
(0.03419 -0.0322057 0)
(0.0174173 -0.084779 0)
(-0.00505634 -0.147136 0)
(-0.0328409 -0.221292 0)
(-0.0641809 -0.307958 0)
(-0.094577 -0.402934 0)
(-0.114879 -0.489702 0)
(-0.110454 -0.528442 0)
(-0.070587 -0.450734 0)
(-0.0183655 -0.19693 0)
(-0.00266738 0.0481978 0)
(-0.0116767 0.115668 0)
(-0.0234278 0.156466 0)
(-0.0317317 0.178221 0)
(-0.0354387 0.187899 0)
(-0.0347378 0.190546 0)
(-0.0301753 0.189465 0)
(-0.0223871 0.186609 0)
(-0.0119726 0.182968 0)
(0.000523333 0.178865 0)
(0.0145747 0.174178 0)
(0.0296329 0.168496 0)
(0.0450956 0.161249 0)
(0.0602889 0.1518 0)
(0.0744691 0.139535 0)
(0.0868357 0.123916 0)
(0.0965719 0.104519 0)
(0.102886 0.0809805 0)
(0.105019 0.0529119 0)
(0.102281 0.0197924 0)
(0.0940261 -0.0192784 0)
(0.0796334 -0.0657448 0)
(0.0585031 -0.12172 0)
(0.0302122 -0.189885 0)
(-0.00492194 -0.27281 0)
(-0.0444249 -0.370246 0)
(-0.0807057 -0.471768 0)
(-0.0971759 -0.541427 0)
(-0.0764402 -0.498989 0)
(-0.0247087 -0.241618 0)
(-0.0051345 0.0567247 0)
(-0.0189664 0.12896 0)
(-0.0342466 0.167305 0)
(-0.0429174 0.183958 0)
(-0.0444899 0.188267 0)
(-0.0400746 0.18618 0)
(-0.0308951 0.181195 0)
(-0.0180338 0.175209 0)
(-0.00236585 0.169105 0)
(0.0154016 0.163134 0)
(0.0346519 0.157153 0)
(0.0547912 0.150777 0)
(0.075199 0.143492 0)
(0.0952009 0.13473 0)
(0.114063 0.123935 0)
(0.131001 0.110605 0)
(0.145212 0.0943117 0)
(0.155899 0.0746621 0)
(0.162288 0.0512315 0)
(0.163633 0.0234518 0)
(0.15917 -0.00956717 0)
(0.148089 -0.0492146 0)
(0.129442 -0.0975271 0)
(0.102146 -0.157368 0)
(0.0652602 -0.232395 0)
(0.0188835 -0.325813 0)
(-0.032511 -0.434481 0)
(-0.0720598 -0.531796 0)
(-0.077522 -0.533787 0)
(-0.0317504 -0.292363 0)
(-0.0100669 0.0716399 0)
(-0.0314228 0.147863 0)
(-0.0500506 0.179941 0)
(-0.0570717 0.188151 0)
(-0.053867 0.184886 0)
(-0.0431433 0.176826 0)
(-0.0270857 0.16735 0)
(-0.00731375 0.158042 0)
(0.0150204 0.149509 0)
(0.0390868 0.14182 0)
(0.0642371 0.134744 0)
(0.0898986 0.127882 0)
(0.115503 0.120748 0)
(0.140445 0.112827 0)
(0.164064 0.103615 0)
(0.185651 0.0926484 0)
(0.204457 0.0795099 0)
(0.219712 0.063803 0)
(0.230636 0.0450972 0)
(0.236417 0.0228424 0)
(0.236143 -0.00376997 0)
(0.22882 -0.0359656 0)
(0.213185 -0.0755248 0)
(0.187627 -0.125083 0)
(0.150242 -0.188556 0)
(0.099171 -0.271505 0)
(0.0344978 -0.377994 0)
(-0.0293614 -0.494514 0)
(-0.0690837 -0.54649 0)
(-0.0374003 -0.347712 0)
(-0.0195135 0.0981932 0)
(-0.051222 0.173119 0)
(-0.0685164 0.192028 0)
(-0.0671582 0.187184 0)
(-0.0528144 0.174018 0)
(-0.0305245 0.159172 0)
(-0.00355019 0.145227 0)
(0.0260656 0.133025 0)
(0.0570713 0.122655 0)
(0.0886949 0.113871 0)
(0.120418 0.106283 0)
(0.151827 0.0994367 0)
(0.182522 0.0928556 0)
(0.212065 0.0860691 0)
(0.239951 0.0786315 0)
(0.265603 0.0701325 0)
(0.288376 0.0601969 0)
(0.307564 0.0484635 0)
(0.3224 0.0345432 0)
(0.332028 0.0179606 0)
(0.335389 -0.00194419 0)
(0.331334 -0.0260639 0)
(0.318305 -0.0558445 0)
(0.294302 -0.0934563 0)
(0.256696 -0.142362 0)
(0.202219 -0.208868 0)
(0.127637 -0.302736 0)
(0.0408024 -0.426473 0)
(-0.0434779 -0.527773 0)
(-0.0370372 -0.403189 0)
(-0.035028 0.142445 0)
(-0.0747592 0.197702 0)
(-0.0709291 0.19262 0)
(-0.0447301 0.170415 0)
(-0.00765033 0.146929 0)
(0.0337379 0.126619 0)
(0.0760888 0.110108 0)
(0.117813 0.0969516 0)
(0.158221 0.0865026 0)
(0.197067 0.0781345 0)
(0.234287 0.0712864 0)
(0.269857 0.0654578 0)
(0.303705 0.0602003 0)
(0.335672 0.0551111 0)
(0.365489 0.0498298 0)
(0.392777 0.0440357 0)
(0.417041 0.0374406 0)
(0.437677 0.0297738 0)
(0.453977 0.020752 0)
(0.465087 0.0100345 0)
(0.469983 -0.00287015 0)
(0.467407 -0.0184521 0)
(0.455556 -0.037681 0)
(0.432269 -0.0621028 0)
(0.394429 -0.0942821 0)
(0.338185 -0.139655 0)
(0.257114 -0.209808 0)
(0.152932 -0.324268 0)
(0.0153983 -0.465559 0)
(-0.0171302 -0.441639 0)
(-0.037835 0.235324 0)
(-0.0489937 0.20232 0)
(0.0253577 0.151822 0)
(0.0969885 0.116492 0)
(0.16425 0.0905703 0)
(0.225286 0.0717492 0)
(0.279777 0.0583121 0)
(0.328378 0.0486505 0)
(0.37201 0.0415601 0)
(0.411537 0.0362312 0)
(0.447661 0.0321066 0)
(0.480897 0.0287746 0)
(0.511577 0.0259134 0)
(0.539853 0.0232626 0)
(0.565709 0.0206068 0)
(0.588972 0.0177647 0)
(0.609329 0.0145812 0)
(0.626328 0.010916 0)
(0.639398 0.00663968 0)
(0.647726 0.00159411 0)
(0.65056 -0.00432469 0)
(0.646762 -0.0115406 0)
(0.634624 -0.0204621 0)
(0.612188 -0.0318128 0)
(0.576136 -0.0469224 0)
(0.522837 -0.0692439 0)
(0.442412 -0.107106 0)
(0.333279 -0.187677 0)
(0.143222 -0.335616 0)
(0.0605809 -0.412638 0)
(0.231197 0.158577 0)
(0.290828 0.116743 0)
(0.439507 0.0755376 0)
(0.537653 0.0502748 0)
(0.60429 0.0340941 0)
(0.653823 0.023526 0)
(0.692407 0.0167224 0)
(0.723336 0.0123562 0)
(0.748863 0.00950958 0)
(0.77054 0.00760508 0)
(0.789385 0.00628661 0)
(0.806049 0.00532652 0)
(0.820929 0.00457224 0)
(0.834234 0.00391734 0)
(0.846023 0.00328505 0)
(0.856238 0.00261782 0)
(0.864719 0.00187196 0)
(0.871224 0.00100842 0)
(0.875442 4.6666e-06 0)
(0.877001 -0.00118898 0)
(0.875386 -0.0024636 0)
(0.869888 -0.00406081 0)
(0.859731 -0.00606429 0)
(0.843945 -0.0086163 0)
(0.820155 -0.0119934 0)
(0.786621 -0.0172598 0)
(0.731607 -0.0266204 0)
(0.655181 -0.0486558 0)
(0.453864 -0.109836 0)
(0.313127 -0.177393 0)
)
;

boundaryField
{
    movingWall
    {
        type            fixedValue;
        value           uniform (1 0 0);
    }
    fixedWalls
    {
        type            noSlip;
    }
    frontAndBack
    {
        type            empty;
    }
}


// ************************************************************************* //
