/*--------------------------------*- C++ -*----------------------------------*\
  =========                 |
  \\      /  F ield         | OpenFOAM: The Open Source CFD Toolbox
   \\    /   O peration     | Website:  https://openfoam.org
    \\  /    A nd           | Version:  7
     \\/     M anipulation  |
\*---------------------------------------------------------------------------*/
FoamFile
{
    version     2.0;
    format      ascii;
    class       volScalarField;
    location    "0.18";
    object      p;
}
// * * * * * * * * * * * * * * * * * * * * * * * * * * * * * * * * * * * * * //

dimensions      [0 2 -2 0 0 0 0];

internalField   nonuniform List<scalar> 
1936
(
0.000280737
-2956.09
-6820
-6711.62
-5870.24
-5784.08
-5300.15
-4625.55
-4240.48
-4265.13
-4948.45
-6713.33
-7514.9
-5714.43
-3798.92
-3364.12
-3535.01
-4744.55
-6971.5
-7169.13
-4838.31
-3426.6
-3348.99
-4221.5
-6846.79
-7647.11
-5174.9
-3467.89
-3280.54
-3690.95
-5775.67
-7591.42
-6070.13
-3806.93
-3308.57
-3590.83
-5548.49
-7666.22
-6425.14
-4027.71
-3296.31
-3293.64
-4573.45
-7403.39
-102.036
-2959.07
-6760.52
-6665.64
-5851.54
-5768.56
-5294.76
-4640.5
-4274.7
-4298.24
-4948.32
-6665.55
-7453.75
-5686.69
-3822.69
-3422.22
-3585.81
-4753.99
-6934.2
-7115.11
-4831.7
-3481.94
-3409.77
-4221.04
-6778.74
-7579.34
-5156.23
-3506.74
-3342.48
-3727.12
-5758.64
-7536.45
-6035.62
-3838.7
-3376.06
-3623.49
-5507.78
-7594.92
-6388.07
-4044.63
-3354.76
-3348.09
-4568.16
-7343.04
-415.537
-2979.44
-6545.21
-6541.19
-5811.02
-5716.64
-5279.63
-4684.13
-4359.5
-4381.95
-4965.42
-6533.63
-7262.11
-5625.05
-3903.81
-3559.93
-3722.67
-4806.08
-6816.16
-6944.33
-4835.43
-3627.15
-3555.71
-4246.71
-6585.63
-7364.83
-5134.5
-3617.98
-3486.29
-3844.62
-5724.88
-7352.43
-5945.76
-3942.05
-3534.22
-3720.92
-5416.3
-7368.11
-6287.54
-4118.91
-3493.09
-3487.79
-4587.77
-7155.69
-848.389
-3030.98
-6232.73
-6352.34
-5753.63
-5644.35
-5258.04
-4746.16
-4476.33
-4500.02
-4998.92
-6344.52
-6974.74
-5543.43
-4036.38
-3754.84
-3911.45
-4873.84
-6622.82
-6685.84
-4847.32
-3827.02
-3758.8
-4308.53
-6316.77
-7040.61
-5112.45
-3787.41
-3686.45
-4011.57
-5664.93
-7063.59
-5814.08
-4089.86
-3747.89
-3874.96
-5308.02
-7029.12
-6130.39
-4231.79
-3687.27
-3687.71
-4628.65
-6870.96
-1346.26
-3116.98
-5878.45
-6117.25
-5673.75
-5558.75
-5233.47
-4817.42
-4605.15
-4629.89
-5038.78
-6128.28
-6639.1
-5455.51
-4203.42
-3979.12
-4118.64
-4938.11
-6382.4
-6383.85
-4861.34
-4043.16
-3983.4
-4398.53
-6023.97
-6662.61
-5092.22
-3989.44
-3911.16
-4195.88
-5582.69
-6718.11
-5660.95
-4251.19
-3977.5
-4061.48
-5206.61
-6638.1
-5938.66
-4361.68
-3906.04
-3913.04
-4681.64
-6537.73
-1871.26
-3239.01
-5523.4
-5855.33
-5570.03
-5465.61
-5207.51
-4889.63
-4730.7
-4755.48
-5076.49
-5908.43
-6294.04
-5370.05
-4386.62
-4210.26
-4322.33
-4989.23
-6118.43
-6073.5
-4875.5
-4251.26
-4204.79
-4506.8
-5745.34
-6275.91
-5074.85
-4200.43
-4138.89
-4376.95
-5482.22
-6354.18
-5502.22
-4408.39
-4199.57
-4257.63
-5124.97
-6243.65
-5730.56
-4493.62
-4126.66
-4137.77
-4740.8
-6194.25
-2394.99
-3396.83
-5197.71
-5585.81
-5445.86
-5369.11
-5180.92
-4954.47
-4841.98
-4864.7
-5106.92
-5702.45
-5969.82
-5293.17
-4566.47
-4428.97
-4509.55
-5025.31
-5853
-5781.96
-4891.44
-4438.03
-4406.47
-4620.21
-5505.6
-5915.72
-5058.57
-4401.39
-4353.32
-4540.46
-5372.26
-6002.8
-5354.35
-4550.89
-4400.65
-4443.34
-5067.69
-5881.1
-5523.91
-4615.88
-4333.01
-4345.3
-4800.63
-5869.19
-2894.82
-3584.46
-4924.25
-5328.39
-5308.67
-5271.9
-5152.01
-5005.64
-4932.24
-4950.91
-5126.33
-5521.19
-5687.37
-5227.41
-4726.92
-4620.97
-4671.96
-5047.75
-5607.32
-5528.7
-4911.1
-4597.23
-4578.98
-4726.78
-5315.49
-5606.11
-5041.82
-4577.5
-4541.5
-4679.63
-5263.57
-5688.82
-5229.52
-4674.28
-4572.5
-4604.75
-5031.07
-5573.23
-5336.14
-4720.51
-4514.25
-4525.7
-4854.66
-5583.88
-3347.42
-3792.12
-4720.27
-5101.56
-5168.72
-5176.34
-5118.88
-5038.83
-4997.17
-5012.78
-5131.58
-5369.72
-5459.68
-5173.49
-4856.82
-4777.58
-4806.21
-5056.6
-5397.75
-5326.09
-4933
-4726.87
-4717.71
-4817.17
-5175.65
-5360.87
-5023.12
-4721.09
-4695.05
-4791.11
-5166.7
-5429.81
-5132.36
-4777.24
-4710.81
-4735.12
-5006.97
-5331.8
-5182.19
-4803.31
-4663.68
-4673.2
-4898.05
-5351.29
-3730.14
-4003.68
-4596.49
-4921.61
-5038.42
-5085.56
-5080.41
-5052.18
-5036.2
-5049.87
-5122.91
-5249.98
-5290.29
-5131.24
-4951.1
-4894.69
-4908.17
-5054.25
-5234.83
-5178.8
-4952.41
-4827.06
-4821.62
-4886.23
-5081.46
-5184.21
-5004.49
-4828.83
-4811
-4872.67
-5089.27
-5234.36
-5062.47
-4856.53
-4815.12
-4832.79
-4989.3
-5158.81
-5070.42
-4862.2
-4778.88
-4786.83
-4926.47
-5177.28
-4031.33
-4197.64
-4549.07
-4799.46
-4930.55
-5004.52
-5037.82
-5047.02
-5051.17
-5064.18
-5103.52
-5160.96
-5174.59
-5098.91
-5009.47
-4973.16
-4975.78
-5044.81
-5121.86
-5083.16
-4966.7
-4897.92
-4894.25
-4931.81
-5024.14
-5071.7
-4989.49
-4901.66
-4890.07
-4925.6
-5034.01
-5101.9
-5016.13
-4910.99
-4886.68
-4899.14
-4975.94
-5048.35
-5000.48
-4901.06
-4859.22
-4866.31
-4941.49
-5060.78
-4254.93
-4358.25
-4557.27
-4734.34
-4854.71
-4939.43
-4995.32
-5028.18
-5046.49
-5059.79
-5077.99
-5098.65
-5101.89
-5073.75
-5037.34
-5016.76
-5012.06
-5033.06
-5053.62
-5028.76
-4975.17
-4942.29
-4939.85
-4957.8
-4993.6
-5010.73
-4980
-4944.04
-4937.68
-4954.65
-4999.13
-5023.97
-4988.25
-4943.04
-4930.68
-4937.47
-4966.64
-4987.96
-4964.39
-4924.69
-4908.78
-4914.62
-4947.64
-4993.42
-4413.3
-4481.48
-4596.08
-4713.26
-4812.27
-4894.32
-4958.12
-5002.57
-5029.32
-5043.09
-5051.05
-5056.89
-5058.7
-5053.28
-5043.3
-5033.16
-5024.84
-5022.14
-5018.28
-5002.33
-4980.1
-4966.43
-4964.7
-4970.53
-4980.15
-4984.03
-4975.39
-4964.42
-4961.66
-4967.09
-4980
-4985.66
-4973.67
-4958.55
-4953.72
-4955.55
-4961.3
-4961.67
-4950.58
-4938.31
-4935.39
-4939.21
-4949.52
-4961.45
-4528.24
-4572.05
-4641.7
-4719.71
-4796.41
-4867.75
-4928.8
-4974.83
-5004.25
-5019.37
-5025.75
-5029.05
-5032.59
-5035.96
-5036.56
-5032.53
-5023.61
-5012.92
-5002.31
-4991.59
-4982.54
-4977.45
-4975.96
-4975.88
-4975.9
-4975.37
-4973.77
-4971.85
-4970.76
-4970.48
-4971.17
-4970.58
-4967.51
-4964.4
-4963.23
-4962.1
-4959.31
-4954.1
-4948.47
-4946.16
-4947.64
-4949.36
-4950.21
-4950.33
-4615.78
-4641.96
-4685.42
-4738.2
-4796.15
-4854.15
-4906.72
-4948.76
-4977.68
-4994.51
-5003.31
-5008.92
-5014.64
-5020.53
-5024.01
-5022.46
-5015.36
-5005.19
-4995.26
-4987.85
-4983.57
-4981.32
-4979.78
-4977.73
-4975.37
-4973.73
-4973.25
-4973.24
-4972.37
-4970.32
-4967.94
-4966.26
-4965.72
-4965.95
-4965.85
-4963.81
-4959.42
-4954.23
-4950.98
-4950.93
-4952.51
-4952.88
-4951.11
-4948.89
-4684.89
-4699.5
-4726.28
-4761.84
-4803.69
-4848.37
-4890.67
-4926.45
-4953.29
-4971.41
-4983.35
-4991.95
-4999.41
-5005.82
-5009.71
-5009.51
-5005.11
-4998.24
-4991.44
-4986.49
-4983.69
-4982.02
-4980.3
-4977.97
-4975.52
-4973.77
-4973.07
-4972.63
-4971.55
-4969.48
-4967.2
-4965.8
-4965.67
-4966.1
-4965.8
-4963.8
-4960.35
-4956.75
-4954.5
-4954.1
-4954.51
-4954
-4952.32
-4950.56
-4739.59
-4747.65
-4763.91
-4787.21
-4816.16
-4848.29
-4880.57
-4909.52
-4933.22
-4951.4
-4965.08
-4975.72
-4984.35
-4991.06
-4995.28
-4996.44
-4994.75
-4991.34
-4987.63
-4984.66
-4982.6
-4980.99
-4979.29
-4977.35
-4975.41
-4973.84
-4972.74
-4971.76
-4970.51
-4968.91
-4967.36
-4966.36
-4966.01
-4965.84
-4965.19
-4963.63
-4961.36
-4959.01
-4957.27
-4956.36
-4955.8
-4954.97
-4953.79
-4952.84
-4782.42
-4787.12
-4797.1
-4812.1
-4831.44
-4853.67
-4876.86
-4899.02
-4918.68
-4935.28
-4948.96
-4960.19
-4969.32
-4976.39
-4981.27
-4983.89
-4984.55
-4983.88
-4982.63
-4981.32
-4980.1
-4978.89
-4977.54
-4976.08
-4974.64
-4973.33
-4972.17
-4971.05
-4969.88
-4968.67
-4967.59
-4966.79
-4966.23
-4965.69
-4964.89
-4963.67
-4962.16
-4960.59
-4959.21
-4958.12
-4957.22
-4956.34
-4955.53
-4954.99
-4815.69
-4818.65
-4824.97
-4834.64
-4847.33
-4862.26
-4878.38
-4894.6
-4909.91
-4923.79
-4936.03
-4946.59
-4955.49
-4962.7
-4968.19
-4972.03
-4974.42
-4975.72
-4976.27
-4976.37
-4976.14
-4975.66
-4974.95
-4974.09
-4973.16
-4972.22
-4971.29
-4970.36
-4969.41
-4968.5
-4967.68
-4966.97
-4966.34
-4965.68
-4964.89
-4963.93
-4962.85
-4961.73
-4960.65
-4959.67
-4958.79
-4958.03
-4957.44
-4957.07
-4841.35
-4843.31
-4847.43
-4853.74
-4862.07
-4871.99
-4882.99
-4894.45
-4905.89
-4916.79
-4926.91
-4936.06
-4944.13
-4951.03
-4956.72
-4961.24
-4964.7
-4967.26
-4969.07
-4970.29
-4971.05
-4971.42
-4971.47
-4971.3
-4970.96
-4970.51
-4969.98
-4969.4
-4968.78
-4968.15
-4967.54
-4966.96
-4966.38
-4965.77
-4965.09
-4964.35
-4963.55
-4962.73
-4961.92
-4961.15
-4960.45
-4959.86
-4959.43
-4959.17
-4860.87
-4862.2
-4864.95
-4869.13
-4874.65
-4881.29
-4888.78
-4896.82
-4905.08
-4913.34
-4921.31
-4928.82
-4935.73
-4941.94
-4947.39
-4952.07
-4955.99
-4959.21
-4961.81
-4963.86
-4965.42
-4966.57
-4967.37
-4967.89
-4968.17
-4968.28
-4968.23
-4968.08
-4967.83
-4967.52
-4967.17
-4966.79
-4966.37
-4965.91
-4965.41
-4964.87
-4964.3
-4963.72
-4963.15
-4962.61
-4962.12
-4961.71
-4961.41
-4961.24
-4875.36
-4876.28
-4878.15
-4880.99
-4884.73
-4889.26
-4894.44
-4900.12
-4906.11
-4912.25
-4918.38
-4924.36
-4930.08
-4935.44
-4940.38
-4944.84
-4948.8
-4952.28
-4955.27
-4957.82
-4959.96
-4961.71
-4963.13
-4964.25
-4965.11
-4965.74
-4966.19
-4966.48
-4966.63
-4966.67
-4966.62
-4966.49
-4966.3
-4966.05
-4965.76
-4965.43
-4965.08
-4964.72
-4964.35
-4964.01
-4963.7
-4963.45
-4963.26
-4963.16
-4884.94
-4885.62
-4886.97
-4889.01
-4891.72
-4895.02
-4898.83
-4903.06
-4907.59
-4912.33
-4917.19
-4922.05
-4926.83
-4931.44
-4935.83
-4939.95
-4943.75
-4947.22
-4950.35
-4953.14
-4955.59
-4957.73
-4959.55
-4961.1
-4962.39
-4963.45
-4964.29
-4964.96
-4965.45
-4965.81
-4966.04
-4966.17
-4966.21
-4966.18
-4966.08
-4965.94
-4965.77
-4965.58
-4965.38
-4965.18
-4965
-4964.85
-4964.75
-4964.69
-4890.37
-4890.91
-4891.99
-4893.62
-4895.79
-4898.44
-4901.52
-4904.97
-4908.71
-4912.67
-4916.78
-4920.96
-4925.14
-4929.27
-4933.27
-4937.11
-4940.75
-4944.15
-4947.3
-4950.18
-4952.79
-4955.12
-4957.18
-4958.98
-4960.54
-4961.87
-4962.98
-4963.89
-4964.63
-4965.21
-4965.65
-4965.97
-4966.18
-4966.31
-4966.36
-4966.35
-4966.3
-4966.23
-4966.13
-4966.02
-4965.92
-4965.84
-4965.77
-4965.74
-4893.17
-4893.64
-4894.57
-4895.99
-4897.89
-4900.21
-4902.92
-4905.96
-4909.29
-4912.84
-4916.55
-4920.36
-4924.22
-4928.07
-4931.85
-4935.53
-4939.06
-4942.41
-4945.56
-4948.48
-4951.17
-4953.61
-4955.81
-4957.76
-4959.48
-4960.97
-4962.25
-4963.32
-4964.21
-4964.93
-4965.5
-4965.94
-4966.27
-4966.49
-4966.63
-4966.71
-4966.73
-4966.72
-4966.68
-4966.63
-4966.57
-4966.52
-4966.48
-4966.46
-4894.44
-4894.88
-4895.73
-4897.05
-4898.8
-4900.96
-4903.49
-4906.33
-4909.45
-4912.79
-4916.3
-4919.93
-4923.63
-4927.34
-4931.01
-4934.61
-4938.1
-4941.43
-4944.59
-4947.55
-4950.29
-4952.81
-4955.1
-4957.15
-4958.96
-4960.56
-4961.94
-4963.11
-4964.09
-4964.9
-4965.55
-4966.06
-4966.45
-4966.73
-4966.93
-4967.05
-4967.11
-4967.13
-4967.12
-4967.1
-4967.06
-4967.02
-4966.99
-4966.98
-4894.83
-4895.25
-4896.07
-4897.34
-4899.03
-4901.11
-4903.55
-4906.31
-4909.33
-4912.59
-4916.02
-4919.57
-4923.2
-4926.86
-4930.51
-4934.09
-4937.57
-4940.92
-4944.1
-4947.1
-4949.89
-4952.46
-4954.81
-4956.93
-4958.81
-4960.47
-4961.91
-4963.14
-4964.18
-4965.04
-4965.73
-4966.28
-4966.7
-4967.01
-4967.22
-4967.36
-4967.44
-4967.48
-4967.48
-4967.46
-4967.43
-4967.4
-4967.37
-4967.36
-4894.74
-4895.15
-4895.96
-4897.21
-4898.89
-4900.95
-4903.36
-4906.09
-4909.1
-4912.33
-4915.74
-4919.29
-4922.91
-4926.57
-4930.22
-4933.82
-4937.32
-4940.7
-4943.92
-4946.96
-4949.79
-4952.4
-4954.79
-4956.95
-4958.87
-4960.57
-4962.04
-4963.3
-4964.37
-4965.24
-4965.95
-4966.51
-4966.94
-4967.26
-4967.47
-4967.61
-4967.69
-4967.72
-4967.72
-4967.7
-4967.67
-4967.64
-4967.61
-4967.59
-4894.48
-4894.89
-4895.69
-4896.94
-4898.62
-4900.69
-4903.11
-4905.85
-4908.87
-4912.12
-4915.55
-4919.12
-4922.77
-4926.46
-4930.14
-4933.76
-4937.3
-4940.7
-4943.95
-4947.02
-4949.88
-4952.52
-4954.93
-4957.11
-4959.05
-4960.75
-4962.24
-4963.5
-4964.56
-4965.44
-4966.14
-4966.69
-4967.11
-4967.41
-4967.61
-4967.74
-4967.81
-4967.82
-4967.81
-4967.78
-4967.74
-4967.7
-4967.67
-4967.66
-4894.21
-4894.62
-4895.43
-4896.69
-4898.38
-4900.47
-4902.92
-4905.69
-4908.74
-4912.03
-4915.5
-4919.1
-4922.79
-4926.51
-4930.23
-4933.88
-4937.45
-4940.88
-4944.15
-4947.23
-4950.1
-4952.75
-4955.17
-4957.34
-4959.27
-4960.96
-4962.43
-4963.67
-4964.71
-4965.55
-4966.23
-4966.75
-4967.14
-4967.41
-4967.59
-4967.69
-4967.73
-4967.73
-4967.7
-4967.66
-4967.61
-4967.56
-4967.52
-4967.51
-4894.06
-4894.46
-4895.28
-4896.55
-4898.27
-4900.39
-4902.87
-4905.68
-4908.78
-4912.1
-4915.61
-4919.25
-4922.98
-4926.73
-4930.47
-4934.15
-4937.74
-4941.18
-4944.46
-4947.54
-4950.41
-4953.05
-4955.45
-4957.6
-4959.5
-4961.16
-4962.59
-4963.79
-4964.78
-4965.58
-4966.2
-4966.67
-4967.01
-4967.23
-4967.37
-4967.43
-4967.44
-4967.41
-4967.36
-4967.3
-4967.24
-4967.19
-4967.14
-4967.12
-4894.09
-4894.5
-4895.32
-4896.61
-4898.35
-4900.5
-4903.02
-4905.87
-4908.99
-4912.35
-4915.88
-4919.55
-4923.3
-4927.08
-4930.83
-4934.53
-4938.12
-4941.57
-4944.84
-4947.92
-4950.77
-4953.38
-4955.75
-4957.87
-4959.73
-4961.34
-4962.71
-4963.85
-4964.78
-4965.51
-4966.07
-4966.47
-4966.74
-4966.9
-4966.97
-4966.97
-4966.93
-4966.86
-4966.78
-4966.7
-4966.62
-4966.56
-4966.52
-4966.5
-4894.37
-4894.77
-4895.59
-4896.9
-4898.67
-4900.83
-4903.37
-4906.23
-4909.36
-4912.73
-4916.28
-4919.96
-4923.72
-4927.5
-4931.26
-4934.96
-4938.55
-4941.99
-4945.25
-4948.31
-4951.14
-4953.73
-4956.06
-4958.13
-4959.94
-4961.5
-4962.8
-4963.88
-4964.73
-4965.39
-4965.87
-4966.18
-4966.37
-4966.44
-4966.43
-4966.35
-4966.24
-4966.11
-4965.97
-4965.85
-4965.76
-4965.69
-4965.64
-4965.63
-4894.92
-4895.32
-4896.14
-4897.45
-4899.2
-4901.36
-4903.88
-4906.73
-4909.85
-4913.2
-4916.74
-4920.42
-4924.17
-4927.96
-4931.72
-4935.41
-4938.99
-4942.42
-4945.67
-4948.71
-4951.51
-4954.06
-4956.36
-4958.38
-4960.14
-4961.64
-4962.88
-4963.89
-4964.67
-4965.24
-4965.63
-4965.86
-4965.95
-4965.92
-4965.81
-4965.63
-4965.42
-4965.19
-4964.97
-4964.79
-4964.64
-4964.55
-4964.5
-4964.5
-4895.79
-4896.18
-4896.98
-4898.23
-4899.94
-4902.04
-4904.51
-4907.3
-4910.39
-4913.71
-4917.23
-4920.88
-4924.63
-4928.4
-4932.15
-4935.84
-4939.41
-4942.83
-4946.06
-4949.08
-4951.86
-4954.38
-4956.64
-4958.62
-4960.33
-4961.78
-4962.96
-4963.9
-4964.6
-4965.09
-4965.4
-4965.53
-4965.52
-4965.39
-4965.17
-4964.87
-4964.54
-4964.18
-4963.84
-4963.54
-4963.3
-4963.14
-4963.08
-4963.09
-4897.05
-4897.38
-4898.11
-4899.23
-4900.82
-4902.81
-4905.19
-4907.9
-4910.92
-4914.2
-4917.68
-4921.31
-4925.04
-4928.8
-4932.55
-4936.22
-4939.79
-4943.2
-4946.42
-4949.42
-4952.18
-4954.68
-4956.9
-4958.85
-4960.52
-4961.91
-4963.04
-4963.91
-4964.55
-4964.97
-4965.19
-4965.23
-4965.13
-4964.89
-4964.56
-4964.14
-4963.66
-4963.16
-4962.66
-4962.19
-4961.79
-4961.47
-4961.35
-4961.33
-4898.81
-4898.94
-4899.5
-4900.37
-4901.77
-4903.6
-4905.85
-4908.46
-4911.41
-4914.63
-4918.08
-4921.69
-4925.4
-4929.15
-4932.89
-4936.56
-4940.12
-4943.52
-4946.73
-4949.72
-4952.46
-4954.94
-4957.14
-4959.05
-4960.69
-4962.04
-4963.12
-4963.94
-4964.52
-4964.87
-4965.02
-4964.98
-4964.79
-4964.46
-4964.01
-4963.47
-4962.85
-4962.19
-4961.5
-4960.81
-4960.19
-4959.58
-4959.32
-4959.13
-4901.2
-4900.81
-4901.08
-4901.55
-4902.71
-4904.34
-4906.44
-4908.95
-4911.82
-4914.99
-4918.4
-4921.99
-4925.69
-4929.43
-4933.17
-4936.84
-4940.39
-4943.79
-4947
-4949.98
-4952.71
-4955.17
-4957.35
-4959.24
-4960.84
-4962.16
-4963.2
-4963.97
-4964.5
-4964.8
-4964.89
-4964.79
-4964.52
-4964.11
-4963.56
-4962.9
-4962.15
-4961.33
-4960.45
-4959.5
-4958.6
-4957.57
-4957.04
-4956.34
-4904.36
-4902.9
-4902.72
-4902.67
-4903.55
-4904.97
-4906.93
-4909.34
-4912.14
-4915.27
-4918.65
-4922.22
-4925.91
-4929.65
-4933.38
-4937.05
-4940.61
-4944.01
-4947.21
-4950.19
-4952.91
-4955.36
-4957.52
-4959.39
-4960.97
-4962.26
-4963.27
-4964.02
-4964.51
-4964.76
-4964.8
-4964.65
-4964.32
-4963.83
-4963.21
-4962.45
-4961.59
-4960.62
-4959.55
-4958.36
-4957.13
-4955.56
-4954.61
-4952.83
-4908.38
-4905.03
-4904.26
-4903.63
-4904.23
-4905.46
-4907.3
-4909.63
-4912.37
-4915.46
-4918.82
-4922.38
-4926.07
-4929.81
-4933.54
-4937.21
-4940.77
-4944.17
-4947.37
-4950.35
-4953.06
-4955.51
-4957.66
-4959.52
-4961.08
-4962.35
-4963.34
-4964.06
-4964.52
-4964.74
-4964.75
-4964.55
-4964.18
-4963.64
-4962.95
-4962.12
-4961.16
-4960.07
-4958.86
-4957.43
-4955.9
-4953.73
-4952.22
-4948.53
-4913.18
-4906.98
-4905.55
-4904.37
-4904.73
-4905.8
-4907.56
-4909.82
-4912.52
-4915.59
-4918.93
-4922.49
-4926.17
-4929.91
-4933.65
-4937.32
-4940.88
-4944.28
-4947.49
-4950.46
-4953.17
-4955.61
-4957.76
-4959.61
-4961.16
-4962.42
-4963.39
-4964.09
-4964.54
-4964.74
-4964.72
-4964.49
-4964.09
-4963.51
-4962.78
-4961.9
-4960.88
-4959.7
-4958.36
-4956.76
-4954.97
-4952.24
-4950.09
-4943.51
-4918.41
-4908.53
-4906.46
-4904.85
-4905.05
-4906.01
-4907.71
-4909.93
-4912.61
-4915.66
-4919
-4922.55
-4926.23
-4929.97
-4933.71
-4937.38
-4940.95
-4944.35
-4947.56
-4950.53
-4953.24
-4955.68
-4957.82
-4959.67
-4961.21
-4962.46
-4963.43
-4964.12
-4964.55
-4964.74
-4964.7
-4964.46
-4964.04
-4963.44
-4962.68
-4961.77
-4960.71
-4959.47
-4958.07
-4956.34
-4954.38
-4951.21
-4948.43
-4938.14
-4923.35
-4909.51
-4906.95
-4905.1
-4905.2
-4906.11
-4907.78
-4909.98
-4912.65
-4915.69
-4919.03
-4922.57
-4926.26
-4930
-4933.74
-4937.41
-4940.98
-4944.38
-4947.59
-4950.56
-4953.27
-4955.71
-4957.85
-4959.69
-4961.23
-4962.48
-4963.44
-4964.13
-4964.55
-4964.74
-4964.69
-4964.45
-4964.01
-4963.41
-4962.64
-4961.71
-4960.63
-4959.37
-4957.92
-4956.13
-4954.07
-4950.67
-4947.4
-4933.14
-4927.3
-4909.94
-4907.12
-4905.19
-4905.26
-4906.15
-4907.8
-4910
-4912.66
-4915.7
-4919.04
-4922.58
-4926.26
-4930.01
-4933.74
-4937.42
-4940.99
-4944.39
-4947.6
-4950.57
-4953.28
-4955.71
-4957.86
-4959.7
-4961.24
-4962.49
-4963.45
-4964.13
-4964.55
-4964.74
-4964.69
-4964.44
-4964.01
-4963.4
-4962.63
-4961.69
-4960.6
-4959.33
-4957.88
-4956.07
-4953.97
-4950.49
-4946.95
-4929.17
)
;

boundaryField
{
    movingWall
    {
        type            zeroGradient;
    }
    fixedWalls
    {
        type            zeroGradient;
    }
    frontAndBack
    {
        type            empty;
    }
    defaultFaces
    {
        type            empty;
    }
}


// ************************************************************************* //
