/*--------------------------------*- C++ -*----------------------------------*\
  =========                 |
  \\      /  F ield         | OpenFOAM: The Open Source CFD Toolbox
   \\    /   O peration     | Website:  https://openfoam.org
    \\  /    A nd           | Version:  7
     \\/     M anipulation  |
\*---------------------------------------------------------------------------*/
FoamFile
{
    version     2.0;
    format      ascii;
    class       volScalarField;
    location    "5.4";
    object      p;
}
// * * * * * * * * * * * * * * * * * * * * * * * * * * * * * * * * * * * * * //

dimensions      [0 2 -2 0 0 0 0];

internalField   nonuniform List<scalar> 
900
(
2.66233e-08
-0.000123959
-0.000262939
-0.000376259
-0.00043482
-0.000423216
-0.00033608
-0.000172936
6.4785e-05
0.000375002
0.000755255
0.00120237
0.00171177
0.00227664
0.0028871
0.00352957
0.0041865
0.00483641
0.00545485
0.00601595
0.0064946
0.00686922
0.00712474
0.00725522
0.00726577
0.00717366
0.00700836
0.00680953
0.00662835
0.00652627
0.000122259
-3.63378e-06
-9.97023e-05
-0.000166128
-0.000186861
-0.000149856
-5.00076e-05
0.000114399
0.000343491
0.000636422
0.00099149
0.0014059
0.0018753
0.00239312
0.00295004
0.00353352
0.00412764
0.00471351
0.0052698
0.00577431
0.00620596
0.00654711
0.00678608
0.0069193
0.00695261
0.00690159
0.0067908
0.00665232
0.00652164
0.00642297
0.000266097
8.88041e-05
-9.49419e-06
-6.45815e-05
-7.28306e-05
-2.60184e-05
7.88759e-05
0.000242797
0.000465986
0.000748093
0.00108805
0.00148372
0.00193142
0.00242532
0.00295683
0.00351422
0.00408295
0.00464446
0.00517841
0.00566339
0.00607895
0.00640797
0.00663918
0.00676929
0.00680415
0.00675859
0.00665536
0.00652364
0.00638907
0.00624824
0.000386743
0.000147904
3.26945e-05
-2.43906e-05
-3.00806e-05
1.99413e-05
0.000126054
0.000287826
0.000505181
0.000778085
0.00110614
0.00148811
0.0019213
0.00240089
0.00291931
0.00346568
0.00402576
0.00458145
0.00511212
0.00559563
0.00601044
0.00633819
0.00656648
0.00669126
0.00671809
0.00666174
0.00654483
0.0063964
0.00623669
0.00604355
0.000447218
0.000148528
1.25714e-05
-5.21389e-05
-6.05745e-05
-1.16156e-05
9.26842e-05
0.000250547
0.000461565
0.000726045
0.00104437
0.00141637
0.00184053
0.0023133
0.00282821
0.00337522
0.00394035
0.00450537
0.00504851
0.00554579
0.00597321
0.00630972
0.00654052
0.00665992
0.00667302
0.00659521
0.0064507
0.00627096
0.00607546
0.00582941
0.000420175
6.6715e-05
-9.10364e-05
-0.000166581
-0.000181421
-0.00013691
-3.71031e-05
0.00011514
0.000319231
0.000575944
0.000886588
0.00125222
0.00167276
0.00214609
0.00266704
0.00322647
0.00381062
0.00440062
0.00497291
0.00550058
0.00595579
0.00631323
0.00655417
0.00667025
0.00666574
0.00655738
0.00637276
0.00614862
0.00590783
0.00560834
0.000286345
-0.00011605
-0.000295139
-0.000383088
-0.000406683
-0.000369179
-0.000276188
-0.00013133
6.48564e-05
0.000313794
0.000617899
0.000979672
0.00140071
0.00188061
0.00241578
0.00299821
0.0036144
0.00424484
0.00486354
0.00543974
0.0059403
0.00633384
0.00659578
0.00671351
0.00668978
0.00654312
0.00630634
0.0060244
0.00572745
0.00537004
3.10793e-05
-0.000415086
-0.000614514
-0.000715594
-0.000749586
-0.000721259
-0.000637419
-0.000502153
-0.000315725
-7.5866e-05
0.000221144
0.000579491
0.00100274
0.00149261
0.00204754
0.00266115
0.00332062
0.00400609
0.004689
0.00533395
0.00590103
0.00635056
0.00664956
0.00677866
0.0067375
0.00654637
0.00624496
0.00588977
0.00552186
0.00509395
-0.000357669
-0.000843633
-0.00106255
-0.00117736
-0.00122334
-0.00120654
-0.00113473
-0.00101226
-0.000838968
-0.000611577
-0.000324892
2.71971e-05
0.000450575
0.000949585
0.00152545
0.00217422
0.00288455
0.00363757
0.00440231
0.00513858
0.00579835
0.00633104
0.00669157
0.00684989
0.00679938
0.00656074
0.00618181
0.00573441
0.0052746
0.00475217
-0.000890317
-0.00141329
-0.00165129
-0.00178075
-0.0018407
-0.00183845
-0.00178263
-0.0016778
-0.00152329
-0.00131481
-0.00104559
-0.000707427
-0.000291781
0.000208921
0.000799599
0.00148001
0.00224165
0.00306975
0.00393153
0.00478299
0.00556742
0.00622056
0.00668031
0.00689965
0.00685967
0.00657773
0.0061098
0.0055475
0.00496683
0.0043111
-0.00157611
-0.0021343
-0.00239154
-0.00253708
-0.00261369
-0.00263
-0.00259565
-0.00251546
-0.00238843
-0.00220937
-0.00197005
-0.00166018
-0.00126838
-0.00078331
-0.000195339
0.000500877
0.00130258
0.00220164
0.00316776
0.00415586
0.00510167
0.00592518
0.00654114
0.0068761
0.00688814
0.00658271
0.00602097
0.00531888
0.00457916
0.00373291
-0.00242323
-0.0030157
-0.00329286
-0.00345649
-0.00355322
-0.00359328
-0.00358757
-0.00354157
-0.0034543
-0.00332007
-0.00312966
-0.00287105
-0.00253019
-0.0020918
-0.00154059
-0.000862788
-4.93785e-05
0.000892076
0.00195174
0.00308711
0.0042307
0.00528716
0.00614196
0.00668198
0.00682452
0.00654608
0.00590332
0.00503963
0.00409373
0.00297724
-0.00343875
-0.00406535
-0.00436359
-0.00454776
-0.00466866
-0.0047386
-0.0047703
-0.00477048
-0.00473889
-0.00467021
-0.00455509
-0.00438081
-0.00413149
-0.00378841
-0.00333028
-0.00273397
-0.00197746
-0.00104841
6.35462e-05
0.00133122
0.00269638
0.00405497
0.00525985
0.00614242
0.00655224
0.00640595
0.00573305
0.00470113
0.00349643
0.00200359
-0.00462848
-0.00528997
-0.00561074
-0.005818
-0.00596718
-0.00607346
-0.00615217
-0.00621226
-0.00625531
-0.00627763
-0.00627136
-0.00622483
-0.00612232
-0.00594332
-0.00566152
-0.00524367
-0.0046495
-0.00383614
-0.00277179
-0.00143629
0.000139409
0.00185874
0.00354695
0.00496574
0.00586128
0.00604022
0.00545933
0.00429138
0.00277968
0.000775003
-0.00599687
-0.00669528
-0.00704011
-0.00727241
-0.0074531
-0.00760121
-0.00773596
-0.00786982
-0.00800771
-0.0081494
-0.00829076
-0.00842397
-0.00853672
-0.00861017
-0.00861588
-0.00851163
-0.00823724
-0.0077142
-0.00685859
-0.00559164
-0.00388121
-0.00178394
0.000518541
0.00271496
0.00441047
0.00523129
0.00498146
0.00378814
0.00194665
-0.000734896
-0.00754718
-0.00828654
-0.00865661
-0.00891426
-0.00912718
-0.00931972
-0.00951662
-0.00973555
-0.00998663
-0.0102753
-0.0106042
-0.0109728
-0.0113768
-0.0118043
-0.0122299
-0.0126061
-0.0128535
-0.0128531
-0.0124491
-0.0114784
-0.00980343
-0.00739402
-0.00439584
-0.00117218
0.00171785
0.00363987
0.00412457
0.0031507
0.00101947
-0.00252769
-0.00928216
-0.0100696
-0.0104651
-0.0107452
-0.0109862
-0.01122
-0.011479
-0.0117879
-0.0121642
-0.0126215
-0.0131721
-0.0138271
-0.0145955
-0.0154785
-0.0164609
-0.0174964
-0.0184899
-0.0192802
-0.0196316
-0.019257
-0.0178937
-0.0153583
-0.0116951
-0.00726371
-0.00277213
0.000823527
0.00263388
0.00231708
5.53329e-05
-0.00455286
-0.0112055
-0.0120529
-0.0124722
-0.012766
-0.013023
-0.0132854
-0.0135958
-0.0139886
-0.0144903
-0.015125
-0.0159174
-0.0168942
-0.0180823
-0.0195027
-0.0211575
-0.0230094
-0.0249538
-0.0267902
-0.0281988
-0.0287495
-0.0280494
-0.02569
-0.0215461
-0.0158876
-0.00949706
-0.00364853
0.00022389
0.00122364
-0.000823488
-0.00665875
-0.013325
-0.0142513
-0.0146889
-0.0149785
-0.0152267
-0.0154908
-0.015827
-0.0162812
-0.016891
-0.0176921
-0.0187236
-0.0200302
-0.0216603
-0.0236588
-0.0260507
-0.0288139
-0.0318412
-0.0348992
-0.0375994
-0.0393998
-0.039661
-0.0378253
-0.0335223
-0.0268307
-0.0184787
-0.00995841
-0.00327973
-0.000123322
-0.00137737
-0.00851329
-0.0156573
-0.0166917
-0.0171349
-0.0173873
-0.0175839
-0.017803
-0.0181192
-0.0185919
-0.01927
-0.0202017
-0.0214406
-0.0230496
-0.0250993
-0.0276595
-0.0307796
-0.034455
-0.0385804
-0.042898
-0.0469611
-0.0501284
-0.0515813
-0.0505719
-0.0464804
-0.0391264
-0.0290405
-0.0177429
-0.00770099
-0.00150257
-0.00116629
-0.00948601
-0.0182376
-0.0194231
-0.0198456
-0.0200041
-0.0200795
-0.0201815
-0.0204074
-0.0208319
-0.0215148
-0.0225149
-0.0238991
-0.0257464
-0.0281472
-0.031193
-0.0349542
-0.0394408
-0.0445499
-0.0500057
-0.0553155
-0.0597591
-0.062418
-0.0623556
-0.058742
-0.0511212
-0.0397246
-0.0258815
-0.0122543
-0.00226699
0.000570353
-0.00848901
-0.0211373
-0.0225318
-0.0228806
-0.0228499
-0.0226976
-0.0225782
-0.0226169
-0.022903
-0.023505
-0.0244893
-0.0259322
-0.0279251
-0.0305728
-0.0339822
-0.0382368
-0.043354
-0.049228
-0.0555676
-0.0618464
-0.0672921
-0.0709274
-0.0716741
-0.0685577
-0.0608812
-0.0485548
-0.0325557
-0.0154247
-0.0011511
0.00506607
-0.00379269
-0.0244982
-0.0261676
-0.0263359
-0.0259579
-0.0254198
-0.0249371
-0.0246649
-0.0247033
-0.0251241
-0.0259962
-0.0273998
-0.0294331
-0.0322086
-0.0358401
-0.0404138
-0.0459454
-0.0523157
-0.0592166
-0.0660953
-0.0721427
-0.0763371
-0.0775244
-0.074623
-0.0667586
-0.0535645
-0.0356236
-0.0151151
0.00377947
0.0141941
0.00714995
-0.0286071
-0.0305848
-0.0303569
-0.0293713
-0.0282191
-0.0271893
-0.02646
-0.0261317
-0.0262693
-0.0269357
-0.0282087
-0.0301862
-0.0329806
-0.0367036
-0.041432
-0.0471756
-0.0537833
-0.0609269
-0.0680231
-0.0742289
-0.0784815
-0.0795835
-0.076358
-0.0677999
-0.0533115
-0.0331466
-0.00904293
0.0150021
0.0306263
0.0278236
-0.0340572
-0.0362074
-0.0351458
-0.0331291
-0.0310432
-0.0292404
-0.0278954
-0.0270857
-0.0268529
-0.0272424
-0.0283202
-0.0301765
-0.0329138
-0.0366352
-0.0413995
-0.0471833
-0.0538162
-0.0609292
-0.0679035
-0.0738567
-0.0776774
-0.0781045
-0.0738469
-0.0637734
-0.0471278
-0.0238484
0.00471026
0.035254
0.0578614
0.0625644
-0.0421302
-0.0437207
-0.04093
-0.037214
-0.0337659
-0.0309286
-0.028812
-0.0274308
-0.0267773
-0.0268629
-0.0277283
-0.029447
-0.0321044
-0.0357793
-0.0405046
-0.046221
-0.0527196
-0.0595874
-0.0661607
-0.0715076
-0.0744516
-0.0736329
-0.0676206
-0.0551019
-0.0350991
-0.00735782
0.02717
0.0667588
0.0995645
0.116252
-0.0559144
-0.0542208
-0.0478613
-0.0414308
-0.0360717
-0.0319198
-0.0289066
-0.0269223
-0.0258694
-0.0256989
-0.0264114
-0.0280463
-0.0306611
-0.0343028
-0.0389684
-0.0445562
-0.0508114
-0.057272
-0.0632249
-0.0676839
-0.0694031
-0.0668869
-0.0585265
-0.0427503
-0.0182496
0.0156722
0.0586929
0.109598
0.157543
0.195798
-0.0832632
-0.0689513
-0.0559316
-0.0452932
-0.0373244
-0.0316206
-0.0276961
-0.0252076
-0.0239049
-0.0236406
-0.0243521
-0.0260338
-0.0287062
-0.0323795
-0.0370109
-0.042456
-0.0484143
-0.0543767
-0.0595799
-0.0629808
-0.0632799
-0.0588697
-0.0479645
-0.0286059
0.00103026
0.0424848
0.0964539
0.163059
0.232527
0.315022
-0.135621
-0.084303
-0.0628569
-0.0463648
-0.0353329
-0.0283297
-0.023989
-0.021484
-0.0203494
-0.0203336
-0.0213157
-0.0232523
-0.0261349
-0.0299465
-0.0346167
-0.0399723
-0.0456861
-0.0512256
-0.0558067
-0.0583503
-0.0574586
-0.0515526
-0.0387358
-0.0166395
0.0172475
0.065944
0.132491
0.221737
0.33008
0.500018
-0.308071
-0.093948
-0.0454681
-0.0276235
-0.0180202
-0.0132508
-0.0113877
-0.0110721
-0.0116861
-0.0130324
-0.0150715
-0.0178209
-0.021314
-0.0255636
-0.0305212
-0.0360318
-0.0417867
-0.0472773
-0.0517564
-0.0542131
-0.0533622
-0.0475272
-0.0346449
-0.0124579
0.0219279
0.0730286
0.147487
0.26282
0.438311
0.782285
)
;

boundaryField
{
    movingWall
    {
        type            zeroGradient;
    }
    fixedWalls
    {
        type            zeroGradient;
    }
    frontAndBack
    {
        type            empty;
    }
}


// ************************************************************************* //
