/*--------------------------------*- C++ -*----------------------------------*\
  =========                 |
  \\      /  F ield         | OpenFOAM: The Open Source CFD Toolbox
   \\    /   O peration     | Website:  https://openfoam.org
    \\  /    A nd           | Version:  7
     \\/     M anipulation  |
\*---------------------------------------------------------------------------*/
FoamFile
{
    version     2.0;
    format      ascii;
    class       surfaceScalarField;
    location    "3.5";
    object      phi;
}
// * * * * * * * * * * * * * * * * * * * * * * * * * * * * * * * * * * * * * //

dimensions      [0 3 -1 0 0 0 0];

internalField   nonuniform List<scalar> 
1740
(
3.00107e-07
-3.0011e-07
-7.24452e-07
1.02456e-06
-3.10144e-06
2.37699e-06
-6.47635e-06
3.37491e-06
-1.04693e-05
3.99292e-06
-1.47655e-05
4.29622e-06
-1.91335e-05
4.36802e-06
-2.34117e-05
4.2782e-06
-2.74859e-05
4.07417e-06
-3.12688e-05
3.78295e-06
-3.46852e-05
3.41639e-06
-3.76619e-05
2.97667e-06
-4.01229e-05
2.461e-06
-4.19884e-05
1.8655e-06
-4.31765e-05
1.18807e-06
-4.36073e-05
4.30859e-07
-4.32097e-05
-3.97622e-07
-4.1929e-05
-1.28067e-06
-3.97377e-05
-2.19136e-06
-3.6646e-05
-3.09166e-06
-3.27141e-05
-3.93187e-06
-2.80627e-05
-4.6514e-06
-2.28818e-05
-5.18092e-06
-1.74356e-05
-5.44624e-06
-1.2062e-05
-5.3736e-06
-7.16439e-06
-4.89757e-06
-3.18727e-06
-3.97713e-06
-5.58207e-07
-2.62906e-06
4.40354e-07
-9.98565e-07
4.4035e-07
-1.02218e-06
7.22069e-07
-4.91356e-06
4.91594e-06
-1.14862e-05
8.94964e-06
-2.01066e-05
1.19953e-05
-3.00724e-05
1.39587e-05
-4.07461e-05
1.497e-05
-5.16087e-05
1.52307e-05
-6.22604e-05
1.49299e-05
-7.23957e-05
1.42094e-05
-8.17718e-05
1.31591e-05
-9.01814e-05
1.1826e-05
-9.74325e-05
1.02278e-05
-0.000103337
8.36596e-06
-0.00010771
6.23754e-06
-0.000110366
3.84449e-06
-0.000111136
1.20114e-06
-0.000109878
-1.65615e-06
-0.000106489
-4.66929e-06
-0.000100936
-7.7446e-06
-9.32718e-05
-1.07557e-05
-8.36635e-05
-1.35402e-05
-7.24115e-05
-1.59034e-05
-5.9966e-05
-1.76264e-05
-4.69314e-05
-1.84808e-05
-3.40542e-05
-1.82508e-05
-2.21872e-05
-1.67646e-05
-1.22173e-05
-1.3947e-05
-4.94655e-06
-9.89985e-06
-9.22816e-07
-5.0223e-06
-4.82466e-07
-2.4665e-06
3.18857e-06
-9.25443e-06
1.17039e-05
-1.9598e-05
1.92932e-05
-3.26005e-05
2.49979e-05
-4.73409e-05
2.86991e-05
-6.29855e-05
3.06146e-05
-7.88376e-05
3.10828e-05
-9.4341e-05
3.04333e-05
-0.000109056
2.89243e-05
-0.000122625
2.67283e-05
-0.000134742
2.39431e-05
-0.000145127
2.0613e-05
-0.000153513
1.67519e-05
-0.00015964
1.23645e-05
-0.00016326
7.46404e-06
-0.000164147
2.0884e-06
-0.000162114
-3.68882e-06
-0.00015704
-9.74325e-06
-0.000148895
-1.58904e-05
-0.000137769
-2.18808e-05
-0.000123912
-2.73979e-05
-0.00010775
-3.2065e-05
-8.99126e-05
-3.5464e-05
-7.12274e-05
-3.7166e-05
-5.27006e-05
-3.67775e-05
-3.54611e-05
-3.40041e-05
-2.06675e-05
-2.87406e-05
-9.375e-06
-2.11924e-05
-2.35963e-06
-1.20377e-05
-2.84209e-06
-3.68523e-06
6.87381e-06
-1.30239e-05
2.10425e-05
-2.66651e-05
3.29344e-05
-4.33792e-05
4.17119e-05
-6.20408e-05
4.73607e-05
-8.167e-05
5.02437e-05
-0.000101453
5.08657e-05
-0.000120734
4.97139e-05
-0.000138985
4.71763e-05
-0.000155776
4.35185e-05
-0.00017073
3.88977e-05
-0.000183508
3.3391e-05
-0.000193786
2.70296e-05
-0.000201251
1.98299e-05
-0.000205608
1.18208e-05
-0.000206588
3.06839e-06
-0.00020397
-6.30661e-06
-0.000197612
-1.61021e-05
-0.000187478
-2.60243e-05
-0.000173683
-3.56759e-05
-0.000156526
-4.45544e-05
-0.000136526
-5.20652e-05
-0.000114438
-5.75516e-05
-9.12559e-05
-6.03485e-05
-6.81771e-05
-5.98563e-05
-4.65401e-05
-5.56411e-05
-2.7722e-05
-4.75588e-05
-1.30119e-05
-3.59024e-05
-3.4875e-06
-2.1562e-05
-6.32959e-06
-4.6476e-06
1.15214e-05
-1.61294e-05
3.25243e-05
-3.25797e-05
4.93848e-05
-5.24381e-05
6.15703e-05
-7.43758e-05
6.92984e-05
-9.72845e-05
7.31525e-05
-0.000120263
7.38443e-05
-0.00014259
7.20411e-05
-0.000163687
6.82726e-05
-0.000183073
6.29047e-05
-0.000200332
5.6157e-05
-0.000215083
4.81417e-05
-0.00022696
3.89072e-05
-0.000235611
2.84807e-05
-0.000240696
1.69055e-05
-0.000241903
4.27523e-06
-0.00023897
-9.23976e-06
-0.000231717
-2.3355e-05
-0.000220086
-3.76547e-05
-0.000204188
-5.15739e-05
-0.000184347
-6.43953e-05
-0.000161144
-7.52688e-05
-0.000135438
-8.32579e-05
-0.000108367
-8.74186e-05
-8.13136e-05
-8.69102e-05
-5.58215e-05
-8.11331e-05
-3.34933e-05
-6.98871e-05
-1.58634e-05
-5.35323e-05
-4.29801e-06
-3.31275e-05
-1.06276e-05
-5.40125e-06
1.69227e-05
-1.86642e-05
4.57872e-05
-3.75031e-05
6.82237e-05
-6.0056e-05
8.41232e-05
-8.47993e-05
9.40417e-05
-0.000110505
9.88582e-05
-0.0001362
9.9539e-05
-0.000161117
9.69585e-05
-0.000184647
9.18022e-05
-0.000206284
8.45419e-05
-0.000225588
7.54613e-05
-0.000242151
6.47045e-05
-0.000255576
5.23326e-05
-0.000265472
3.83766e-05
-0.000271453
2.28864e-05
-0.000273154
5.9755e-06
-0.000270251
-1.21425e-05
-0.000262504
-3.11022e-05
-0.0002498
-5.03585e-05
-0.000232213
-6.91608e-05
-0.000210063
-8.65455e-05
-0.000183969
-0.000101362
-0.00015489
-0.000112337
-0.000124118
-0.00011819
-9.32445e-05
-0.000117784
-6.40613e-05
-0.000110316
-3.84364e-05
-9.5512e-05
-1.81706e-05
-7.3798e-05
-4.88574e-06
-4.64123e-05
-1.55133e-05
-6.01391e-06
2.29366e-05
-2.07922e-05
6.05655e-05
-4.17107e-05
8.91422e-05
-6.66412e-05
0.000109054
-9.38787e-05
0.000121279
-0.000122083
0.000127062
-0.000150217
0.000127673
-0.000177483
0.000124225
-0.000203255
0.000117574
-0.000227017
0.000108304
-0.00024832
9.67638e-05
-0.000266738
8.31223e-05
-0.000281849
6.74436e-05
-0.000293222
4.97499e-05
-0.000300417
3.00817e-05
-0.000302998
8.55635e-06
-0.000300556
-1.45845e-05
-0.000292753
-3.89049e-05
-0.000279383
-6.37292e-05
-0.000260439
-8.81048e-05
-0.000236199
-0.000110785
-0.0002073
-0.00013026
-0.000174794
-0.000144843
-0.000140158
-0.000152826
-0.000105245
-0.000152697
-7.21691e-05
-0.000143393
-4.31337e-05
-0.000124547
-2.02462e-05
-9.66856e-05
-5.36117e-06
-6.12973e-05
-2.08745e-05
-6.54895e-06
2.94855e-05
-2.26849e-05
7.67014e-05
-4.54983e-05
0.000111956
-7.26234e-05
0.000136179
-0.000102186
0.000150842
-0.000132742
0.000157618
-0.000163199
0.00015813
-0.000192736
0.000153762
-0.000220723
0.00014556
-0.000246649
0.00013423
-0.000270063
0.000120178
-0.000290534
0.000103593
-0.000307618
8.45276e-05
-0.000320843
6.29754e-05
-0.000329706
3.89445e-05
-0.000333679
1.25289e-05
-0.000332236
-1.60271e-05
-0.000324901
-4.62403e-05
-0.000311318
-7.73119e-05
-0.000291347
-0.000108076
-0.00026517
-0.000136962
-0.000233404
-0.000162026
-0.000197189
-0.000181058
-0.000158219
-0.000191797
-0.000118687
-0.000192229
-8.11336e-05
-0.000180946
-4.82109e-05
-0.00015747
-2.24083e-05
-0.000122488
-5.82168e-06
-7.7884e-05
-2.66962e-05
-7.05709e-06
3.65426e-05
-2.44915e-05
9.41358e-05
-4.91317e-05
0.000136596
-7.83898e-05
0.000165437
-0.000110231
0.000182684
-0.000143113
0.0001905
-0.000175895
0.000190912
-0.000207743
0.00018561
-0.000238035
0.000175852
-0.000266275
0.00016247
-0.000292027
0.00014593
-0.000314862
0.000126429
-0.000334324
0.000103989
-0.0003499
7.85516e-05
-0.000361015
5.00594e-05
-0.000367031
1.85454e-05
-0.000367275
-1.57832e-05
-0.000361078
-5.24379e-05
-0.000347871
-9.0518e-05
-0.000327303
-0.000128645
-0.000299379
-0.000164886
-0.000264635
-0.000196771
-0.000224268
-0.000221425
-0.000180216
-0.000235848
-0.000135108
-0.000237337
-9.20633e-05
-0.00022399
-5.43514e-05
-0.000195182
-2.49825e-05
-0.000151857
-6.35279e-06
-9.65136e-05
-3.3049e-05
-7.57633e-06
4.4119e-05
-2.63306e-05
0.00011289
-5.28279e-05
0.000163093
-8.42575e-05
0.000196867
-0.000118426
0.000216853
-0.000153696
0.00022577
-0.000188887
0.000226102
-0.000223162
0.000219885
-0.000255919
0.00020861
-0.000286695
0.000193246
-0.000315082
0.000174317
-0.000340671
0.000152018
-0.000363004
0.000126321
-0.000381538
9.70853e-05
-0.000395625
6.41467e-05
-0.000404505
2.74256e-05
-0.000407326
-1.29622e-05
-0.000403169
-5.65948e-05
-0.000391175
-0.000102512
-0.000370671
-0.000149149
-0.000341371
-0.000194185
-0.000303612
-0.00023453
-0.000258578
-0.000266459
-0.000208452
-0.000285975
-0.000156402
-0.000289387
-0.000106332
-0.000274059
-6.23928e-05
-0.000239122
-2.83523e-05
-0.000185898
-7.0456e-06
-0.00011782
-4.00946e-05
-8.13438e-06
5.22533e-05
-2.82929e-05
0.000133049
-5.67545e-05
0.000191555
-9.04712e-05
0.000230583
-0.000127085
0.000253466
-0.000164863
0.000263548
-0.000202592
0.000263831
-0.000239446
0.000256739
-0.00027486
0.000244025
-0.00030842
0.000226806
-0.00033977
0.000205667
-0.000368543
0.00018079
-0.000394302
0.00015208
-0.000416495
0.000119278
-0.000434414
8.20663e-05
-0.000447175
4.01864e-05
-0.000453731
-6.40663e-06
-0.000452848
-5.74771e-05
-0.000443287
-0.000112073
-0.000423915
-0.000168521
-0.000393979
-0.000224122
-0.000353427
-0.000275081
-0.000303277
-0.00031661
-0.000245896
-0.000343356
-0.000185088
-0.000350196
-0.000125811
-0.000333337
-7.34878e-05
-0.000291444
-3.30454e-05
-0.00022634
-8.02364e-06
-0.000142842
-4.81182e-05
-8.75191e-06
6.10052e-05
-3.04479e-05
0.000154745
-6.104e-05
0.000222147
-9.72147e-05
0.000266758
-0.000136433
0.000292685
-0.000176868
0.000303983
-0.000217278
0.000304242
-0.000256864
0.000296324
-0.000295115
0.000282276
-0.000331694
0.000263384
-0.000366322
0.000240296
-0.00039871
0.000213178
-0.000428478
0.000181848
-0.0004551
0.0001459
-0.000477844
0.00010481
-0.000495719
5.80612e-05
-0.000507476
5.35002e-06
-0.000511534
-5.34189e-05
-0.000506163
-0.000117444
-0.0004896
-0.000185083
-0.000460377
-0.000253346
-0.000417766
-0.000317692
-0.000362332
-0.000372043
-0.000296456
-0.000409232
-0.000224612
-0.000422039
-0.000153141
-0.000404808
-8.93103e-05
-0.000355275
-3.98465e-05
-0.000275804
-9.47724e-06
-0.000173211
-5.75955e-05
-9.44639e-06
7.04516e-05
-3.28544e-05
0.000178153
-6.57908e-05
0.000255083
-0.000104633
0.0003056
-0.00014664
0.000334691
-0.000189881
0.000347224
-0.000233097
0.000347458
-0.00027553
0.000338756
-0.00031675
0.000323497
-0.000356521
0.000303155
-0.000394684
0.000278459
-0.000431065
0.000249559
-0.000465396
0.00021618
-0.000497236
0.00017774
-0.000525886
0.000133461
-0.000550311
8.24863e-05
-0.000569034
2.40724e-05
-0.000580197
-4.22552e-05
-0.000581431
-0.000116211
-0.000570154
-0.00019636
-0.000543871
-0.000279629
-0.00050076
-0.000360802
-0.00044048
-0.000432324
-0.000365057
-0.000484656
-0.000279542
-0.000507553
-0.000191982
-0.000492369
-0.000112266
-0.000434991
-4.99206e-05
-0.000338149
-1.17017e-05
-0.00021143
-6.92972e-05
-1.02364e-05
8.06881e-05
-3.5573e-05
0.000203489
-7.11111e-05
0.000290621
-0.00011286
0.000347349
-0.000157842
0.000379673
-0.000204017
0.000393399
-0.000250117
0.000393558
-0.00029544
0.000384079
-0.000339665
0.000367722
-0.000382693
0.000346183
-0.000424522
0.000320288
-0.000465151
0.000290187
-0.000504486
0.000255515
-0.00054225
0.000215504
-0.000577868
0.000169079
-0.000610341
0.000114959
-0.000638094
5.18253e-05
-0.000658934
-2.14147e-05
-0.000669836
-0.000105309
-0.00066721
-0.000198986
-0.000647174
-0.000299665
-0.000606279
-0.000401697
-0.000542622
-0.00049598
-0.000457244
-0.000570034
-0.000355406
-0.000609392
-0.000247053
-0.000600722
-0.000145624
-0.00053642
-6.49204e-05
-0.000418852
-1.51332e-05
-0.000261217
-8.44303e-05
-1.11468e-05
9.18349e-05
-3.86803e-05
0.000231023
-7.71266e-05
0.000329068
-0.000122046
0.000392269
-0.000170184
0.000427811
-0.000219378
0.000442594
-0.000268358
0.000442538
-0.000316504
0.000432225
-0.000363629
0.000414846
-0.000409804
0.000392358
-0.000455229
0.000365714
-0.000500132
0.00033509
-0.000544669
0.000300052
-0.000588822
0.000259657
-0.000632257
0.000212514
-0.000674144
0.000156846
-0.000712927
9.06081e-05
-0.00074618
1.18388e-05
-0.000770228
-8.12605e-05
-0.000780349
-0.000188866
-0.000770939
-0.000309075
-0.000736346
-0.000436291
-0.000672294
-0.000560032
-0.000577897
-0.000664431
-0.00045783
-0.000729458
-0.000323734
-0.000734818
-0.000193456
-0.000666697
-8.70354e-05
-0.000525273
-2.03764e-05
-0.000327876
-0.000104807
-1.22149e-05
0.00010405
-4.22867e-05
0.000261094
-8.40123e-05
0.000370793
-0.000132396
0.000440652
-0.00018385
0.000479265
-0.000236082
0.000494825
-0.000287828
0.000494285
-0.000338574
0.00048297
-0.000388293
0.000464565
-0.000437258
0.000441323
-0.000485909
0.000414365
-0.000534751
0.000383932
-0.000584265
0.000349565
-0.000634787
0.00031018
-0.000686353
0.00026408
-0.000738461
0.000208954
-0.000789772
0.000141919
-0.00083767
5.97367e-05
-0.00087816
-4.07707e-05
-0.000905262
-0.000161763
-0.000911501
-0.000302836
-0.000888563
-0.000459228
-0.000828983
-0.000619611
-0.000728767
-0.000764648
-0.00059064
-0.000867585
-0.000426946
-0.000898512
-0.000260218
-0.000833425
-0.000118952
-0.00066654
-2.82291e-05
-0.000418599
-0.000133036
-1.34994e-05
0.000117549
-4.65598e-05
0.000294155
-9.20263e-05
0.00041626
-0.000144201
0.000492827
-0.000199104
0.000534168
-0.000254295
0.000550017
-0.000308543
0.000548533
-0.000361459
0.000535886
-0.000413201
0.000516307
-0.000464266
0.000492389
-0.000515355
0.000465453
-0.000567282
0.000435859
-0.000620894
0.000403178
-0.000676961
0.000366247
-0.000735994
0.000323114
-0.000797976
0.000270935
-0.000861957
0.0002059
-0.000925534
0.000123314
-0.000984388
1.80826e-05
-0.0010317
-0.000114448
-0.00105824
-0.000276295
-0.00105294
-0.000464529
-0.00100461
-0.000667947
-0.000904941
-0.000864315
-0.000752814
-0.00101971
-0.000559084
-0.00109224
-0.000349819
-0.00104269
-0.000163688
-0.000852671
-3.97237e-05
-0.000542563
-0.00017276
-1.50939e-05
0.000132643
-5.17562e-05
0.000330817
-0.000101553
0.000466057
-0.00015789
0.000549164
-0.000216318
0.000592596
-0.000274258
0.000607957
-0.000330536
0.00060481
-0.000384921
0.000590271
-0.000437775
0.000569161
-0.000489822
0.000544436
-0.00054202
0.000517651
-0.000595484
0.000489324
-0.000651431
0.000459124
-0.000711075
0.000425891
-0.000775461
0.000387499
-0.000845155
0.000340629
-0.000919793
0.000280538
-0.000997466
0.000200987
-0.00107395
9.45653e-05
-0.00114215
-4.62442e-05
-0.00119172
-0.00022673
-0.00120936
-0.000446885
-0.00118028
-0.000697025
-0.00109111
-0.000953485
-0.000934718
-0.00117611
-0.000716969
-0.00130999
-0.000463959
-0.0012957
-0.000224213
-0.00109242
-5.62032e-05
-0.000710573
-0.000228963
-1.71488e-05
0.000149792
-5.82708e-05
0.000371939
-0.00011316
0.000520946
-0.000174065
0.000610069
-0.000236001
0.000654532
-0.000296275
0.000668232
-0.000353826
0.00066236
-0.000408621
0.000645067
-0.000461243
0.000621782
-0.000512627
0.00059582
-0.00056395
0.000568974
-0.000616575
0.000541948
-0.000672014
0.000514564
-0.000731867
0.000485744
-0.00079766
0.000453292
-0.00087056
0.00041353
-0.000950907
0.000360885
-0.00103755
0.000287628
-0.00112703
0.00018405
-0.00121263
3.93582e-05
-0.0012842
-0.000155161
-0.00132757
-0.000403523
-0.00132541
-0.000699183
-0.00125945
-0.00101945
-0.00111487
-0.00132069
-0.000888282
-0.00153658
-0.000599537
-0.00158445
-0.000302575
-0.00138938
-7.93963e-05
-0.000933752
-0.000308359
-1.99104e-05
0.000169702
-6.67124e-05
0.000418741
-0.000127676
0.00058191
-0.000193559
0.000675951
-0.000258796
0.000719768
-0.000320664
0.0007301
-0.000378313
0.000720009
-0.000431977
0.00069873
-0.00048247
0.000672275
-0.000530916
0.000644267
-0.000578641
0.0006167
-0.000627149
0.000590456
-0.000678116
0.000565531
-0.000733365
0.000540992
-0.000794751
0.000514679
-0.000863935
0.000482713
-0.000941967
0.000438917
-0.00102869
0.000374352
-0.00112196
0.00027732
-0.00121683
0.00013423
-0.00130416
-6.78353e-05
-0.00137156
-0.000336124
-0.00140116
-0.00066958
-0.00137132
-0.00104929
-0.00125931
-0.0014327
-0.00104881
-0.00174707
-0.000745291
-0.00188797
-0.000398128
-0.00173654
-0.000111339
-0.00122054
-0.000419698
-2.37953e-05
0.000193497
-7.8031e-05
0.000472977
-0.000146301
0.00065018
-0.000217464
0.000747114
-0.000285416
0.00078772
-0.000347592
0.000792276
-0.000403526
0.000775943
-0.000453825
0.00074903
-0.000499573
0.000718023
-0.000542054
0.000686747
-0.000582664
0.00065731
-0.000622921
0.000630712
-0.000664487
0.000607098
-0.000709193
0.000585697
-0.000758985
0.000564471
-0.0008158
0.000539528
-0.000881296
0.000504413
-0.000956419
0.000449475
-0.00104082
0.000361719
-0.0011322
0.00022561
-0.0012243
2.42677e-05
-0.00130853
-0.000251888
-0.00136934
-0.000608776
-0.00138474
-0.00103388
-0.0013261
-0.00149135
-0.00116306
-0.00191011
-0.000879266
-0.00217176
-0.000504822
-0.00211099
-0.000153892
-0.00157147
-0.000573589
-2.95383e-05
0.000223036
-9.3732e-05
0.000537171
-0.000170741
0.000727188
-0.000247114
0.000823487
-0.000316442
0.000857048
-0.000376689
0.000852524
-0.000428072
0.000827326
-0.000471744
0.000792701
-0.000509133
0.000755412
-0.000541688
0.000719303
-0.000570827
0.000686449
-0.00059797
0.000657855
-0.00062461
0.000633738
-0.000652369
0.000613457
-0.000683035
0.000595137
-0.000718561
0.000575054
-0.000760996
0.000546847
-0.000812323
0.000500802
-0.00087414
0.000423536
-0.000947077
0.000298547
-0.00103065
0.000107843
-0.0011192
-0.000163338
-0.00120382
-0.000524162
-0.00126592
-0.000971782
-0.0012753
-0.00148197
-0.00119038
-0.00199502
-0.000969684
-0.00239246
-0.000608659
-0.00247201
-0.000207587
-0.00197254
-0.000781177
-3.84927e-05
0.000261528
-0.000116236
0.000614914
-0.000203361
0.000814314
-0.000283899
0.000904025
-0.000351783
0.000924932
-0.000406191
0.000906932
-0.00044849
0.000869625
-0.000480657
0.000824868
-0.000504615
0.00077937
-0.000522045
0.000736732
-0.000534397
0.000698801
-0.000542968
0.000666426
-0.000548994
0.000639765
-0.000553759
0.000618222
-0.000558709
0.000600087
-0.000565591
0.000581935
-0.000576598
0.000557854
-0.000594503
0.000518708
-0.000622668
0.000451701
-0.000664858
0.000340736
-0.00072482
0.000167805
-0.000803754
-8.44041e-05
-0.000899227
-0.000428689
-0.00100015
-0.00087086
-0.00108082
-0.00140129
-0.00109544
-0.00198041
-0.000980678
-0.00250722
-0.000687183
-0.0027655
-0.000269676
-0.00239005
-0.00105085
-5.32346e-05
0.000314763
-0.000149423
0.000711102
-0.000247164
0.000912055
-0.000328537
0.000985398
-0.000389283
0.000985678
-0.000430958
0.000948607
-0.000456801
0.000895467
-0.00047002
0.000838087
-0.000473275
0.000782625
-0.000468631
0.000732089
-0.000457673
0.000687842
-0.000441625
0.000650379
-0.000421492
0.000619632
-0.000398199
0.000594928
-0.000372779
0.000574668
-0.000346633
0.000555789
-0.00032185
0.000533071
-0.000301636
0.000498494
-0.000290579
0.000440644
-0.000294811
0.000344968
-0.000321671
0.000194665
-0.000378578
-2.74974e-05
-0.000469845
-0.000337421
-0.00059458
-0.000746126
-0.00073713
-0.00125874
-0.000857291
-0.00186024
-0.000880405
-0.00248411
-0.00071197
-0.00293394
-0.000331731
-0.00277029
-0.00138258
-7.87197e-05
0.000393483
-0.000199217
0.000831599
-0.000304875
0.00101771
-0.000378619
0.00105914
-0.000420967
0.00102803
-0.000437733
0.000965373
-0.000435051
0.000892785
-0.000417913
0.00082095
-0.000390026
0.000754737
-0.000354024
0.000696088
-0.00031174
0.000645558
-0.000264413
0.000603052
-0.000212869
0.000568087
-0.00015772
0.000539778
-9.95967e-05
0.000516545
-3.94986e-05
0.000495691
2.07439e-05
0.000472829
7.80118e-05
0.000441226
0.00012716
0.000391495
0.000160745
0.000311383
0.000169017
0.000186393
0.000140046
1.47399e-06
6.36782e-05
-0.000261054
-6.77485e-05
-0.000614699
-0.000253798
-0.00107269
-0.000469718
-0.00164432
-0.00064525
-0.00230858
-0.000652186
-0.002927
-0.000377659
-0.00304482
-0.00176024
-0.000124288
0.00051777
-0.000272978
0.00098029
-0.000374213
0.00111895
-0.000420457
0.00110539
-0.000422483
0.00103005
-0.000393146
0.000936036
-0.000342724
0.000842363
-0.000278499
0.000756725
-0.000205364
0.000681603
-0.000126489
0.000617213
-4.38556e-05
0.000562925
4.13892e-05
0.000517807
0.000128658
0.000480819
0.000217707
0.000450729
0.000308332
0.00042592
0.00040001
0.000404014
0.000491401
0.000381438
0.000579686
0.000352941
0.000659941
0.00031124
0.000724464
0.00024686
0.00076244
0.000148417
0.000759787
4.12697e-06
0.000702062
-0.000203329
0.00057289
-0.000485527
0.000360978
-0.000860782
7.03021e-05
-0.00135365
-0.000252951
-0.00198532
-0.000474395
-0.00270556
-0.000385797
-0.00313341
-0.00214604
-0.000206484
0.000724254
-0.000370648
0.00114445
-0.000427832
0.00117613
-0.000402134
0.00107969
-0.000323215
0.000951133
-0.000213852
0.000826673
-8.87484e-05
0.000717258
4.31178e-05
0.000624859
0.000176565
0.000548156
0.000308751
0.000485026
0.000438316
0.00043336
0.000564809
0.000391314
0.000688346
0.000357282
0.00080932
0.000329755
0.00092813
0.000307109
0.00104482
0.000287322
0.00115861
0.000267646
0.00126728
0.00024427
0.00136649
0.000212033
0.00144904
0.000164316
0.00150414
9.33102e-05
0.00151715
-8.87695e-06
0.00147118
-0.000157364
0.00134547
-0.000359813
0.0011183
-0.000633619
0.000772413
-0.00100776
0.000320003
-0.00153291
-0.000131109
-0.00225445
-0.000317472
-0.00294705
-0.00246351
-0.000338386
0.00106264
-0.00042462
0.00123069
-0.00033365
0.00108516
-0.00015063
0.000896668
6.91251e-05
0.000731378
0.000297376
0.000598422
0.000520056
0.000494579
0.00073101
0.000413905
0.000928154
0.000351011
0.00111146
0.000301721
0.00128188
0.000262935
0.00144085
0.000232345
0.00158995
0.00020818
0.00173073
0.000188976
0.00186448
0.000173367
0.00199193
0.000159869
0.00211291
0.000146664
0.00222579
0.000131388
0.00232688
0.000110945
0.00240979
8.14087e-05
0.00246455
3.85535e-05
0.00247832
-2.26486e-05
0.00243147
-0.000110514
0.00230227
-0.000230613
0.00206335
-0.000394705
0.00168275
-0.000627152
0.00113151
-0.00098167
0.00046077
-0.00158371
-5.46251e-05
-0.00243166
-0.00251814
-0.000298725
0.00136136
-4.05841e-05
0.000972548
0.000394601
0.000649977
0.000819068
0.000472201
0.00120162
0.000348822
0.00153811
0.000261932
0.00183114
0.000201553
0.00208593
0.000159119
0.00230834
0.000128597
0.00250386
0.000106204
0.00267724
8.9553e-05
0.00283253
7.70532e-05
0.00297312
6.75906e-05
0.00310177
6.03307e-05
0.00322056
5.45721e-05
0.0033308
4.96256e-05
0.00343276
4.47112e-05
0.00352527
3.8878e-05
0.00360526
3.0953e-05
0.00366705
1.96175e-05
0.00370197
3.6314e-06
0.00370035
-2.10235e-05
0.00364368
-5.38438e-05
0.00351108
-9.80179e-05
0.00327496
-0.000158584
0.00289591
-0.000248102
0.00231485
-0.00040061
0.0014804
-0.000749262
0.000501688
-0.00145294
-0.00201645
0.00136136
0.00233391
0.00298389
0.00345609
0.00380491
0.00406685
0.0042684
0.00442752
0.00455611
0.00466232
0.00475187
0.00482892
0.00489652
0.00495685
0.00501142
0.00506104
0.00510575
0.00514463
0.00517559
0.0051952
0.00519883
0.00517781
0.00512397
0.00502595
0.00486737
0.00461926
0.00421865
0.00346939
0.00201645
)
;

boundaryField
{
    movingWall
    {
        type            calculated;
        value           uniform 0;
    }
    fixedWalls
    {
        type            calculated;
        value           uniform 0;
    }
    frontAndBack
    {
        type            empty;
        value           nonuniform 0();
    }
}


// ************************************************************************* //
