/*--------------------------------*- C++ -*----------------------------------*\
  =========                 |
  \\      /  F ield         | OpenFOAM: The Open Source CFD Toolbox
   \\    /   O peration     | Website:  https://openfoam.org
    \\  /    A nd           | Version:  7
     \\/     M anipulation  |
\*---------------------------------------------------------------------------*/
FoamFile
{
    version     2.0;
    format      ascii;
    class       volScalarField;
    location    "0.7";
    object      p;
}
// * * * * * * * * * * * * * * * * * * * * * * * * * * * * * * * * * * * * * //

dimensions      [0 2 -2 0 0 0 0];

internalField   nonuniform List<scalar> 
900
(
6.95037e-09
-0.000142257
-0.000175678
-0.000104183
7.7337e-05
0.000367716
0.00076028
0.00124883
0.0018259
0.00248442
0.00321566
0.00400968
0.00485627
0.0057442
0.00666128
0.00759465
0.00853098
0.00945638
0.0103566
0.0112174
0.0120252
0.0127659
0.0134261
0.0139942
0.014458
0.0148075
0.0150323
0.0151302
0.015107
0.0149607
0.000140918
-3.08687e-06
-1.5203e-05
7.06882e-05
0.000254587
0.000538929
0.000921123
0.00139593
0.0019574
0.00259851
0.00331108
0.00408526
0.00491116
0.00577783
0.00667324
0.00758476
0.0084993
0.00940321
0.0102824
0.0111229
0.0119115
0.012634
0.0132779
0.0138314
0.014284
0.0146267
0.0148537
0.0149663
0.0149652
0.0148171
0.000175199
4.01462e-06
-1.00948e-05
7.77449e-05
0.000261853
0.000545139
0.000925336
0.00139775
0.00195652
0.00259508
0.00330531
0.00407731
0.00490143
0.00576678
0.00666131
0.00757242
0.00848701
0.00939141
0.0102714
0.0111129
0.0119029
0.0126268
0.013272
0.0138268
0.0142807
0.014625
0.014854
0.0149694
0.0149661
0.0147888
0.000106211
-9.03078e-05
-0.000110737
-2.37701e-05
0.000161103
0.00044645
0.000829658
0.00130618
0.00187006
0.00251499
0.00323281
0.00401356
0.00484763
0.00572411
0.00663083
0.00755507
0.00848357
0.00940245
0.0102972
0.0111535
0.0119579
0.0126957
0.0133535
0.0139196
0.0143829
0.0147344
0.0149678
0.0150844
0.0150749
0.0148707
-7.62669e-05
-0.000291116
-0.000316937
-0.000230417
-4.29781e-05
0.000247705
0.000638706
0.00112542
0.00170175
0.00236142
0.00309622
0.00389602
0.00475114
0.00565052
0.0065818
0.00753198
0.00848751
0.00943413
0.0103569
0.011241
0.0120725
0.0128358
0.0135169
0.0141037
0.0145841
0.0149487
0.0151902
0.0153095
0.0152955
0.0150716
-0.000377345
-0.000607532
-0.000637795
-0.000550442
-0.000357967
-5.81263e-05
0.000345899
0.000849352
0.00144591
0.00212924
0.00289096
0.00372073
0.00460864
0.00554341
0.00651234
0.00750205
0.00849855
0.00948705
0.0104519
0.0113778
0.0122497
0.0130513
0.0137675
0.0143853
0.0148914
0.0152756
0.0155296
0.0156542
0.0156371
0.0153962
-0.000799836
-0.00104546
-0.00107956
-0.00098978
-0.000789463
-0.000476342
-5.38168e-05
0.000473145
0.00109796
0.00181409
0.00261296
0.00348392
0.00441671
0.00539972
0.00641984
0.00746318
0.00851517
0.00956035
0.0105823
0.0115646
0.0124914
0.0133449
0.0141088
0.0147687
0.0153101
0.0157213
0.0159931
0.0161258
0.0161067
0.0158478
-0.00134827
-0.0016112
-0.00164887
-0.001555
-0.00134386
-0.00101313
-0.000566424
-8.96206e-06
0.000652337
0.00141067
0.00225719
0.00318083
0.00417093
0.00521543
0.00630073
0.00741234
0.00853502
0.00965242
0.0107471
0.0118017
0.0127989
0.0137191
0.0145446
0.0152592
0.0158465
0.0162931
0.0165886
0.0167329
0.0167124
0.0164326
-0.0020296
-0.00231284
-0.00235412
-0.00225452
-0.00202949
-0.00167662
-0.00119979
-0.000604546
0.000101796
0.000912057
0.00181708
0.00280532
0.00386558
0.00498533
0.00615038
0.00734561
0.00855495
0.0097611
0.0109455
0.0120895
0.0131739
0.0141773
0.01508
0.0158634
0.0165087
0.0170006
0.0173266
0.0174863
0.017465
0.0171601
-0.00285309
-0.00316049
-0.0032057
-0.00309875
-0.0028566
-0.00247683
-0.00196362
-0.00132294
-0.000562598
0.000309755
0.00128457
0.00234979
0.00349361
0.00470294
0.005963
0.00725794
0.00857087
0.00988339
0.0111757
0.0124277
0.0136181
0.0147231
0.0157207
0.0165892
0.0173069
0.0178553
0.01822
0.0183996
0.0183781
0.0180428
-0.00383044
-0.00416655
-0.00421619
-0.00410024
-0.00383756
-0.00342579
-0.00286954
-0.0021753
-0.00135151
-0.000406383
0.000650071
0.0018052
0.00304654
0.00436041
0.00573143
0.007143
0.00857744
0.0100152
0.0114352
0.0128156
0.0141328
0.0153604
0.0164731
0.0174458
0.0182526
0.0188715
0.0192846
0.0194895
0.0194684
0.0190965
-0.0049759
-0.00534607
-0.00540079
-0.00527405
-0.00498712
-0.00453781
-0.00393132
-0.0031748
-0.00227746
-0.00124825
-9.76991e-05
0.00116088
0.00251433
0.00394835
0.00544698
0.00699295
0.00856785
0.010151
0.0117201
0.0132513
0.0147187
0.0160926
0.0173442
0.0184436
0.0193599
0.020066
0.0205396
0.0207766
0.0207567
0.0203406
-0.0063066
-0.00671706
-0.00677764
-0.0066381
-0.00632274
-0.00582972
-0.00516505
-0.00433675
-0.00335499
-0.00222958
-0.00097175
0.000404504
0.00188527
0.00345567
0.00509924
0.00679811
0.00853341
0.0102834
0.0120245
0.0137313
0.0153751
0.0169226
0.0183407
0.0195938
0.0206445
0.0214587
0.0220081
0.0222858
0.0222682
0.0217984
-0.00784288
-0.00830109
-0.00836841
-0.00821366
-0.00786501
-0.00732123
-0.00658944
-0.00567882
-0.00460072
-0.00336608
-0.00198692
-0.000478023
0.00114591
0.00286951
0.0046759
0.00654669
0.00846319
0.0104025
0.0123403
0.0142497
0.016099
0.0178514
0.0194687
0.0209082
0.022124
0.023073
0.0237179
0.0240475
0.0240338
0.0234981
-0.00960896
-0.010124
-0.010199
-0.010026
-0.00963817
-0.00903533
-0.00822613
-0.00722126
-0.00603357
-0.00467542
-0.00315984
-0.00150253
0.000281065
0.00217511
0.00416268
0.00622583
0.0083437
0.0104954
0.012656
0.0147969
0.0168843
0.0188774
0.0207325
0.0223982
0.0238179
0.0249358
0.0257025
0.0260992
0.0260917
0.0254737
-0.0116338
-0.012217
-0.0123006
-0.0121053
-0.0116708
-0.0109988
-0.0101
-0.00898706
-0.00767476
-0.00617726
-0.00450892
-0.00268644
-0.000726118
0.00135584
0.00354256
0.00581636
0.00815776
0.0105457
0.0129558
0.0153591
0.01772
0.0199946
0.0221329
0.0240735
0.0257462
0.0270783
0.0280022
0.0284873
0.0284894
0.0277669
-0.0139523
-0.0146182
-0.014711
-0.0144877
-0.0139969
-0.013243
-0.0122397
-0.0110022
-0.00954789
-0.00789314
-0.00605403
-0.0040485
-0.00189373
0.000393798
0.0027976
0.00530092
0.00788587
0.0105328
0.0132188
0.0159161
0.0185885
0.0211898
0.0236644
0.0259396
0.0279283
0.0295348
0.0306653
0.0312697
0.0312873
0.0304283
-0.0166075
-0.017375
-0.0174769
-0.0172172
-0.0166569
-0.0158046
-0.014678
-0.0132959
-0.0116789
-0.00984617
-0.00781613
-0.00560821
-0.00324059
-0.000729885
0.00190816
0.00465831
0.00750502
0.0104315
0.0134181
0.0164399
0.0194626
0.0224399
0.0253117
0.0279938
0.0303794
0.0323422
0.03375
0.0345204
0.0345639
0.0335208
-0.0196533
-0.0205478
-0.020657
-0.0203478
-0.0196994
-0.0187265
-0.0174524
-0.0159006
-0.0140957
-0.0120606
-0.00981658
-0.00738505
-0.00478534
-0.00203415
0.000853874
0.00386573
0.00698919
0.010212
0.0135197
0.016893
0.0203028
0.0237067
0.0270432
0.0302187
0.0331048
0.035536
0.0373246
0.0383346
0.0384247
0.0371243
-0.0231597
-0.0242153
-0.0243262
-0.0239469
-0.0231833
-0.0220594
-0.020606
-0.0188523
-0.016828
-0.014561
-0.0120761
-0.00939716
-0.00654506
-0.00353649
-0.000384693
0.00290024
0.00631058
0.00984016
0.0134823
0.0172266
0.0210539
0.0249313
0.0288029
0.0325713
0.0360885
0.0391417
0.041466
0.0428372
0.043017
0.0413442
-0.0272212
-0.0284841
-0.028583
-0.0280998
-0.0271809
-0.0258636
-0.0241879
-0.0221901
-0.0199066
-0.0173711
-0.014613
-0.0116596
-0.00853322
-0.00525082
-0.0018239
0.00174095
0.00544158
0.00927947
0.0132581
0.0173799
0.0216413
0.0260274
0.0304984
0.0349658
0.0392723
0.0431564
0.046251
0.0481919
0.0485568
0.0463355
-0.0319728
-0.0335032
-0.0335591
-0.0329158
-0.0317813
-0.0302103
-0.0282538
-0.0259563
-0.0233619
-0.0205119
-0.0174414
-0.0141816
-0.010757
-0.00718457
-0.00347396
0.000372208
0.00435814
0.00849409
0.0127957
0.0172816
0.0219702
0.0268744
0.031986
0.0372483
0.0425205
0.0475088
0.0517296
0.0546073
0.0553727
0.0523642
-0.037622
-0.0394887
-0.0394343
-0.038536
-0.0370944
-0.0351844
-0.0328665
-0.0301946
-0.027222
-0.0239987
-0.0205672
-0.0169632
-0.0132133
-0.00933466
-0.00533465
-0.00121166
0.00304515
0.00745486
0.0120462
0.0168559
0.0219287
0.0273149
0.033057
0.0391635
0.0455606
0.0519804
0.0578545
0.0623243
0.0639732
0.0599733
-0.0445181
-0.0467652
-0.0464561
-0.045142
-0.0432554
-0.0408845
-0.0380942
-0.0349468
-0.0315069
-0.0278351
-0.0239821
-0.0199883
-0.0158825
-0.0116809
-0.00738832
-0.00299876
0.00150481
0.00615029
0.0109765
0.0160375
0.0214044
0.0271688
0.0334392
0.0403277
0.0479065
0.0560673
0.0643168
0.0715263
0.0751357
0.0704029
-0.0533039
-0.0558269
-0.0549572
-0.0529591
-0.0504216
-0.0474162
-0.043998
-0.0402372
-0.0362116
-0.0319947
-0.0276457
-0.0232088
-0.0187127
-0.0141713
-0.00958542
-0.00494423
-0.000225033
0.00460847
0.00959696
0.0148077
0.0203301
0.0262885
0.0328548
0.0402655
0.0488221
0.0588022
0.0702098
0.0819918
0.089908
0.086422
-0.0652819
-0.0674249
-0.0653385
-0.0622176
-0.058722
-0.0548295
-0.050563
-0.0460008
-0.0412373
-0.0363588
-0.0314305
-0.0264956
-0.0215783
-0.0166854
-0.011811
-0.00693816
-0.0020392
0.00292444
0.00800654
0.0132559
0.0187738
0.0246928
0.0312145
0.0386662
0.0475933
0.0588956
0.0738172
0.0924786
0.109172
0.112874
-0.083488
-0.0826706
-0.0778999
-0.0729188
-0.0679903
-0.062838
-0.0574257
-0.0518393
-0.0461834
-0.0405462
-0.0349853
-0.0295312
-0.0241933
-0.0189646
-0.0138272
-0.00875534
-0.00371688
0.00132995
0.00644098
0.0116448
0.01704
0.02274
0.0289299
0.03596
0.0445534
0.0562965
0.0742818
0.101783
0.133489
0.156092
-0.115386
-0.102408
-0.0922924
-0.0841341
-0.0770058
-0.0701392
-0.0633302
-0.0566152
-0.0500612
-0.0437179
-0.0376071
-0.0317274
-0.0260618
-0.0205833
-0.0152593
-0.0100542
-0.00492988
0.000153294
0.00523387
0.0103918
0.0156673
0.0211703
0.0270858
0.0338101
0.0422714
0.0547205
0.0757541
0.114028
0.166342
0.231862
-0.1715
-0.121005
-0.104958
-0.0916171
-0.0816269
-0.0732502
-0.0655378
-0.0582279
-0.0512736
-0.0446614
-0.0383708
-0.0323711
-0.026626
-0.0210966
-0.0157435
-0.0105274
-0.0054088
-0.000347228
0.0047015
0.00979542
0.0150078
0.0204778
0.0264623
0.0335814
0.0432545
0.0589314
0.0875947
0.142751
0.227957
0.390742
-0.342812
-0.131414
-0.0884886
-0.0751564
-0.0674785
-0.0618539
-0.0568828
-0.0518361
-0.0465674
-0.0411709
-0.0357569
-0.0303954
-0.0251221
-0.0199495
-0.0148741
-0.0098809
-0.00494758
-4.50345e-05
0.00486178
0.00981571
0.0149077
0.0203115
0.0263763
0.0339418
0.0449478
0.0643451
0.102266
0.18454
0.338247
0.675609
)
;

boundaryField
{
    movingWall
    {
        type            zeroGradient;
    }
    fixedWalls
    {
        type            zeroGradient;
    }
    frontAndBack
    {
        type            empty;
    }
}


// ************************************************************************* //
