/*--------------------------------*- C++ -*----------------------------------*\
  =========                 |
  \\      /  F ield         | OpenFOAM: The Open Source CFD Toolbox
   \\    /   O peration     | Website:  https://openfoam.org
    \\  /    A nd           | Version:  7
     \\/     M anipulation  |
\*---------------------------------------------------------------------------*/
FoamFile
{
    version     2.0;
    format      ascii;
    class       surfaceScalarField;
    location    "0.7";
    object      phi;
}
// * * * * * * * * * * * * * * * * * * * * * * * * * * * * * * * * * * * * * //

dimensions      [0 3 -1 0 0 0 0];

internalField   nonuniform List<scalar> 
1740
(
-6.3333e-07
6.33324e-07
-3.21808e-06
2.58475e-06
-6.89392e-06
3.67584e-06
-1.0887e-05
3.9931e-06
-1.48655e-05
3.97843e-06
-1.86616e-05
3.79614e-06
-2.22182e-05
3.55662e-06
-2.5486e-05
3.26775e-06
-2.8432e-05
2.94604e-06
-3.10212e-05
2.5892e-06
-3.32183e-05
2.19712e-06
-3.49985e-05
1.78014e-06
-3.63387e-05
1.34022e-06
-3.72182e-05
8.79523e-07
-3.76217e-05
4.03447e-07
-3.75387e-05
-8.29697e-08
-3.69631e-05
-5.75598e-07
-3.58944e-05
-1.06868e-06
-3.434e-05
-1.55439e-06
-3.23115e-05
-2.02848e-06
-2.98235e-05
-2.48801e-06
-2.69057e-05
-2.91786e-06
-2.35902e-05
-3.31544e-06
-1.99088e-05
-3.68138e-06
-1.5918e-05
-3.99083e-06
-1.16856e-05
-4.23244e-06
-7.41403e-06
-4.27154e-06
-3.47382e-06
-3.9402e-06
-7.02153e-07
-2.77167e-06
-7.02156e-07
-2.60761e-06
3.24094e-06
-8.64929e-06
8.62643e-06
-1.64311e-05
1.14577e-05
-2.47849e-05
1.23469e-05
-3.31106e-05
1.23042e-05
-4.10904e-05
1.17759e-05
-4.85724e-05
1.10386e-05
-5.54429e-05
1.01382e-05
-6.16219e-05
9.12509e-06
-6.70325e-05
7.99983e-06
-7.1609e-05
6.77361e-06
-7.52958e-05
5.4669e-06
-7.80454e-05
4.08986e-06
-7.98198e-05
2.65389e-06
-8.05905e-05
1.17416e-06
-8.03394e-05
-3.34146e-07
-7.90581e-05
-1.85686e-06
-7.675e-05
-3.37682e-06
-7.34305e-05
-4.87379e-06
-6.91281e-05
-6.33092e-06
-6.3883e-05
-7.73313e-06
-5.7751e-05
-9.04987e-06
-5.08052e-05
-1.02612e-05
-4.31267e-05
-1.13599e-05
-3.48411e-05
-1.22765e-05
-2.61215e-05
-1.2952e-05
-1.73312e-05
-1.30618e-05
-9.12702e-06
-1.21444e-05
-2.75914e-06
-9.13955e-06
-3.4613e-06
-3.75953e-06
7.00046e-06
-1.17345e-05
1.66014e-05
-2.16683e-05
2.13915e-05
-3.22183e-05
2.28969e-05
-4.268e-05
2.27658e-05
-5.27073e-05
2.18032e-05
-6.20982e-05
2.04296e-05
-7.07222e-05
1.87621e-05
-7.84661e-05
1.6869e-05
-8.52385e-05
1.47723e-05
-9.09593e-05
1.24944e-05
-9.55573e-05
1.0065e-05
-9.89746e-05
7.50714e-06
-0.000101166
4.8449e-06
-0.000102097
2.10535e-06
-0.000101747
-6.84203e-07
-0.000100107
-3.49634e-06
-9.71842e-05
-6.29991e-06
-9.29972e-05
-9.06075e-06
-8.75822e-05
-1.1746e-05
-8.09939e-05
-1.43214e-05
-7.3302e-05
-1.67417e-05
-6.45936e-05
-1.89696e-05
-5.49871e-05
-2.09664e-05
-4.46258e-05
-2.26378e-05
-3.37383e-05
-2.38394e-05
-2.27097e-05
-2.40905e-05
-1.23039e-05
-2.25502e-05
-3.94463e-06
-1.74988e-05
-7.40593e-06
-4.29257e-06
1.1293e-05
-1.32896e-05
2.55984e-05
-2.4354e-05
3.24559e-05
-3.60221e-05
3.4565e-05
-4.75464e-05
3.42902e-05
-5.85783e-05
3.2835e-05
-6.89021e-05
3.07534e-05
-7.83796e-05
2.82396e-05
-8.68861e-05
2.53755e-05
-9.43214e-05
2.22076e-05
-0.000100599
1.87724e-05
-0.000105643
1.51087e-05
-0.00010939
1.12541e-05
-0.000111792
7.24638e-06
-0.000112811
3.12495e-06
-0.000112426
-1.06979e-06
-0.000110626
-5.29589e-06
-0.000107418
-9.50757e-06
-0.000102823
-1.36559e-05
-9.68789e-05
-1.76904e-05
-8.96442e-05
-2.15561e-05
-8.11938e-05
-2.51921e-05
-7.16229e-05
-2.85404e-05
-6.10631e-05
-3.15263e-05
-4.96662e-05
-3.40347e-05
-3.76783e-05
-3.58273e-05
-2.54871e-05
-3.62816e-05
-1.39071e-05
-3.41302e-05
-4.48857e-06
-2.69174e-05
-1.18945e-05
-4.58035e-06
1.58734e-05
-1.42068e-05
3.52249e-05
-2.60013e-05
4.42504e-05
-3.83959e-05
4.69597e-05
-5.06092e-05
4.65035e-05
-6.22867e-05
4.45125e-05
-7.32074e-05
4.1674e-05
-8.32286e-05
3.82609e-05
-9.22218e-05
3.43686e-05
-0.000100082
3.0068e-05
-0.00010672
2.54103e-05
-0.000112057
2.04455e-05
-0.000116028
1.52252e-05
-0.000118583
9.80104e-06
-0.000119683
4.22492e-06
-0.000119303
-1.44956e-06
-0.000117432
-7.16636e-06
-0.000114075
-1.28649e-05
-0.000109249
-1.84814e-05
-0.000102993
-2.39471e-05
-9.53628e-05
-2.91861e-05
-8.64345e-05
-3.41204e-05
-7.63064e-05
-3.86686e-05
-6.51138e-05
-4.27189e-05
-5.30142e-05
-4.61343e-05
-4.0264e-05
-4.85775e-05
-2.72658e-05
-4.92798e-05
-1.48838e-05
-4.65122e-05
-4.788e-06
-3.70132e-05
-1.66825e-05
-4.81729e-06
2.06907e-05
-1.4987e-05
4.53946e-05
-2.74468e-05
5.67102e-05
-4.05227e-05
6.00355e-05
-5.33919e-05
5.93727e-05
-6.56829e-05
5.68036e-05
-7.71695e-05
5.31606e-05
-8.77043e-05
4.87956e-05
-9.71567e-05
4.38211e-05
-0.000105419
3.83304e-05
-0.0001124
3.23913e-05
-0.000118021
2.60658e-05
-0.000122215
1.94195e-05
-0.000124931
1.2517e-05
-0.000126128
5.42259e-06
-0.00012578
-1.7976e-06
-0.000123872
-9.07434e-06
-0.000120404
-1.63331e-05
-0.000115391
-2.34949e-05
-0.000108865
-3.04731e-05
-0.00010088
-3.71711e-05
-9.15089e-05
-4.34913e-05
-8.0851e-05
-4.93264e-05
-6.90419e-05
-5.45279e-05
-5.62462e-05
-5.89301e-05
-4.27321e-05
-6.20916e-05
-2.89329e-05
-6.30791e-05
-1.57736e-05
-5.96715e-05
-5.05449e-06
-4.77323e-05
-2.1737e-05
-5.08391e-06
2.57746e-05
-1.58542e-05
5.61649e-05
-2.90634e-05
6.99195e-05
-4.29193e-05
7.38913e-05
-5.65464e-05
7.29998e-05
-6.95476e-05
6.98048e-05
-8.16879e-05
6.53009e-05
-9.28137e-05
5.99215e-05
-0.000102793
5.38003e-05
-0.000111516
4.70536e-05
-0.000118891
3.97663e-05
-0.000124839
3.20137e-05
-0.000129294
2.38748e-05
-0.000132204
1.54264e-05
-0.000133525
6.74421e-06
-0.000133229
-2.09399e-06
-0.000131296
-1.10075e-05
-0.00012772
-1.99089e-05
-0.00012251
-2.87047e-05
-0.000115693
-3.72907e-05
-0.000107314
-4.55495e-05
-9.74433e-05
-5.33622e-05
-8.61774e-05
-6.05923e-05
-7.36521e-05
-6.70533e-05
-6.00408e-05
-7.25414e-05
-4.56278e-05
-7.65046e-05
-3.08875e-05
-7.78193e-05
-1.68202e-05
-7.37388e-05
-5.37613e-06
-5.91763e-05
-2.71131e-05
-5.41106e-06
3.11857e-05
-1.69002e-05
6.7654e-05
-3.10051e-05
8.40244e-05
-4.57965e-05
8.86827e-05
-6.03338e-05
8.75371e-05
-7.41873e-05
8.36584e-05
-8.71096e-05
7.82232e-05
-9.89397e-05
7.17516e-05
-0.000109544
6.44049e-05
-0.000118813
5.63221e-05
-0.000126654
4.76075e-05
-0.00013299
3.83497e-05
-0.000137756
2.86409e-05
-0.000140899
1.85692e-05
-0.000142375
8.22026e-06
-0.00014215
-2.31847e-06
-0.000140201
-1.29569e-05
-0.000136513
-2.35965e-05
-0.000131087
-3.41308e-05
-0.000123939
-4.44386e-05
-0.000115107
-5.43821e-05
-0.00010465
-6.38186e-05
-9.26635e-05
-7.25791e-05
-7.92812e-05
-8.04355e-05
-6.46871e-05
-8.71355e-05
-4.91858e-05
-9.20059e-05
-3.33013e-05
-9.37038e-05
-1.81252e-05
-8.89149e-05
-5.78613e-06
-7.15154e-05
-3.28993e-05
-5.81335e-06
3.6999e-05
-1.81714e-05
8.00121e-05
-3.33503e-05
9.92032e-05
-4.926e-05
0.000104592
-6.48818e-05
0.000103159
-7.97474e-05
9.8524e-05
-9.35942e-05
9.20699e-05
-0.000106253
8.44107e-05
-0.00011759
7.5742e-05
-0.000127496
6.62273e-05
-0.00013588
5.59914e-05
-0.000142668
4.5138e-05
-0.000147798
3.37711e-05
-0.000151218
2.19888e-05
-0.000152882
9.88478e-06
-0.000152754
-2.44668e-06
-0.000150802
-1.49093e-05
-0.000147002
-2.73959e-05
-0.000141344
-3.97894e-05
-0.000133829
-5.19534e-05
-0.000124481
-6.373e-05
-0.000113349
-7.49509e-05
-0.000100518
-8.54097e-05
-8.61213e-05
-9.48324e-05
-7.03523e-05
-0.000102904
-5.35406e-05
-0.000108818
-3.6269e-05
-0.000110975
-1.97406e-05
-0.000105443
-6.2992e-06
-8.49569e-05
-3.91984e-05
-6.30237e-06
4.33014e-05
-1.97037e-05
9.34135e-05
-3.616e-05
0.000115659
-5.33916e-05
0.000121824
-7.02877e-05
0.000120055
-8.63363e-05
0.000114573
-0.000101257
0.000106991
-0.000114874
9.80275e-05
-0.000127052
8.79202e-05
-0.000137685
7.68597e-05
-0.000146687
6.49939e-05
-0.000153991
5.24417e-05
-0.000159538
3.93185e-05
-0.00016328
2.57303e-05
-0.000165171
1.17756e-05
-0.000165169
-2.44794e-06
-0.000163236
-1.68425e-05
-0.000159336
-3.12963e-05
-0.00015344
-4.5685e-05
-0.000145533
-5.986e-05
-0.000135619
-7.36448e-05
-0.000123726
-8.68437e-05
-0.000109927
-9.92084e-05
-9.43479e-05
-0.000110412
-7.71916e-05
-0.000120061
-5.88166e-05
-0.000127193
-3.98762e-05
-0.000129916
-2.17114e-05
-0.000123608
-6.92771e-06
-9.97406e-05
-4.61262e-05
-6.88966e-06
5.0191e-05
-2.15331e-05
0.000108057
-3.9497e-05
0.000133623
-5.8277e-05
0.000140604
-7.66544e-05
0.000138432
-9.40682e-05
0.000131987
-0.000110219
0.000123142
-0.000124923
0.000112732
-0.000138049
0.000101046
-0.000149495
8.83059e-05
-0.000159187
7.46855e-05
-0.000167065
6.03199e-05
-0.00017308
4.53341e-05
-0.000177189
2.98392e-05
-0.000179348
1.39348e-05
-0.000179513
-2.28353e-06
-0.000177633
-1.87227e-05
-0.000173657
-3.52715e-05
-0.000167538
-5.18044e-05
-0.000159233
-6.81652e-05
-0.000148716
-8.41616e-05
-0.00013599
-9.95697e-05
-0.000121104
-0.000114095
-0.000104168
-0.000127347
-8.53918e-05
-0.000138837
-6.5166e-05
-0.000147418
-4.42294e-05
-0.000150852
-2.40946e-05
-0.000143743
-7.68843e-06
-0.000116147
-5.38146e-05
-7.58863e-06
5.77797e-05
-2.37017e-05
0.00012417
-4.34361e-05
0.000153358
-6.40191e-05
0.000161187
-8.41056e-05
0.000158519
-0.000103079
0.00015096
-0.00012062
0.000140682
-0.00013654
0.000128652
-0.000150713
0.000115219
-0.000163052
0.000100644
-0.000173495
8.51283e-05
-0.000181998
6.88238e-05
-0.000188528
5.18637e-05
-0.000193049
3.43601e-05
-0.000195522
1.64079e-05
-0.0001959
-1.90518e-06
-0.000194122
-2.05008e-05
-0.000190119
-3.92749e-05
-0.000183814
-5.81096e-05
-0.000175131
-7.68484e-05
-0.000164004
-9.52886e-05
-0.000150394
-0.00011318
-0.000134312
-0.000130176
-0.000115844
-0.000145815
-9.51948e-05
-0.000159486
-7.27907e-05
-0.000169823
-4.94732e-05
-0.00017417
-2.69703e-05
-0.000166246
-8.60594e-06
-0.000134511
-6.24205e-05
-8.41707e-06
6.61967e-05
-2.62645e-05
0.000142017
-4.80726e-05
0.000175166
-7.07482e-05
0.000183863
-9.27959e-05
0.000180566
-0.000113537
0.000171701
-0.000132631
0.000159776
-0.00014989
0.00014591
-0.000165201
0.000130531
-0.000178496
0.000113939
-0.000189738
9.63698e-05
-0.000198906
7.79921e-05
-0.000205986
5.89441e-05
-0.00021096
3.93337e-05
-0.000213796
1.9244e-05
-0.000214448
-1.25365e-06
-0.00021284
-2.21087e-05
-0.000208882
-4.32329e-05
-0.000202462
-6.45287e-05
-0.00019346
-8.58508e-05
-0.000181754
-0.000106995
-0.000167244
-0.000127689
-0.000149885
-0.000147535
-0.000129714
-0.000165986
-0.00010692
-0.00018228
-8.19629e-05
-0.00019478
-5.58071e-05
-0.000200326
-3.04508e-05
-0.000191602
-9.71548e-06
-0.000155246
-7.2136e-05
-9.39947e-06
7.55962e-05
-2.92952e-05
0.000161913
-5.3533e-05
0.000199404
-7.86335e-05
0.000208963
-0.000102923
0.000204856
-0.000125652
0.00019443
-0.000146462
0.000180586
-0.000165171
0.00016462
-0.000181692
0.000147051
-0.000195986
0.000128233
-0.000208051
0.000108435
-0.000217903
8.78436e-05
-0.000225556
6.65975e-05
-0.000231016
4.47935e-05
-0.000234265
2.2493e-05
-0.000235262
-2.57288e-07
-0.000233914
-2.3456e-05
-0.000230109
-4.7038e-05
-0.000223692
-7.09454e-05
-0.000214483
-9.50605e-05
-0.000202285
-0.000119193
-0.000186915
-0.000143059
-0.000168238
-0.000166212
-0.000146215
-0.000188009
-0.000120993
-0.000207503
-9.30532e-05
-0.000222719
-6.35071e-05
-0.000229872
-3.46937e-05
-0.000220415
-1.10664e-05
-0.000178874
-8.32024e-05
-1.057e-05
8.61662e-05
-3.2895e-05
0.000184238
-5.99872e-05
0.000226496
-8.78984e-05
0.000236874
-0.000114742
0.000231699
-0.00013969
0.000219379
-0.000162371
0.000203267
-0.000182623
0.000184871
-0.000200395
0.000164823
-0.000215697
0.000143536
-0.000228579
0.000121317
-0.000239103
9.83682e-05
-0.00024733
7.48241e-05
-0.000253296
5.07601e-05
-0.000257007
2.62034e-05
-0.00025843
1.1661e-06
-0.000257461
-2.44257e-05
-0.000253959
-5.05397e-05
-0.000247719
-7.71849e-05
-0.000238486
-0.000104293
-0.000225967
-0.000131712
-0.000209859
-0.000159167
-0.000189899
-0.000186172
-0.00016592
-0.000211987
-0.000137984
-0.00023544
-0.000106572
-0.00025413
-7.29606e-05
-0.000263484
-3.9922e-05
-0.000253454
-1.27281e-05
-0.000206068
-9.59305e-05
-1.19773e-05
9.81435e-05
-3.72049e-05
0.000209466
-6.76674e-05
0.000256958
-9.88421e-05
0.000268049
-0.000128588
0.000261445
-0.000155993
0.000246784
-0.000180682
0.000227956
-0.000202531
0.000206721
-0.000221551
0.000183843
-0.000237822
0.000159807
-0.000251465
0.00013496
-0.000262611
0.000109514
-0.000271379
8.35914e-05
-0.000277853
5.7234e-05
-0.000282071
3.04219e-05
-0.000284003
3.09814e-06
-0.000283563
-2.4866e-05
-0.000280566
-5.35363e-05
-0.000274753
-8.29985e-05
-0.000265777
-0.000113269
-0.000253221
-0.000144269
-0.000236622
-0.000175766
-0.000215528
-0.000207266
-0.000189578
-0.000237938
-0.00015867
-0.000266347
-0.000123237
-0.000289564
-8.47247e-05
-0.000301996
-4.64609e-05
-0.000291718
-1.48009e-05
-0.000237728
-0.000110731
-1.36916e-05
0.000111835
-4.24253e-05
0.000238199
-7.68962e-05
0.000291429
-0.00011187
0.000303023
-0.000144901
0.000294477
-0.000174995
0.000276878
-0.000201794
0.000254755
-0.000225241
0.000230168
-0.00024544
0.000204042
-0.000262572
0.000176939
-0.000276855
0.000149244
-0.000288514
0.000121173
-0.000297743
9.28209e-05
-0.000304693
6.41831e-05
-0.000309444
3.51732e-05
-0.000311994
5.64849e-06
-0.000312257
-2.46032e-05
-0.000310025
-5.57684e-05
-0.000304976
-8.80475e-05
-0.000296662
-0.000121583
-0.00028451
-0.00015642
-0.000267849
-0.000192427
-0.000245959
-0.000229155
-0.000218179
-0.000265718
-0.000184126
-0.0003004
-0.000144075
-0.000329615
-9.96255e-05
-0.000346445
-5.48037e-05
-0.00033654
-1.7438e-05
-0.000275093
-0.000128169
-1.58172e-05
0.000127652
-4.88452e-05
0.000271227
-8.81274e-05
0.000330711
-0.000127536
0.000342431
-0.000164271
0.000331212
-0.000197263
0.00030987
-0.00022621
0.000283702
-0.00025117
0.000255127
-0.000272381
0.000225253
-0.000290168
0.000194726
-0.000304884
0.000163959
-0.000316868
0.000133157
-0.000326419
0.000102372
-0.000333767
7.15312e-05
-0.000339057
4.04623e-05
-0.000342325
8.91658e-06
-0.000343497
-2.34306e-05
-0.000342352
-5.69132e-05
-0.000338512
-9.18877e-05
-0.000331419
-0.000128677
-0.000320322
-0.000167518
-0.000304284
-0.000208464
-0.000282226
-0.000251214
-0.000253033
-0.00029491
-0.000215851
-0.000337583
-0.0001706
-0.000374865
-0.000118932
-0.000398114
-6.57357e-05
-0.000389736
-2.08883e-05
-0.000319941
-0.000149058
-1.85135e-05
0.000146166
-5.68923e-05
0.000309606
-0.00010201
0.000375829
-0.000146608
0.000387029
-0.000187482
0.000372086
-0.000223525
0.000345912
-0.000254555
0.000314733
-0.000280812
0.000281384
-0.000302736
0.000247177
-0.000320844
0.000212834
-0.000335663
0.000178778
-0.000347687
0.000145181
-0.000357338
0.000112023
-0.000364948
7.91416e-05
-0.000370741
4.62555e-05
-0.000374814
1.29889e-05
-0.000377122
-2.11221e-05
-0.000377449
-5.65865e-05
-0.000375376
-9.39599e-05
-0.000370247
-0.000133806
-0.000361122
-0.000176643
-0.000346753
-0.000222834
-0.000325587
-0.00027238
-0.000295866
-0.000324631
-0.000255961
-0.000377488
-0.000205082
-0.000425745
-0.000144663
-0.000458533
-8.05758e-05
-0.000453823
-2.55925e-05
-0.000374924
-0.00017465
-2.20347e-05
0.000168201
-6.72166e-05
0.000354788
-0.000119491
0.000428104
-0.000170162
0.0004377
-0.000215594
0.000417517
-0.000254725
0.000385043
-0.000287604
0.000347611
-0.000314753
0.000308533
-0.000336899
0.000269323
-0.000354819
0.000230754
-0.000369265
0.000193224
-0.000380914
0.00015683
-0.000390339
0.000121449
-0.000397995
8.67971e-05
-0.000404201
5.24621e-05
-0.000409133
1.79205e-05
-0.000412804
-1.74507e-05
-0.000415032
-5.43585e-05
-0.000415397
-9.35957e-05
-0.000413174
-0.000136028
-0.00040726
-0.000182558
-0.000396077
-0.000234016
-0.000377504
-0.000290952
-0.000348901
-0.000353234
-0.000307435
-0.000418954
-0.000250982
-0.000482198
-0.000180141
-0.000529374
-0.000101661
-0.000532303
-3.24046e-05
-0.000444181
-0.000207055
-2.68067e-05
0.000195007
-8.08345e-05
0.000408816
-0.00014197
0.000489239
-0.00019971
0.00049544
-0.000250026
0.000467833
-0.000292067
0.000427084
-0.00032629
0.000381834
-0.000353649
0.000335893
-0.000375269
0.000290943
-0.000392267
0.000247753
-0.00040567
0.000206628
-0.000416373
0.000167533
-0.00042512
0.000130195
-0.0004325
9.41774e-05
-0.000438947
5.89091e-05
-0.000444734
2.37071e-05
-0.000449962
-1.22226e-05
-0.000454529
-4.97916e-05
-0.000458072
-9.00522e-05
-0.00045988
-0.00013422
-0.00045876
-0.000183678
-0.000452861
-0.000239915
-0.000439461
-0.000304351
-0.000414816
-0.00037788
-0.000374329
-0.000459441
-0.000313534
-0.000542992
-0.000230898
-0.00061201
-0.000133291
-0.00062991
-4.31047e-05
-0.000534367
-0.000250159
-3.35788e-05
0.000228586
-9.93796e-05
0.000474617
-0.000171541
0.000561401
-0.00023737
0.000561269
-0.000292637
0.0005231
-0.00033702
0.000471467
-0.000371653
0.000416467
-0.000398132
0.000362371
-0.00041812
0.000310931
-0.000433163
0.000262796
-0.000444613
0.000218077
-0.000453604
0.000176523
-0.00046106
0.000137651
-0.00046771
0.000100827
-0.000474106
6.53056e-05
-0.000480636
3.02372e-05
-0.00048752
-5.33882e-06
-0.000494794
-4.25179e-05
-0.000502241
-8.26046e-05
-0.000509289
-0.000127173
-0.000514822
-0.000178145
-0.000516901
-0.000237836
-0.000512336
-0.000308917
-0.000496197
-0.000394019
-0.000461547
-0.00049409
-0.000400123
-0.000604417
-0.000305826
-0.000706308
-0.000183315
-0.000752421
-6.14866e-05
-0.000656195
-0.000311646
-4.37315e-05
0.000272318
-0.000125521
0.000556406
-0.000211301
0.000647181
-0.000285981
0.000635948
-0.000345659
0.000582779
-0.000391084
0.000516892
-0.000424482
0.000449865
-0.000448359
0.000386249
-0.000465084
0.000327656
-0.000476718
0.00027443
-0.00048497
0.000226329
-0.000491219
0.000182772
-0.000496553
0.000142986
-0.000501825
0.000106099
-0.000507694
7.11745e-05
-0.000514664
3.72076e-05
-0.000523092
3.0886e-06
-0.000533219
-3.23905e-05
-0.000545078
-7.07459e-05
-0.000558409
-0.000113841
-0.000572447
-0.000164106
-0.000585534
-0.00022475
-0.000594442
-0.000300009
-0.000593376
-0.000395085
-0.000572791
-0.000514675
-0.00051895
-0.000658258
-0.000417277
-0.000807981
-0.000264781
-0.000904917
-9.51963e-05
-0.000825781
-0.000406842
-5.98763e-05
0.000332194
-0.000163564
0.000660094
-0.000265521
0.000749138
-0.00034875
0.000719177
-0.000410853
0.000644882
-0.000454553
0.000560592
-0.000483746
0.000479057
-0.00050219
0.000404693
-0.000513131
0.000338597
-0.000519204
0.000280503
-0.000522472
0.000229597
-0.000524513
0.000184813
-0.000526529
0.000145002
-0.000529441
0.000109011
-0.000533972
7.57055e-05
-0.000540714
4.39498e-05
-0.000550162
1.25368e-05
-0.000562779
-1.97738e-05
-0.000578952
-5.45725e-05
-0.00059892
-9.38739e-05
-0.000622596
-0.00014043
-0.00064916
-0.000198186
-0.000676183
-0.000272987
-0.000698027
-0.00037324
-0.000703244
-0.000509457
-0.000671681
-0.000689821
-0.000575529
-0.000904133
-0.000394244
-0.0010862
-0.000157268
-0.00106276
-0.00056411
-8.69164e-05
0.00041911
-0.000219868
0.000793046
-0.000338583
0.000867852
-0.000426659
0.000807253
-0.00048559
0.000703813
-0.000521496
0.000596499
-0.000540721
0.000498282
-0.000548656
0.000412628
-0.000549542
0.000339482
-0.000546558
0.000277519
-0.000542012
0.000225051
-0.000537552
0.000180354
-0.00053436
0.00014181
-0.000533305
0.000107956
-0.000535072
7.74726e-05
-0.000540259
4.91369e-05
-0.000549445
2.17227e-05
-0.000563222
-5.99653e-06
-0.000582409
-3.53858e-05
-0.000607802
-6.8481e-05
-0.000640242
-0.000107989
-0.000680304
-0.000158125
-0.000727443
-0.000225848
-0.000778014
-0.000322669
-0.000821162
-0.000466309
-0.000832209
-0.000678774
-0.000767743
-0.000968599
-0.000577134
-0.00127681
-0.000262304
-0.00137759
-0.000826414
-0.000133577
0.000552687
-0.000301153
0.000960623
-0.000428453
0.000995152
-0.000507627
0.000886427
-0.000548554
0.000744739
-0.000562901
0.000610847
-0.000560363
0.000495744
-0.000548164
0.000400429
-0.000531369
0.000322688
-0.000513369
0.000259519
-0.000496351
0.000208033
-0.000481692
0.000165695
-0.000470262
0.000130379
-0.000462639
0.000100333
-0.000459273
7.41065e-05
-0.000460596
5.04597e-05
-0.00046714
2.82669e-05
-0.000479388
6.25108e-06
-0.000498512
-1.62616e-05
-0.000525679
-4.13137e-05
-0.000562561
-7.11077e-05
-0.000611242
-0.000109443
-0.000673773
-0.000163317
-0.000750506
-0.000245936
-0.000835508
-0.000381307
-0.000906973
-0.000607308
-0.000912993
-0.00096258
-0.000766778
-0.00142302
-0.00040611
-0.00173825
-0.00123252
-0.000213837
0.000766524
-0.000402236
0.00114902
-0.000500376
0.00109329
-0.000530158
0.000916209
-0.000517289
0.00073187
-0.000481198
0.000574756
-0.000434785
0.000449331
-0.000386039
0.000351682
-0.000339568
0.000276217
-0.000297795
0.000217746
-0.000261827
0.000172065
-0.000232039
0.000135907
-0.000208443
0.000106783
-0.000190924
8.28139e-05
-0.000179375
6.25573e-05
-0.000173797
4.48816e-05
-0.000174366
2.88365e-05
-0.000181642
1.35267e-05
-0.000196078
-1.82556e-06
-0.000219226
-1.81658e-05
-0.000252923
-3.74102e-05
-0.000300086
-6.22803e-05
-0.000364866
-9.85374e-05
-0.000452329
-0.000158474
-0.000565753
-0.000267884
-0.00069761
-0.000475451
-0.00081303
-0.00084716
-0.000805347
-0.00143071
-0.000528963
-0.00201464
-0.00176149
-0.000336288
0.00110281
-0.000440192
0.00125293
-0.000398097
0.0010512
-0.000286717
0.000804829
-0.000154738
0.000599891
-2.46458e-05
0.000444664
9.3614e-05
0.000331071
0.0001964
0.000248896
0.000283308
0.000189309
0.000355432
0.000145622
0.000414417
0.00011308
0.000461963
8.83615e-05
0.000499591
6.91554e-05
0.000528558
5.38472e-05
0.000549815
4.12996e-05
0.000564016
3.06809e-05
0.000571505
2.13477e-05
0.000572266
1.27649e-05
0.000566013
4.42758e-06
0.000551972
-4.12465e-06
0.000528633
-1.40712e-05
0.000493269
-2.69165e-05
0.000441074
-4.6342e-05
0.000363502
-8.0902e-05
0.00024598
-0.000150361
7.01474e-05
-0.000299618
-0.000162367
-0.000614646
-0.000397109
-0.00119597
-0.000431515
-0.00198023
-0.002193
-0.000280375
0.00138319
-2.11073e-05
0.000993658
0.000384411
0.000645679
0.000745202
0.000444037
0.00104139
0.000303699
0.00127854
0.000207521
0.00146581
0.000143794
0.00161281
0.000101897
0.00172812
7.40041e-05
0.00181872
5.50248e-05
0.00189004
4.1759e-05
0.0019462
3.21925e-05
0.00199031
2.50547e-05
0.00202461
1.95402e-05
0.00205078
1.51331e-05
0.00206997
1.14881e-05
0.00208296
8.35743e-06
0.00209018
5.54827e-06
0.00209169
2.91242e-06
0.00208722
3.54057e-07
0.00207607
-2.92202e-06
0.00205611
-6.96254e-06
0.00202318
-1.34103e-05
0.00196824
-2.59599e-05
0.00187126
-5.33841e-05
0.00169175
-0.000120102
0.00135794
-0.000280842
0.000819742
-0.000657767
0.000224779
-0.00138527
-0.00196822
0.00138319
0.00237685
0.00302252
0.00346656
0.00377026
0.00397778
0.00412158
0.00422347
0.00429748
0.0043525
0.00439426
0.00442645
0.00445151
0.00447105
0.00448618
0.00449767
0.00450603
0.00451157
0.00451449
0.00451484
0.00451192
0.00450496
0.00449155
0.00446559
0.0044122
0.0042921
0.00401126
0.00335349
0.00196822
)
;

boundaryField
{
    movingWall
    {
        type            calculated;
        value           uniform 0;
    }
    fixedWalls
    {
        type            calculated;
        value           uniform 0;
    }
    frontAndBack
    {
        type            empty;
        value           nonuniform 0();
    }
}


// ************************************************************************* //
