/*--------------------------------*- C++ -*----------------------------------*\
  =========                 |
  \\      /  F ield         | OpenFOAM: The Open Source CFD Toolbox
   \\    /   O peration     | Website:  https://openfoam.org
    \\  /    A nd           | Version:  7
     \\/     M anipulation  |
\*---------------------------------------------------------------------------*/
FoamFile
{
    version     2.0;
    format      ascii;
    class       volVectorField;
    location    "0.7";
    object      U;
}
// * * * * * * * * * * * * * * * * * * * * * * * * * * * * * * * * * * * * * //

dimensions      [0 1 -1 0 0 0 0];

internalField   nonuniform List<vector> 
900
(
(1.05874e-05 4.05606e-07 0)
(-0.000261828 0.000129525 0)
(-0.000809439 0.000206058 0)
(-0.00148802 0.000226442 0)
(-0.00214216 0.000225473 0)
(-0.00280678 0.000214104 0)
(-0.00341206 0.000200505 0)
(-0.00398763 0.000184361 0)
(-0.00450467 0.000166709 0)
(-0.00496647 0.000147132 0)
(-0.00536725 0.000125328 0)
(-0.0056993 0.000102209 0)
(-0.00595982 7.77726e-05 0)
(-0.00614536 5.20028e-05 0)
(-0.00625269 2.52457e-05 0)
(-0.00627963 -2.19697e-06 0)
(-0.00622472 -3.01441e-05 0)
(-0.00608743 -5.82365e-05 0)
(-0.00586872 -8.59178e-05 0)
(-0.00557005 -0.000113053 0)
(-0.00519172 -0.000139651 0)
(-0.00474056 -0.000164398 0)
(-0.00422285 -0.000187428 0)
(-0.00363135 -0.000209123 0)
(-0.00300147 -0.00022778 0)
(-0.00229589 -0.000243619 0)
(-0.00160017 -0.000246315 0)
(-0.000870598 -0.000224836 0)
(-0.000287387 -0.000142201 0)
(9.77882e-06 -4.50194e-06 0)
(-9.9784e-05 0.000250509 0)
(-0.000846555 0.000808063 0)
(-0.00201672 0.00111398 0)
(-0.00345463 0.00120699 0)
(-0.00481358 0.00120365 0)
(-0.00621517 0.00115031 0)
(-0.00748337 0.00107827 0)
(-0.00869736 0.00099061 0)
(-0.00978255 0.000892618 0)
(-0.0107491 0.000783788 0)
(-0.0115862 0.000664596 0)
(-0.0122762 0.00053772 0)
(-0.0128136 0.000403918 0)
(-0.0131918 0.000264032 0)
(-0.0134048 0.000119632 0)
(-0.0134485 -2.77711e-05 0)
(-0.0133206 -0.000176857 0)
(-0.0130208 -0.000325915 0)
(-0.0125517 -0.000472744 0)
(-0.0119163 -0.000615905 0)
(-0.0111154 -0.000754262 0)
(-0.0101662 -0.000883887 0)
(-0.0090809 -0.00100345 0)
(-0.00784029 -0.00111296 0)
(-0.00653555 -0.00120479 0)
(-0.00506677 -0.00127474 0)
(-0.00364714 -0.00128511 0)
(-0.00212364 -0.00118842 0)
(-0.000899672 -0.000861832 0)
(-0.000102092 -0.000272132 0)
(-0.000163623 0.000826035 0)
(-0.00118742 0.00204625 0)
(-0.00269187 0.00267274 0)
(-0.00452106 0.00287101 0)
(-0.00622631 0.00285878 0)
(-0.00799126 0.00273751 0)
(-0.00958121 0.0025658 0)
(-0.0111069 0.00235652 0)
(-0.0124675 0.00211986 0)
(-0.0136782 0.00185742 0)
(-0.0147256 0.00157186 0)
(-0.0155873 0.0012674 0)
(-0.0162564 0.000946674 0)
(-0.0167253 0.000612549 0)
(-0.0169866 0.000268506 0)
(-0.0170355 -8.19901e-05 0)
(-0.0168693 -0.000435529 0)
(-0.0164882 -0.000788198 0)
(-0.0158955 -0.0011355 0)
(-0.015095 -0.00147339 0)
(-0.0140878 -0.00179793 0)
(-0.0128964 -0.00210276 0)
(-0.0115358 -0.00238329 0)
(-0.00997986 -0.00263617 0)
(-0.00835127 -0.00284727 0)
(-0.00651129 -0.00300052 0)
(-0.00474306 -0.00302799 0)
(-0.0028161 -0.00282427 0)
(-0.00125336 -0.00216159 0)
(-0.000165354 -0.000877194 0)
(-0.000188913 0.00151248 0)
(-0.00135288 0.00349083 0)
(-0.00303724 0.00445745 0)
(-0.00506816 0.00475877 0)
(-0.00694744 0.00472664 0)
(-0.00889139 0.0045268 0)
(-0.0106389 0.00424092 0)
(-0.0123164 0.00389454 0)
(-0.0138113 0.00350054 0)
(-0.0151407 0.00306441 0)
(-0.0162905 0.00259107 0)
(-0.0172359 0.00208617 0)
(-0.0179698 0.00155473 0)
(-0.0184837 0.00100192 0)
(-0.01877 0.000433283 0)
(-0.0188233 -0.000145575 0)
(-0.0186409 -0.000728886 0)
(-0.0182227 -0.00131026 0)
(-0.0175722 -0.00188277 0)
(-0.0166936 -0.00243945 0)
(-0.0155877 -0.00297296 0)
(-0.0142792 -0.00347453 0)
(-0.0127842 -0.00393618 0)
(-0.0110734 -0.00434878 0)
(-0.00928373 -0.00469448 0)
(-0.00725773 -0.00494196 0)
(-0.00531026 -0.00499885 0)
(-0.00317181 -0.00469134 0)
(-0.00142438 -0.00367399 0)
(-0.00018947 -0.00159587 0)
(-0.000201405 0.00225504 0)
(-0.00144479 0.00504864 0)
(-0.00324663 0.00636785 0)
(-0.00540642 0.0067689 0)
(-0.00740058 0.0067091 0)
(-0.00945863 0.00642342 0)
(-0.0113081 0.0060152 0)
(-0.0130818 0.00552318 0)
(-0.0146625 0.00496221 0)
(-0.0160679 0.00434198 0)
(-0.0172833 0.00366978 0)
(-0.0182832 0.00295298 0)
(-0.0190602 0.00219904 0)
(-0.0196056 0.0014154 0)
(-0.0199114 0.000609675 0)
(-0.0199721 -0.000210295 0)
(-0.0197843 -0.00103631 0)
(-0.0193477 -0.0018595 0)
(-0.0186657 -0.00267045 0)
(-0.0177418 -0.00345925 0)
(-0.0165767 -0.00421499 0)
(-0.0151957 -0.00492621 0)
(-0.0136144 -0.00558126 0)
(-0.0118033 -0.00616472 0)
(-0.00990409 -0.00665561 0)
(-0.00775242 -0.00700636 0)
(-0.00567752 -0.00710137 0)
(-0.00339595 -0.00669244 0)
(-0.00152137 -0.00530536 0)
(-0.000201506 -0.00237185 0)
(-0.00021251 0.00303817 0)
(-0.0015198 0.00669759 0)
(-0.00342841 0.00838721 0)
(-0.00570559 0.00888894 0)
(-0.00781052 0.00879655 0)
(-0.00997579 0.0084182 0)
(-0.0119231 0.00788014 0)
(-0.013787 0.00723421 0)
(-0.0154492 0.00649762 0)
(-0.0169261 0.00568403 0)
(-0.0182037 0.00480339 0)
(-0.019256 0.00386496 0)
(-0.0200752 0.00287854 0)
(-0.0206526 0.00185379 0)
(-0.0209801 0.000800427 0)
(-0.0210517 -0.000271537 0)
(-0.0208635 -0.00135157 0)
(-0.0204147 -0.00242842 0)
(-0.019708 -0.00349017 0)
(-0.018746 -0.00452391 0)
(-0.0175289 -0.0055152 0)
(-0.016082 -0.00644952 0)
(-0.0144192 -0.00731117 0)
(-0.0125124 -0.00807858 0)
(-0.0105041 -0.0087267 0)
(-0.00822882 -0.00919107 0)
(-0.0060239 -0.00933052 0)
(-0.00360432 -0.00881744 0)
(-0.00160629 -0.00703779 0)
(-0.000213672 -0.0031914 0)
(-0.000226043 0.00386185 0)
(-0.00160275 0.00843916 0)
(-0.00363129 0.0105217 0)
(-0.00604079 0.0111282 0)
(-0.00827439 0.0109996 0)
(-0.010563 0.0105213 0)
(-0.0126241 0.00984488 0)
(-0.0145917 0.00903558 0)
(-0.0163476 0.00811373 0)
(-0.0179064 0.00709679 0)
(-0.0192552 0.00599747 0)
(-0.0203677 0.00482712 0)
(-0.0212359 0.00359782 0)
(-0.0218513 0.00232137 0)
(-0.0222053 0.00100949 0)
(-0.0222916 -0.000325768 0)
(-0.0221058 -0.00167178 0)
(-0.0216461 -0.00301509 0)
(-0.0209144 -0.00434128 0)
(-0.0199118 -0.00563441 0)
(-0.0186377 -0.00687662 0)
(-0.0171171 -0.00804998 0)
(-0.0153613 -0.00913426 0)
(-0.0133445 -0.0101017 0)
(-0.0112081 -0.0109217 0)
(-0.00878859 -0.0115121 0)
(-0.00642941 -0.0117022 0)
(-0.00384951 -0.0110799 0)
(-0.00170653 -0.0088795 0)
(-0.000229996 -0.00405835 0)
(-0.000243248 0.00473421 0)
(-0.00170353 0.0102891 0)
(-0.00387551 0.0127917 0)
(-0.00644295 0.013509 0)
(-0.00883154 0.0133404 0)
(-0.0112679 0.0127535 0)
(-0.0134658 0.0119283 0)
(-0.0155567 0.0109441 0)
(-0.0174242 0.00982526 0)
(-0.0190802 0.00859292 0)
(-0.0205131 0.00726284 0)
(-0.0216969 0.00584861 0)
(-0.0226233 0.00436451 0)
(-0.023284 0.00282435 0)
(-0.0236704 0.00124165 0)
(-0.0237758 -0.000369772 0)
(-0.0235948 -0.00199547 0)
(-0.0231248 -0.00362002 0)
(-0.0223661 -0.00522666 0)
(-0.021318 -0.00679652 0)
(-0.0199789 -0.00830832 0)
(-0.0183726 -0.00974038 0)
(-0.0165069 -0.0110673 0)
(-0.0143594 -0.0122549 0)
(-0.0120687 -0.0132653 0)
(-0.00947544 -0.0139971 0)
(-0.00692857 -0.0142458 0)
(-0.00415398 -0.0135084 0)
(-0.00183298 -0.0108545 0)
(-0.000251676 -0.00498544 0)
(-0.000264751 0.00566692 0)
(-0.0018269 0.0122704 0)
(-0.00417142 0.0152249 0)
(-0.00692771 0.0160602 0)
(-0.00950151 0.0158469 0)
(-0.0121135 0.0151406 0)
(-0.0144735 0.0141537 0)
(-0.01671 0.0129802 0)
(-0.0187085 0.0116498 0)
(-0.0204779 0.0101875 0)
(-0.022009 0.00861225 0)
(-0.0232757 0.00694011 0)
(-0.0242701 0.00518743 0)
(-0.0249841 0.00336981 0)
(-0.0254094 0.00150228 0)
(-0.0255386 -0.000399932 0)
(-0.0253657 -0.00232098 0)
(-0.0248866 -0.00424384 0)
(-0.0240998 -0.00614968 0)
(-0.0230018 -0.00801692 0)
(-0.0215897 -0.00982092 0)
(-0.0198855 -0.0115359 0)
(-0.017892 -0.0131306 0)
(-0.0155906 -0.0145635 0)
(-0.0131163 -0.0157878 0)
(-0.0103147 -0.0166808 0)
(-0.00754081 -0.016999 0)
(-0.00452976 -0.0161407 0)
(-0.00199062 -0.0129948 0)
(-0.000279183 -0.00598897 0)
(-0.00029117 0.00667351 0)
(-0.00197648 0.0144103 0)
(-0.00452716 0.0178531 0)
(-0.00750724 0.018814 0)
(-0.0102994 0.0185493 0)
(-0.013117 0.0177102 0)
(-0.0156661 0.0165454 0)
(-0.018071 0.0151652 0)
(-0.0202205 0.0136056 0)
(-0.02212 0.0118958 0)
(-0.0237627 0.0100586 0)
(-0.0251239 0.00811238 0)
(-0.0261958 0.00607555 0)
(-0.0269713 0.00396516 0)
(-0.0274423 0.00179736 0)
(-0.0276011 -0.000411733 0)
(-0.0274408 -0.00264548 0)
(-0.0269555 -0.00488581 0)
(-0.0261411 -0.00711231 0)
(-0.024991 -0.00930106 0)
(-0.0235 -0.0114242 0)
(-0.0216865 -0.0134513 0)
(-0.0195478 -0.0153448 0)
(-0.0170687 -0.0170549 0)
(-0.0143786 -0.0185231 0)
(-0.0113301 -0.0196029 0)
(-0.00828389 -0.0200053 0)
(-0.00498757 -0.0190203 0)
(-0.00218355 -0.0153375 0)
(-0.000313014 -0.00708713 0)
(-0.000323144 0.00776935 0)
(-0.00215582 0.0167397 0)
(-0.00495101 0.0207123 0)
(-0.00819413 0.0218061 0)
(-0.0112412 0.0214807 0)
(-0.0142968 0.0204919 0)
(-0.0170633 0.019129 0)
(-0.0196603 0.0175207 0)
(-0.0219802 0.0157106 0)
(-0.0240257 0.0137329 0)
(-0.025793 0.0116142 0)
(-0.0272593 0.00937576 0)
(-0.0284178 0.00703763 0)
(-0.0292628 0.004618 0)
(-0.0297867 0.00213355 0)
(-0.0299819 -0.000399465 0)
(-0.0298402 -0.00296445 0)
(-0.0293539 -0.00554304 0)
(-0.0285154 -0.00811405 0)
(-0.027314 -0.0106518 0)
(-0.025741 -0.0131255 0)
(-0.0238097 -0.0155001 0)
(-0.0215099 -0.0177306 0)
(-0.0188292 -0.0197575 0)
(-0.0158892 -0.0215082 0)
(-0.0125502 -0.022808 0)
(-0.0091797 -0.023315 0)
(-0.00554094 -0.0221985 0)
(-0.00241711 -0.0179256 0)
(-0.000353972 -0.00830036 0)
(-0.000361399 0.00897185 0)
(-0.00236905 0.0192938 0)
(-0.00545271 0.0238434 0)
(-0.00900344 0.0250763 0)
(-0.012346 0.0246772 0)
(-0.0156749 0.0235168 0)
(-0.0186884 0.0219307 0)
(-0.0215012 0.0200683 0)
(-0.0240106 0.0179822 0)
(-0.0262169 0.0157125 0)
(-0.0281201 0.0132904 0)
(-0.0297007 0.0107396 0)
(-0.0309537 0.00808185 0)
(-0.0318755 0.0053359 0)
(-0.0324599 0.00251818 0)
(-0.0326993 -0.000355935 0)
(-0.0325845 -0.00327105 0)
(-0.0321052 -0.00620968 0)
(-0.03125 -0.00915092 0)
(-0.0300026 -0.0120684 0)
(-0.0283492 -0.0149289 0)
(-0.0262955 -0.017693 0)
(-0.0238218 -0.0203071 0)
(-0.0209164 -0.0227009 0)
(-0.0176908 -0.0247835 0)
(-0.0140128 -0.0263472 0)
(-0.0102576 -0.0269872 0)
(-0.00620856 -0.0257353 0)
(-0.00269899 -0.0208098 0)
(-0.000403322 -0.00965244 0)
(-0.000406921 0.0103009 0)
(-0.00262161 0.0221135 0)
(-0.00604485 0.0272932 0)
(-0.00995436 0.0286698 0)
(-0.0136381 0.0281787 0)
(-0.0172786 0.0268186 0)
(-0.0205701 0.0249778 0)
(-0.0236221 0.0228291 0)
(-0.0263386 0.0204366 0)
(-0.0287181 0.017847 0)
(-0.0307662 0.0150964 0)
(-0.032468 0.0122116 0)
(-0.0338216 0.00921529 0)
(-0.0348266 0.0061261 0)
(-0.0354787 0.00295917 0)
(-0.0357712 -0.00027226 0)
(-0.0356941 -0.00355567 0)
(-0.0352338 -0.00687595 0)
(-0.0343742 -0.0102142 0)
(-0.0330922 -0.0135447 0)
(-0.0313667 -0.0168332 0)
(-0.0291924 -0.0200359 0)
(-0.0265372 -0.0230908 0)
(-0.0233871 -0.0259142 0)
(-0.019839 -0.0283929 0)
(-0.0157682 -0.0302787 0)
(-0.0115579 -0.0310911 0)
(-0.00701656 -0.0297036 0)
(-0.0030402 -0.0240514 0)
(-0.000462901 -0.011172 0)
(-0.000461109 0.01178 0)
(-0.00292093 0.0252464 0)
(-0.00674423 0.0311162 0)
(-0.011072 0.032638 0)
(-0.0151486 0.0320293 0)
(-0.0191424 0.030433 0)
(-0.0227438 0.0282976 0)
(-0.0260573 0.0258231 0)
(-0.0289957 0.0230876 0)
(-0.0315577 0.0201456 0)
(-0.0337558 0.0170387 0)
(-0.035582 0.0137968 0)
(-0.0370393 0.0104431 0)
(-0.0381318 0.00699496 0)
(-0.0388585 0.00346484 0)
(-0.0392143 -0.000137894 0)
(-0.0391883 -0.0038053 0)
(-0.0387639 -0.00752706 0)
(-0.0379188 -0.0112885 0)
(-0.0366219 -0.015067 0)
(-0.0348418 -0.018829 0)
(-0.0325584 -0.0225278 0)
(-0.0297227 -0.0260925 0)
(-0.0263135 -0.0294246 0)
(-0.0224072 -0.0323829 0)
(-0.0178844 -0.0346691 0)
(-0.0131356 -0.0357101 0)
(-0.00800137 -0.0341927 0)
(-0.00345617 -0.0277271 0)
(-0.000535255 -0.0128947 0)
(-0.000525953 0.0134371 0)
(-0.00327734 0.0287497 0)
(-0.0075737 0.0353766 0)
(-0.01239 0.0370404 0)
(-0.0169184 0.0362785 0)
(-0.0213107 0.0343979 0)
(-0.0252539 0.0319168 0)
(-0.0288488 0.0290676 0)
(-0.0320195 0.0259452 0)
(-0.0347677 0.0226131 0)
(-0.0371153 0.0191193 0)
(-0.0390639 0.0154964 0)
(-0.0406237 0.0117674 0)
(-0.0418051 0.00794716 0)
(-0.0426118 0.00404343 0)
(-0.0430416 5.94141e-05 0)
(-0.0430834 -0.0040029 0)
(-0.0427173 -0.00814192 0)
(-0.0419143 -0.0123503 0)
(-0.0406332 -0.0166116 0)
(-0.0388291 -0.0208961 0)
(-0.0364621 -0.0251564 0)
(-0.0334605 -0.0293141 0)
(-0.0297883 -0.0332542 0)
(-0.0254924 -0.0368015 0)
(-0.0204537 -0.0395949 0)
(-0.0150678 -0.040945 0)
(-0.00921458 -0.0393148 0)
(-0.00396881 -0.0319344 0)
(-0.000623872 -0.0148655 0)
(-0.000604351 0.0153071 0)
(-0.00370547 0.0326935 0)
(-0.0085649 0.0401521 0)
(-0.0139539 0.0419465 0)
(-0.0190014 0.0409812 0)
(-0.0238406 0.0387526 0)
(-0.0281564 0.0358605 0)
(-0.0320478 0.0325756 0)
(-0.0354542 0.0290131 0)
(-0.0383844 0.0252476 0)
(-0.0408729 0.0213335 0)
(-0.0429342 0.0173058 0)
(-0.0445889 0.013186 0)
(-0.0458562 0.00898479 0)
(-0.0467465 0.00470312 0)
(-0.0472609 0.000335549 0)
(-0.0473899 -0.00412612 0)
(-0.0471115 -0.00869152 0)
(-0.0463887 -0.0133649 0)
(-0.0451682 -0.0181406 0)
(-0.0433886 -0.0229977 0)
(-0.0409838 -0.0278926 0)
(-0.0378519 -0.0327422 0)
(-0.0339308 -0.037415 0)
(-0.0292246 -0.041695 0)
(-0.0236044 -0.0451426 0)
(-0.0174641 -0.0469202 0)
(-0.0107312 -0.0452143 0)
(-0.00461004 -0.0368014 0)
(-0.00073369 -0.0171433 0)
(-0.000700601 0.0174345 0)
(-0.00422636 0.0371662 0)
(-0.00976233 0.0455377 0)
(-0.0158259 0.047438 0)
(-0.02147 0.0461987 0)
(-0.0268069 0.0435369 0)
(-0.0315221 0.0401495 0)
(-0.035717 0.0363528 0)
(-0.039352 0.0322865 0)
(-0.0424483 0.0280377 0)
(-0.0450577 0.0236675 0)
(-0.0472118 0.0192121 0)
(-0.0489451 0.0146902 0)
(-0.0502884 0.0101056 0)
(-0.0512614 0.00545017 0)
(-0.0518712 0.000706696 0)
(-0.0521109 -0.00414788 0)
(-0.0519564 -0.00913774 0)
(-0.0513638 -0.014284 0)
(-0.0502668 -0.0195982 0)
(-0.0485835 -0.0250753 0)
(-0.0462152 -0.0306825 0)
(-0.0430204 -0.0363389 0)
(-0.0388948 -0.0418994 0)
(-0.0337792 -0.047102 0)
(-0.0275167 -0.0514084 0)
(-0.0204848 -0.0537897 0)
(-0.0126641 -0.052081 0)
(-0.00542871 -0.0425012 0)
(-0.000872173 -0.0198069 0)
(-0.000821274 0.0198778 0)
(-0.00487099 0.0422814 0)
(-0.0112296 0.0516517 0)
(-0.018093 0.0536121 0)
(-0.024422 0.0519981 0)
(-0.0303074 0.0487886 0)
(-0.0354411 0.0447968 0)
(-0.0399336 0.0403935 0)
(-0.0437743 0.0357472 0)
(-0.0470046 0.0309586 0)
(-0.0496991 0.0260947 0)
(-0.0519121 0.0211916 0)
(-0.053696 0.0162622 0)
(-0.0550967 0.011301 0)
(-0.0561459 0.00628729 0)
(-0.0568594 0.00118846 0)
(-0.0572348 -0.00403651 0)
(-0.0572481 -0.00943231 0)
(-0.0568497 -0.0150431 0)
(-0.0559604 -0.0209054 0)
(-0.0544756 -0.02704 0)
(-0.0522577 -0.0334365 0)
(-0.0491138 -0.0400283 0)
(-0.044877 -0.0466658 0)
(-0.0393949 -0.0530402 0)
(-0.0324499 -0.058493 0)
(-0.0243717 -0.0617449 0)
(-0.0151909 -0.0601706 0)
(-0.00650412 -0.0492761 0)
(-0.00105179 -0.0229667 0)
(-0.000976877 0.0227167 0)
(-0.00568619 0.0481898 0)
(-0.0130595 0.0586445 0)
(-0.0208775 0.0605843 0)
(-0.0279903 0.0584515 0)
(-0.0344707 0.0545398 0)
(-0.0400277 0.0498024 0)
(-0.0447916 0.0446747 0)
(-0.0487925 0.0393579 0)
(-0.052102 0.0339665 0)
(-0.0548252 0.0285716 0)
(-0.0570447 0.0232057 0)
(-0.0588361 0.0178726 0)
(-0.0602636 0.0125538 0)
(-0.0613742 0.0072126 0)
(-0.0621952 0.00179714 0)
(-0.0627318 -0.00375565 0)
(-0.0629631 -0.00951627 0)
(-0.0628371 -0.0155589 0)
(-0.0622643 -0.0219549 0)
(-0.0611172 -0.0287636 0)
(-0.0592153 -0.0360146 0)
(-0.0563036 -0.0436759 0)
(-0.0521268 -0.0516139 0)
(-0.046397 -0.0594831 0)
(-0.0387812 -0.0664871 0)
(-0.0294992 -0.07102 0)
(-0.0186033 -0.0698343 0)
(-0.00797441 -0.05748 0)
(-0.00129626 -0.026786 0)
(-0.00118521 0.0260639 0)
(-0.00674542 0.0550955 0)
(-0.0153903 0.0667089 0)
(-0.0243543 0.0684917 0)
(-0.0323577 0.0656325 0)
(-0.0394668 0.0608094 0)
(-0.0454262 0.0551443 0)
(-0.0504043 0.0491476 0)
(-0.0544877 0.0430551 0)
(-0.0577913 0.0369932 0)
(-0.0604593 0.0310323 0)
(-0.0626101 0.0251968 0)
(-0.0643465 0.0194764 0)
(-0.065755 0.0138352 0)
(-0.0669007 0.00821635 0)
(-0.0678255 0.00254537 0)
(-0.0685459 -0.00326681 0)
(-0.0690487 -0.00932121 0)
(-0.0692854 -0.0157289 0)
(-0.0691625 -0.0226066 0)
(-0.0685346 -0.0300687 0)
(-0.0671799 -0.0382079 0)
(-0.0647748 -0.0470599 0)
(-0.0609482 -0.0565457 0)
(-0.0552225 -0.0663161 0)
(-0.0470628 -0.0754365 0)
(-0.0364611 -0.0818874 0)
(-0.0234017 -0.0815614 0)
(-0.0100992 -0.067651 0)
(-0.00165728 -0.0315265 0)
(-0.00147843 0.0300858 0)
(-0.0081685 0.0632825 0)
(-0.0184327 0.0760948 0)
(-0.0287759 0.077493 0)
(-0.037775 0.0736079 0)
(-0.0455174 0.0675912 0)
(-0.0518159 0.060766 0)
(-0.056904 0.0537255 0)
(-0.0609467 0.0467386 0)
(-0.0641183 0.0399371 0)
(-0.0666129 0.0333829 0)
(-0.0685906 0.0270839 0)
(-0.0701862 0.0210096 0)
(-0.0715108 0.0151011 0)
(-0.0726498 0.00927743 0)
(-0.0736629 0.00343847 0)
(-0.0745814 -0.00253356 0)
(-0.0754065 -0.00877322 0)
(-0.076102 -0.0154339 0)
(-0.0765819 -0.0226875 0)
(-0.0766962 -0.0307205 0)
(-0.0761947 -0.039719 0)
(-0.0746905 -0.0498333 0)
(-0.0716782 -0.0611051 0)
(-0.0664308 -0.0732571 0)
(-0.058086 -0.0852643 0)
(-0.0461995 -0.0946213 0)
(-0.030464 -0.096028 0)
(-0.0133959 -0.0806411 0)
(-0.00225849 -0.037648 0)
(-0.00191851 0.0350419 0)
(-0.0101589 0.0731551 0)
(-0.022514 0.087124 0)
(-0.0345079 0.0877627 0)
(-0.0445818 0.0824199 0)
(-0.052903 0.0748323 0)
(-0.0594057 0.0665556 0)
(-0.0644283 0.0582669 0)
(-0.0682425 0.0502584 0)
(-0.0711015 0.042654 0)
(-0.0732595 0.0354935 0)
(-0.0749239 0.0287571 0)
(-0.0762637 0.0223845 0)
(-0.0774154 0.016288 0)
(-0.0784854 0.0103586 0)
(-0.0795523 0.00446859 0)
(-0.0806664 -0.00152891 0)
(-0.0818502 -0.00780177 0)
(-0.0830918 -0.0145475 0)
(-0.0843305 -0.0219986 0)
(-0.0854365 -0.0304286 0)
(-0.0861617 -0.0401482 0)
(-0.0860871 -0.0514829 0)
(-0.0845822 -0.0646962 0)
(-0.0806289 -0.0797276 0)
(-0.0728841 -0.0956132 0)
(-0.0601314 -0.109379 0)
(-0.0412952 -0.114125 0)
(-0.0189085 -0.0978311 0)
(-0.00340169 -0.0460353 0)
(-0.00263138 0.0413596 0)
(-0.0130739 0.0852962 0)
(-0.0281439 0.1002 0)
(-0.042066 0.0994671 0)
(-0.05321 0.0920489 0)
(-0.0619361 0.0823948 0)
(-0.0683836 0.0723127 0)
(-0.0730516 0.0625485 0)
(-0.076353 0.053394 0)
(-0.0786402 0.0449419 0)
(-0.0802366 0.0371884 0)
(-0.0813988 0.0300695 0)
(-0.0823285 0.0234836 0)
(-0.0831847 0.0173067 0)
(-0.0840922 0.0113988 0)
(-0.0851476 0.0056049 0)
(-0.0864212 -0.000248013 0)
(-0.0879635 -0.00635744 0)
(-0.0898006 -0.0129581 0)
(-0.0919198 -0.0203408 0)
(-0.0942472 -0.0288701 0)
(-0.0965921 -0.039005 0)
(-0.0985736 -0.0513088 0)
(-0.0995054 -0.0663999 0)
(-0.0981068 -0.0846733 0)
(-0.0924267 -0.105566 0)
(-0.0800199 -0.125902 0)
(-0.0581776 -0.136848 0)
(-0.0286044 -0.121431 0)
(-0.00577922 -0.0584816 0)
(-0.00388028 0.0497817 0)
(-0.017549 0.100543 0)
(-0.0360885 0.115784 0)
(-0.0521022 0.112692 0)
(-0.0640814 0.102331 0)
(-0.0727844 0.0899792 0)
(-0.07868 0.077683 0)
(-0.0825006 0.0662132 0)
(-0.0848389 0.0558157 0)
(-0.0861644 0.0465118 0)
(-0.0868725 0.0382235 0)
(-0.0872637 0.0308196 0)
(-0.0875638 0.0241431 0)
(-0.087945 0.0180264 0)
(-0.0885421 0.0122964 0)
(-0.0894632 0.00677341 0)
(-0.0907966 0.00126459 0)
(-0.0926211 -0.0044475 0)
(-0.0950104 -0.0106163 0)
(-0.0980222 -0.0175759 0)
(-0.101679 -0.0257664 0)
(-0.105921 -0.0357915 0)
(-0.110521 -0.0484916 0)
(-0.114897 -0.0649744 0)
(-0.117686 -0.0864183 0)
(-0.116361 -0.113269 0)
(-0.106817 -0.14291 0)
(-0.0834835 -0.164744 0)
(-0.0455135 -0.154584 0)
(-0.0107527 -0.0784909 0)
(-0.00621065 0.0616675 0)
(-0.0246803 0.120047 0)
(-0.0473345 0.134249 0)
(-0.065098 0.127228 0)
(-0.0770564 0.112742 0)
(-0.084716 0.0969316 0)
(-0.0890502 0.0819976 0)
(-0.0911118 0.0686419 0)
(-0.0917077 0.0569836 0)
(-0.0914282 0.0469106 0)
(-0.0907265 0.0382259 0)
(-0.0899256 0.0307031 0)
(-0.0892525 0.0241133 0)
(-0.0888717 0.0182386 0)
(-0.088909 0.0128728 0)
(-0.0894692 0.0078172 0)
(-0.0906467 0.00286891 0)
(-0.092536 -0.00219251 0)
(-0.0952564 -0.00761638 0)
(-0.0989453 -0.0137437 0)
(-0.103744 -0.0210479 0)
(-0.109785 -0.0302293 0)
(-0.117125 -0.0423778 0)
(-0.125531 -0.0591592 0)
(-0.133944 -0.0828662 0)
(-0.139687 -0.115798 0)
(-0.137011 -0.157367 0)
(-0.116423 -0.196596 0)
(-0.072155 -0.200391 0)
(-0.0202554 -0.111911 0)
(-0.0106984 0.0796086 0)
(-0.0361566 0.145138 0)
(-0.0624349 0.155331 0)
(-0.0798922 0.141933 0)
(-0.0892989 0.121804 0)
(-0.0934651 0.101744 0)
(-0.0940886 0.0838787 0)
(-0.0926097 0.0686563 0)
(-0.0900392 0.0559308 0)
(-0.0870389 0.0453625 0)
(-0.0840579 0.0365783 0)
(-0.0813812 0.0292247 0)
(-0.0791847 0.0229878 0)
(-0.077581 0.0175967 0)
(-0.0766513 0.0128169 0)
(-0.0764671 0.00844057 0)
(-0.0771026 0.00427155 0)
(-0.0786402 0.000107111 0)
(-0.0812182 -0.00429562 0)
(-0.0850261 -0.00921582 0)
(-0.0903023 -0.015096 0)
(-0.0973639 -0.0226388 0)
(-0.106601 -0.0330625 0)
(-0.118335 -0.0485071 0)
(-0.132352 -0.0725289 0)
(-0.146809 -0.110063 0)
(-0.155524 -0.164495 0)
(-0.145477 -0.227822 0)
(-0.104598 -0.258996 0)
(-0.0348376 -0.166704 0)
(-0.0192268 0.108142 0)
(-0.0536711 0.17579 0)
(-0.078253 0.176271 0)
(-0.08829 0.153004 0)
(-0.0885559 0.125695 0)
(-0.0838014 0.101064 0)
(-0.0765044 0.080592 0)
(-0.0683317 0.0641204 0)
(-0.0602809 0.0510286 0)
(-0.0528749 0.0406362 0)
(-0.0463788 0.0323437 0)
(-0.0409006 0.0256564 0)
(-0.0364607 0.0201787 0)
(-0.0330431 0.0155993 0)
(-0.0306256 0.0116703 0)
(-0.0291975 0.00818983 0)
(-0.0287719 0.0049837 0)
(-0.0294032 0.0018856 0)
(-0.0311789 -0.00129633 0)
(-0.0342576 -0.00478111 0)
(-0.0389138 -0.00890071 0)
(-0.0455393 -0.014241 0)
(-0.0547369 -0.0219445 0)
(-0.0673498 -0.0343125 0)
(-0.0843355 -0.0558344 0)
(-0.10593 -0.0941643 0)
(-0.12863 -0.158126 0)
(-0.139213 -0.248165 0)
(-0.122655 -0.32183 0)
(-0.0480758 -0.251322 0)
(-0.0333626 0.152314 0)
(-0.0730187 0.203625 0)
(-0.0743281 0.185768 0)
(-0.0589265 0.149674 0)
(-0.0370474 0.115687 0)
(-0.0145451 0.0883863 0)
(0.00639157 0.0675121 0)
(0.0248651 0.0518239 0)
(0.0406295 0.0400658 0)
(0.0538066 0.0312001 0)
(0.0646537 0.0244396 0)
(0.0734592 0.0192036 0)
(0.0804967 0.0150689 0)
(0.0859995 0.0117285 0)
(0.090151 0.00895735 0)
(0.0930841 0.00658538 0)
(0.0948818 0.00447704 0)
(0.0955742 0.00251595 0)
(0.095133 0.000594883 0)
(0.0934767 -0.00143931 0)
(0.0904283 -0.00379094 0)
(0.0856425 -0.00683146 0)
(0.078509 -0.0113792 0)
(0.0679478 -0.0193065 0)
(0.0520559 -0.0348422 0)
(0.0282574 -0.0668323 0)
(-0.00665847 -0.129606 0)
(-0.0456874 -0.236436 0)
(-0.0864291 -0.360709 0)
(-0.039754 -0.356093 0)
(-0.0357165 0.24196 0)
(-0.0422607 0.209243 0)
(0.0323317 0.152084 0)
(0.0962892 0.109261 0)
(0.151127 0.0775655 0)
(0.195504 0.054998 0)
(0.230542 0.0394401 0)
(0.258022 0.0287873 0)
(0.27955 0.0214119 0)
(0.296447 0.0162075 0)
(0.309744 0.012452 0)
(0.320221 0.00967347 0)
(0.328469 0.0075612 0)
(0.334924 0.005909 0)
(0.339907 0.00457848 0)
(0.343647 0.00347306 0)
(0.346303 0.00252094 0)
(0.347975 0.00166511 0)
(0.348699 0.000859231 0)
(0.34846 5.01584e-05 0)
(0.347187 -0.000839563 0)
(0.344644 -0.00199954 0)
(0.340319 -0.00379324 0)
(0.333171 -0.00712825 0)
(0.320768 -0.0142712 0)
(0.298748 -0.0312458 0)
(0.257251 -0.0717856 0)
(0.193245 -0.162033 0)
(0.0632125 -0.312356 0)
(0.0366389 -0.394224 0)
(0.233217 0.160484 0)
(0.297436 0.120459 0)
(0.449234 0.0776826 0)
(0.546143 0.0505124 0)
(0.607467 0.0326362 0)
(0.648595 0.0208568 0)
(0.676957 0.0133584 0)
(0.696825 0.00870792 0)
(0.711046 0.00584176 0)
(0.721495 0.0040584 0)
(0.729363 0.0029235 0)
(0.735397 0.00217525 0)
(0.740082 0.0016589 0)
(0.743741 0.00128418 0)
(0.746591 0.000998688 0)
(0.748782 0.000771258 0)
(0.750417 0.000582062 0)
(0.751564 0.000416851 0)
(0.75226 0.000263837 0)
(0.752524 0.000114362 0)
(0.752311 -2.52284e-05 0)
(0.751481 -0.000221197 0)
(0.74973 -0.000555187 0)
(0.746419 -0.00123169 0)
(0.739416 -0.00271864 0)
(0.725752 -0.00656082 0)
(0.6914 -0.0161008 0)
(0.631502 -0.0407648 0)
(0.442966 -0.106742 0)
(0.309796 -0.178176 0)
)
;

boundaryField
{
    movingWall
    {
        type            fixedValue;
        value           uniform (1 0 0);
    }
    fixedWalls
    {
        type            noSlip;
    }
    frontAndBack
    {
        type            empty;
    }
}


// ************************************************************************* //
