/*--------------------------------*- C++ -*----------------------------------*\
  =========                 |
  \\      /  F ield         | OpenFOAM: The Open Source CFD Toolbox
   \\    /   O peration     | Website:  https://openfoam.org
    \\  /    A nd           | Version:  7
     \\/     M anipulation  |
\*---------------------------------------------------------------------------*/
FoamFile
{
    version     2.0;
    format      ascii;
    class       volScalarField;
    location    "0.08";
    object      p;
}
// * * * * * * * * * * * * * * * * * * * * * * * * * * * * * * * * * * * * * //

dimensions      [0 2 -2 0 0 0 0];

internalField   nonuniform List<scalar> 
1936
(
-0.000159272
-3117.5
-6786.71
-6400.87
-5596.53
-5634.84
-5375.19
-4806.09
-4291.64
-4203.37
-4625.34
-6115.1
-7411.97
-5988.54
-3736.41
-3194.34
-3439.55
-5059.76
-7455.92
-6661.7
-3962.37
-3087.15
-3260.15
-4518.47
-7093.96
-7231.15
-4580.83
-3227.57
-3198.7
-4089.46
-6629.22
-7476.13
-5204.34
-3390.42
-3145.17
-3450.86
-5336.87
-7631.3
-6584.41
-3891.91
-3061.24
-3191.88
-4506.09
-7290.28
-99.9557
-3111.39
-6726.29
-6364.88
-5584.89
-5618.52
-5363.18
-4811.5
-4319.51
-4236.26
-4637.91
-6089.4
-7355.12
-5949.5
-3762.29
-3259.43
-3484.01
-5048.44
-7396.17
-6604.32
-3970.72
-3150.91
-3313.38
-4520.18
-7042.89
-7163.32
-4565.85
-3280.64
-3262.86
-4101.49
-6580.04
-7419.81
-5193.46
-3434.77
-3208.21
-3484.35
-5316.1
-7565.03
-6524.19
-3900.51
-3125.21
-3246.57
-4502.23
-7233.51
-410.685
-3104.42
-6507.28
-6267.78
-5562.81
-5568.4
-5329.21
-4825.7
-4389.14
-4318.44
-4688.93
-6029.31
-7173.02
-5845.1
-3849.21
-3414.81
-3609.92
-5045.65
-7203.15
-6437.92
-4020.11
-3306
-3451.27
-4557.25
-6884.04
-6955
-4553.94
-3417
-3418.05
-4161.04
-6437.08
-7235.79
-5185.74
-3564.5
-3353.68
-3589.33
-5284.65
-7351.73
-6352.9
-3950.54
-3278.61
-3387.35
-4526.21
-7054.27
-839.079
-3119.27
-6187.94
-6117.19
-5531.79
-5500.19
-5282.4
-4849.04
-4487.59
-4433.25
-4764.73
-5936.49
-6895.64
-5701.75
-3986.23
-3631.26
-3790.16
-5041.83
-6904.76
-6198.44
-4109.05
-3524.22
-3645.15
-4612.68
-6635.93
-6649.72
-4559.94
-3614.93
-3629.66
-4253.1
-6225.11
-6948.26
-5170.08
-3749.47
-3557.18
-3750.47
-5242.24
-7025.05
-6110.38
-4040.37
-3493
-3586.13
-4568.69
-6778.52
-1329.42
-3166.87
-5825.03
-5923.03
-5482.45
-5421.92
-5231.14
-4879.85
-4598.29
-4559.68
-4847.3
-5820.69
-6568.86
-5545.67
-4152.08
-3872.92
-3992.96
-5032.78
-6551.75
-5929.23
-4223.38
-3768.44
-3861.6
-4671.82
-6338.45
-6302.76
-4585.03
-3841.08
-3859.38
-4357.81
-5980.31
-6603.84
-5142.38
-3956.58
-3788.08
-3942.9
-5192.42
-6639.4
-5840.37
-4155.35
-3732.18
-3807.62
-4618.16
-6452.37
-1844.33
-3253.33
-5461.07
-5698.75
-5409.38
-5339.38
-5181.17
-4914.87
-4707.96
-4682.86
-4923.13
-5689.84
-6229.58
-5396.04
-4327.86
-4114.31
-4195.51
-5018.46
-6184.51
-5663.09
-4350.44
-4011.67
-4076.68
-4727.15
-6023.9
-5957.13
-4627.29
-4068.68
-4082.45
-4464.36
-5730.27
-6240.21
-5102.88
-4162.4
-4023.6
-4144.44
-5138.07
-6239.52
-5576.51
-4283.75
-3970.31
-4026.42
-4668.29
-6112.05
-2356.93
-3380.92
-5127.87
-5459.52
-5312.86
-5254.82
-5135.9
-4948.73
-4806.37
-4791.17
-4983.93
-5551.92
-5907.43
-5267.48
-4496.1
-4336.47
-4382.98
-5000.16
-5835.63
-5424.81
-4477.32
-4235.05
-4275.04
-4774.56
-5719.65
-5643.11
-4680.46
-4278.61
-4285.01
-4565.77
-5496.48
-5888.96
-5056.81
-4351.1
-4244.93
-4336.18
-5081.64
-5861.38
-5344.18
-4413.39
-4189.49
-4227.17
-4715.62
-5785.23
-2846.15
-3545.37
-4848.94
-5223.34
-5197.38
-5169.27
-5093.97
-4976.46
-4886.41
-4877.81
-5025.68
-5414
-5624.18
-5167.08
-4643.72
-4526.51
-4545.94
-4980.1
-5530.17
-5228.7
-4593.53
-4426.96
-4447.49
-4811.41
-5448.44
-5379.58
-4735.77
-4459
-4459.4
-4656.97
-5294.08
-5575.17
-5011.4
-4513.63
-4437.53
-4504.11
-5024.76
-5532.08
-5157.79
-4533.86
-4379.06
-4401.41
-4756.76
-5493.55
-3289.38
-3736.65
-4641.98
-5009.25
-5071.98
-5082.94
-5052.69
-4993.34
-4944.03
-4940.82
-5044.93
-5284.78
-5392.88
-5094.26
-4763.31
-4677.66
-4680.33
-4958.23
-5284.08
-5081.01
-4691.33
-4581.45
-4589.96
-4835.87
-5225.85
-5175.12
-4785.2
-4603.9
-4601
-4733.53
-5132.14
-5316.57
-4969.72
-4646.34
-4593.6
-4639.55
-4970.66
-5268.5
-5021.15
-4637.42
-4533.34
-4545.51
-4788.78
-5251.47
-3663.75
-3936.81
-4517.19
-4835.75
-4949.79
-4998.34
-5009.58
-4996.18
-4977.89
-4979.13
-5043.49
-5172.72
-5217.65
-5044.12
-4851.66
-4788.34
-4782.32
-4936.66
-5103.94
-4981.07
-4766.47
-4697.12
-4700.23
-4848.29
-5060.17
-5030.17
-4821.84
-4713.19
-4708.9
-4790.09
-5013.77
-5121.9
-4934.1
-4746.13
-4710.29
-4739.4
-4924.27
-5076.67
-4931.34
-4718.12
-4651.44
-4658.64
-4808.88
-5066.98
-3957.23
-4122.53
-4469.11
-4716.07
-4845.57
-4920.92
-4964.69
-4984.67
-4989.26
-4994.16
-5026.72
-5083.66
-5096
-5008.72
-4907.62
-4862.19
-4850.4
-4918.24
-4986.94
-4921.86
-4817.7
-4777.22
-4777.17
-4852.44
-4951.3
-4938.51
-4844.6
-4788.25
-4783.72
-4826.6
-4935.87
-4991.06
-4906.12
-4812.6
-4789.78
-4804.03
-4889.61
-4953.15
-4879.16
-4774.35
-4735.36
-4739.41
-4818.74
-4941.42
-4173.78
-4276.74
-4475.21
-4650.96
-4770.98
-4857.77
-4921.06
-4962.05
-4981.85
-4989.74
-5001.41
-5018.79
-5018.37
-4981.84
-4934.9
-4904.1
-4888.48
-4905.19
-4922.17
-4892.16
-4848.44
-4826.81
-4823.96
-4853.19
-4890.73
-4888.46
-4856.31
-4833.13
-4829.23
-4846.77
-4890.73
-4915.04
-4886.41
-4849.56
-4836.69
-4839.55
-4867.85
-4885.57
-4853.43
-4809.16
-4788.95
-4789.9
-4822.5
-4868.22
-4325.81
-4394.59
-4510.51
-4628.41
-4728.56
-4813.43
-4882.99
-4933.41
-4961.94
-4971.76
-4973.71
-4974.54
-4971.85
-4959.92
-4941.04
-4921.54
-4904.73
-4897.76
-4893.4
-4880.07
-4864.19
-4853.39
-4848.37
-4853.99
-4863.93
-4866.05
-4860.84
-4855.28
-4852.48
-4856
-4868.64
-4878.14
-4874.02
-4864.95
-4858.85
-4855.09
-4856.93
-4856.18
-4843.85
-4828.3
-4819.01
-4816.93
-4824.2
-4834.12
-4435.12
-4480.4
-4552.44
-4632.67
-4711.88
-4786.5
-4852.37
-4902.9
-4933.82
-4946.24
-4947.32
-4945.15
-4943.81
-4941.71
-4935.42
-4923.51
-4908.14
-4894.19
-4883.98
-4876.65
-4870.92
-4865.27
-4859.36
-4855.77
-4856.11
-4858.88
-4862.09
-4863.42
-4861.7
-4859.51
-4860.33
-4863.8
-4866.97
-4867.98
-4865.59
-4859.68
-4853.13
-4847.59
-4842.59
-4837.96
-4833.65
-4829.52
-4826.36
-4823.9
-4518.24
-4546.24
-4592.62
-4648.66
-4709.88
-4771.55
-4828.2
-4873.7
-4903.88
-4918.88
-4923.45
-4924.07
-4925.05
-4926.2
-4924.33
-4917.05
-4905.01
-4892.15
-4882.23
-4876.53
-4873.3
-4869.43
-4863.92
-4858.59
-4856.22
-4858.1
-4862.22
-4864.85
-4863.97
-4860.78
-4858.68
-4859.82
-4863.28
-4866.1
-4865.12
-4859.73
-4852.77
-4847.37
-4844.53
-4842.84
-4840.02
-4835.38
-4829.79
-4825.11
-4584.19
-4600.61
-4630.33
-4669.45
-4714.99
-4763.36
-4809.19
-4847.76
-4875.73
-4892.78
-4901.61
-4906.24
-4909.61
-4912.02
-4911.79
-4907.39
-4899.26
-4889.93
-4882.21
-4877.28
-4874.08
-4870.62
-4866.02
-4861.59
-4859.2
-4859.85
-4862.32
-4864.16
-4863.61
-4861.2
-4859.2
-4859.32
-4861.33
-4863.03
-4862.22
-4858.42
-4853.43
-4849.46
-4847.23
-4845.61
-4843.14
-4839.04
-4834.27
-4830.69
-4636.72
-4646.41
-4665.31
-4691.97
-4724.49
-4760.08
-4795.47
-4826.75
-4851.57
-4869.3
-4881.07
-4888.9
-4894.38
-4897.92
-4898.95
-4896.96
-4892.36
-4886.61
-4881.32
-4877.27
-4874.1
-4870.93
-4867.39
-4864.1
-4862.11
-4861.83
-4862.67
-4863.31
-4862.82
-4861.39
-4860.07
-4859.74
-4860.32
-4860.72
-4859.81
-4857.35
-4854.22
-4851.46
-4849.44
-4847.68
-4845.41
-4842.36
-4839.23
-4837.02
-4678.18
-4684.23
-4696.41
-4714.27
-4736.71
-4761.93
-4787.74
-4811.97
-4832.8
-4849.5
-4862.24
-4871.76
-4878.74
-4883.49
-4885.98
-4886.19
-4884.52
-4881.74
-4878.69
-4875.88
-4873.31
-4870.76
-4868.18
-4865.86
-4864.22
-4863.45
-4863.26
-4863.1
-4862.54
-4861.62
-4860.71
-4860.15
-4859.89
-4859.51
-4858.55
-4856.92
-4854.93
-4853
-4851.3
-4849.66
-4847.83
-4845.8
-4843.91
-4842.67
-4710.76
-4714.74
-4722.75
-4734.66
-4749.82
-4767.18
-4785.49
-4803.45
-4819.94
-4834.31
-4846.32
-4856.05
-4863.69
-4869.36
-4873.16
-4875.21
-4875.81
-4875.34
-4874.26
-4872.89
-4871.36
-4869.74
-4868.08
-4866.54
-4865.31
-4864.43
-4863.82
-4863.28
-4862.66
-4861.92
-4861.18
-4860.51
-4859.9
-4859.2
-4858.28
-4857.09
-4855.74
-4854.37
-4853.04
-4851.75
-4850.43
-4849.15
-4848.07
-4847.4
-4736.25
-4738.93
-4744.26
-4752.18
-4762.33
-4774.11
-4786.84
-4799.78
-4812.31
-4823.87
-4834.19
-4843.11
-4850.59
-4856.61
-4861.24
-4864.55
-4866.71
-4867.94
-4868.48
-4868.49
-4868.15
-4867.57
-4866.83
-4866.04
-4865.29
-4864.62
-4864.03
-4863.46
-4862.86
-4862.23
-4861.57
-4860.91
-4860.24
-4859.51
-4858.69
-4857.77
-4856.8
-4855.81
-4854.84
-4853.91
-4853.03
-4852.24
-4851.63
-4851.28
-4755.95
-4757.75
-4761.29
-4766.55
-4773.34
-4781.31
-4790.09
-4799.28
-4808.51
-4817.45
-4825.83
-4833.46
-4840.23
-4846.07
-4850.96
-4854.92
-4858.03
-4860.38
-4862.08
-4863.24
-4863.97
-4864.36
-4864.49
-4864.44
-4864.26
-4864.01
-4863.69
-4863.33
-4862.9
-4862.43
-4861.92
-4861.37
-4860.78
-4860.16
-4859.49
-4858.8
-4858.08
-4857.37
-4856.69
-4856.05
-4855.47
-4854.99
-4854.64
-4854.44
-4770.77
-4771.97
-4774.33
-4777.86
-4782.43
-4787.87
-4793.97
-4800.5
-4807.26
-4814.03
-4820.63
-4826.91
-4832.74
-4838.05
-4842.78
-4846.92
-4850.46
-4853.43
-4855.87
-4857.85
-4859.4
-4860.59
-4861.47
-4862.1
-4862.51
-4862.75
-4862.84
-4862.81
-4862.68
-4862.46
-4862.16
-4861.8
-4861.39
-4860.94
-4860.46
-4859.96
-4859.45
-4858.95
-4858.47
-4858.04
-4857.67
-4857.36
-4857.15
-4857.04
-4780.65
-4781.5
-4783.17
-4785.66
-4788.93
-4792.85
-4797.31
-4802.18
-4807.32
-4812.6
-4817.9
-4823.09
-4828.1
-4832.83
-4837.23
-4841.25
-4844.88
-4848.1
-4850.93
-4853.36
-4855.43
-4857.16
-4858.58
-4859.72
-4860.62
-4861.3
-4861.79
-4862.1
-4862.28
-4862.33
-4862.27
-4862.13
-4861.91
-4861.64
-4861.33
-4860.99
-4860.64
-4860.29
-4859.96
-4859.66
-4859.41
-4859.2
-4859.06
-4858.99
-4786.31
-4786.97
-4788.27
-4790.22
-4792.8
-4795.91
-4799.49
-4803.44
-4807.67
-4812.09
-4816.6
-4821.12
-4825.57
-4829.88
-4833.99
-4837.86
-4841.45
-4844.75
-4847.72
-4850.38
-4852.73
-4854.76
-4856.51
-4857.98
-4859.2
-4860.18
-4860.95
-4861.53
-4861.94
-4862.2
-4862.34
-4862.36
-4862.3
-4862.17
-4861.98
-4861.75
-4861.51
-4861.26
-4861.01
-4860.79
-4860.59
-4860.44
-4860.34
-4860.28
-4789.28
-4789.85
-4790.95
-4792.63
-4794.84
-4797.54
-4800.65
-4804.12
-4807.86
-4811.81
-4815.9
-4820.03
-4824.17
-4828.22
-4832.16
-4835.92
-4839.47
-4842.79
-4845.84
-4848.61
-4851.11
-4853.32
-4855.26
-4856.93
-4858.34
-4859.52
-4860.47
-4861.22
-4861.78
-4862.19
-4862.45
-4862.59
-4862.62
-4862.58
-4862.47
-4862.31
-4862.13
-4861.93
-4861.73
-4861.55
-4861.39
-4861.26
-4861.17
-4861.13
-4790.69
-4791.2
-4792.21
-4793.74
-4795.77
-4798.24
-4801.12
-4804.33
-4807.83
-4811.53
-4815.39
-4819.33
-4823.3
-4827.23
-4831.08
-4834.79
-4838.33
-4841.66
-4844.77
-4847.62
-4850.22
-4852.54
-4854.6
-4856.39
-4857.93
-4859.23
-4860.3
-4861.15
-4861.81
-4862.3
-4862.64
-4862.85
-4862.94
-4862.95
-4862.88
-4862.76
-4862.61
-4862.44
-4862.26
-4862.1
-4861.95
-4861.84
-4861.76
-4861.72
-4791.17
-4791.66
-4792.61
-4794.07
-4796.01
-4798.38
-4801.14
-4804.23
-4807.61
-4811.2
-4814.96
-4818.82
-4822.72
-4826.6
-4830.43
-4834.13
-4837.69
-4841.06
-4844.21
-4847.13
-4849.8
-4852.2
-4854.34
-4856.22
-4857.83
-4859.21
-4860.34
-4861.27
-4861.98
-4862.52
-4862.9
-4863.14
-4863.27
-4863.29
-4863.24
-4863.14
-4863
-4862.83
-4862.66
-4862.5
-4862.36
-4862.25
-4862.17
-4862.13
-4791.14
-4791.62
-4792.55
-4793.98
-4795.87
-4798.2
-4800.91
-4803.96
-4807.3
-4810.86
-4814.59
-4818.43
-4822.33
-4826.22
-4830.05
-4833.79
-4837.38
-4840.79
-4843.99
-4846.96
-4849.68
-4852.14
-4854.34
-4856.27
-4857.93
-4859.35
-4860.53
-4861.48
-4862.22
-4862.78
-4863.18
-4863.43
-4863.56
-4863.59
-4863.54
-4863.43
-4863.28
-4863.12
-4862.94
-4862.78
-4862.64
-4862.52
-4862.44
-4862.4
-4790.88
-4791.35
-4792.27
-4793.69
-4795.58
-4797.9
-4800.61
-4803.66
-4807
-4810.58
-4814.33
-4818.19
-4822.11
-4826.03
-4829.9
-4833.68
-4837.31
-4840.76
-4844.01
-4847.02
-4849.78
-4852.27
-4854.5
-4856.45
-4858.14
-4859.57
-4860.76
-4861.72
-4862.46
-4863.02
-4863.41
-4863.65
-4863.77
-4863.78
-4863.72
-4863.6
-4863.44
-4863.26
-4863.07
-4862.9
-4862.75
-4862.63
-4862.55
-4862.5
-4790.58
-4791.04
-4791.96
-4793.38
-4795.28
-4797.62
-4800.35
-4803.43
-4806.81
-4810.42
-4814.2
-4818.11
-4822.07
-4826.04
-4829.95
-4833.76
-4837.43
-4840.92
-4844.19
-4847.23
-4850.01
-4852.52
-4854.75
-4856.71
-4858.39
-4859.82
-4860.99
-4861.93
-4862.65
-4863.18
-4863.54
-4863.75
-4863.84
-4863.83
-4863.74
-4863.59
-4863.41
-4863.21
-4863.01
-4862.83
-4862.67
-4862.54
-4862.45
-4862.41
-4790.36
-4790.82
-4791.74
-4793.17
-4795.09
-4797.46
-4800.23
-4803.35
-4806.77
-4810.42
-4814.25
-4818.2
-4822.21
-4826.21
-4830.16
-4834.01
-4837.7
-4841.21
-4844.5
-4847.55
-4850.33
-4852.84
-4855.06
-4857
-4858.66
-4860.05
-4861.19
-4862.09
-4862.77
-4863.25
-4863.56
-4863.72
-4863.76
-4863.7
-4863.57
-4863.39
-4863.17
-4862.95
-4862.73
-4862.52
-4862.35
-4862.22
-4862.13
-4862.09
-4790.31
-4790.77
-4791.69
-4793.14
-4795.08
-4797.48
-4800.29
-4803.45
-4806.9
-4810.6
-4814.47
-4818.45
-4822.49
-4826.52
-4830.5
-4834.36
-4838.07
-4841.59
-4844.89
-4847.93
-4850.7
-4853.19
-4855.39
-4857.3
-4858.92
-4860.27
-4861.35
-4862.19
-4862.81
-4863.23
-4863.47
-4863.57
-4863.54
-4863.41
-4863.22
-4862.98
-4862.72
-4862.45
-4862.2
-4861.98
-4861.79
-4861.66
-4861.57
-4861.52
-4790.5
-4790.95
-4791.87
-4793.34
-4795.3
-4797.73
-4800.55
-4803.73
-4807.21
-4810.92
-4814.81
-4818.81
-4822.87
-4826.92
-4830.91
-4834.78
-4838.5
-4842.02
-4845.31
-4848.34
-4851.1
-4853.56
-4855.72
-4857.59
-4859.17
-4860.46
-4861.48
-4862.26
-4862.8
-4863.15
-4863.31
-4863.32
-4863.21
-4863
-4862.72
-4862.41
-4862.07
-4861.74
-4861.44
-4861.18
-4860.98
-4860.83
-4860.75
-4860.71
-4790.97
-4791.42
-4792.34
-4793.8
-4795.76
-4798.17
-4800.99
-4804.16
-4807.63
-4811.34
-4815.23
-4819.24
-4823.3
-4827.36
-4831.35
-4835.23
-4838.94
-4842.46
-4845.74
-4848.75
-4851.49
-4853.92
-4856.05
-4857.87
-4859.4
-4860.63
-4861.59
-4862.3
-4862.77
-4863.03
-4863.11
-4863.03
-4862.82
-4862.51
-4862.14
-4861.72
-4861.29
-4860.86
-4860.48
-4860.15
-4859.9
-4859.74
-4859.65
-4859.64
-4791.77
-4792.21
-4793.11
-4794.51
-4796.43
-4798.79
-4801.56
-4804.69
-4808.12
-4811.81
-4815.68
-4819.68
-4823.74
-4827.79
-4831.78
-4835.66
-4839.37
-4842.88
-4846.15
-4849.15
-4851.86
-4854.26
-4856.36
-4858.14
-4859.62
-4860.8
-4861.69
-4862.33
-4862.73
-4862.91
-4862.9
-4862.73
-4862.42
-4862.01
-4861.52
-4860.99
-4860.43
-4859.88
-4859.38
-4858.94
-4858.6
-4858.36
-4858.27
-4858.27
-4792.98
-4793.36
-4794.18
-4795.45
-4797.25
-4799.51
-4802.19
-4805.24
-4808.62
-4812.27
-4816.11
-4820.09
-4824.14
-4828.19
-4832.18
-4836.05
-4839.76
-4843.26
-4846.52
-4849.5
-4852.19
-4854.57
-4856.64
-4858.38
-4859.82
-4860.95
-4861.79
-4862.37
-4862.69
-4862.8
-4862.71
-4862.45
-4862.05
-4861.53
-4860.93
-4860.27
-4859.57
-4858.88
-4858.21
-4857.6
-4857.11
-4856.71
-4856.57
-4856.54
-4794.7
-4794.88
-4795.53
-4796.54
-4798.16
-4800.25
-4802.81
-4805.77
-4809.08
-4812.68
-4816.5
-4820.46
-4824.49
-4828.53
-4832.52
-4836.39
-4840.1
-4843.6
-4846.85
-4849.82
-4852.49
-4854.85
-4856.89
-4858.61
-4860
-4861.09
-4861.88
-4862.41
-4862.67
-4862.71
-4862.55
-4862.21
-4861.72
-4861.11
-4860.4
-4859.61
-4858.78
-4857.92
-4857.07
-4856.24
-4855.52
-4854.84
-4854.56
-4854.36
-4797.07
-4796.72
-4797.07
-4797.69
-4799.06
-4800.96
-4803.38
-4806.24
-4809.48
-4813.03
-4816.81
-4820.76
-4824.78
-4828.82
-4832.8
-4836.67
-4840.38
-4843.88
-4847.12
-4850.09
-4852.75
-4855.09
-4857.11
-4858.8
-4860.17
-4861.22
-4861.97
-4862.45
-4862.67
-4862.65
-4862.43
-4862.02
-4861.46
-4860.76
-4859.95
-4859.05
-4858.08
-4857.06
-4856.02
-4854.94
-4853.93
-4852.84
-4852.29
-4851.58
-4800.21
-4798.79
-4798.69
-4798.78
-4799.88
-4801.57
-4803.85
-4806.61
-4809.79
-4813.29
-4817.05
-4820.98
-4825
-4829.04
-4833.03
-4836.9
-4840.61
-4844.1
-4847.35
-4850.31
-4852.96
-4855.29
-4857.29
-4858.96
-4860.31
-4861.33
-4862.06
-4862.5
-4862.68
-4862.62
-4862.34
-4861.88
-4861.26
-4860.49
-4859.6
-4858.61
-4857.52
-4856.35
-4855.13
-4853.8
-4852.47
-4850.84
-4849.87
-4848.09
-4804.22
-4800.91
-4800.22
-4799.73
-4800.55
-4802.04
-4804.21
-4806.89
-4810.01
-4813.49
-4817.23
-4821.15
-4825.16
-4829.2
-4833.19
-4837.07
-4840.78
-4844.27
-4847.52
-4850.47
-4853.12
-4855.45
-4857.44
-4859.09
-4860.42
-4861.43
-4862.13
-4862.54
-4862.69
-4862.6
-4862.29
-4861.79
-4861.12
-4860.3
-4859.35
-4858.28
-4857.1
-4855.81
-4854.43
-4852.87
-4851.24
-4849.01
-4847.48
-4843.79
-4809.01
-4802.86
-4801.5
-4800.45
-4801.04
-4802.38
-4804.46
-4807.07
-4810.16
-4813.61
-4817.34
-4821.25
-4825.27
-4829.31
-4833.3
-4837.18
-4840.89
-4844.39
-4847.64
-4850.59
-4853.24
-4855.56
-4857.54
-4859.19
-4860.5
-4861.5
-4862.18
-4862.58
-4862.71
-4862.59
-4862.26
-4861.73
-4861.03
-4860.17
-4859.18
-4858.05
-4856.81
-4855.44
-4853.94
-4852.2
-4850.32
-4847.52
-4845.35
-4838.78
-4814.24
-4804.4
-4802.4
-4800.93
-4801.35
-4802.58
-4804.6
-4807.18
-4810.24
-4813.68
-4817.4
-4821.31
-4825.33
-4829.37
-4833.36
-4837.25
-4840.96
-4844.46
-4847.71
-4850.66
-4853.31
-4855.63
-4857.61
-4859.25
-4860.56
-4861.54
-4862.22
-4862.6
-4862.72
-4862.59
-4862.24
-4861.7
-4860.98
-4860.1
-4859.08
-4857.92
-4856.64
-4855.21
-4853.64
-4851.78
-4849.72
-4846.49
-4843.69
-4833.41
-4819.17
-4805.38
-4802.89
-4801.18
-4801.5
-4802.68
-4804.67
-4807.23
-4810.28
-4813.71
-4817.43
-4821.34
-4825.36
-4829.4
-4833.39
-4837.28
-4840.99
-4844.49
-4847.74
-4850.7
-4853.34
-4855.66
-4857.63
-4859.27
-4860.58
-4861.56
-4862.23
-4862.62
-4862.73
-4862.59
-4862.24
-4861.68
-4860.95
-4860.06
-4859.03
-4857.86
-4856.56
-4855.1
-4853.49
-4851.57
-4849.42
-4845.95
-4842.67
-4828.41
-4823.12
-4805.81
-4803.06
-4801.27
-4801.55
-4802.72
-4804.69
-4807.25
-4810.29
-4813.72
-4817.44
-4821.35
-4825.37
-4829.41
-4833.4
-4837.28
-4841
-4844.5
-4847.75
-4850.71
-4853.35
-4855.67
-4857.64
-4859.28
-4860.59
-4861.57
-4862.24
-4862.62
-4862.73
-4862.59
-4862.23
-4861.68
-4860.94
-4860.05
-4859.02
-4857.84
-4856.53
-4855.07
-4853.45
-4851.51
-4849.31
-4845.77
-4842.22
-4824.44
)
;

boundaryField
{
    movingWall
    {
        type            zeroGradient;
    }
    fixedWalls
    {
        type            zeroGradient;
    }
    frontAndBack
    {
        type            empty;
    }
    defaultFaces
    {
        type            empty;
    }
}


// ************************************************************************* //
