/*--------------------------------*- C++ -*----------------------------------*\
  =========                 |
  \\      /  F ield         | OpenFOAM: The Open Source CFD Toolbox
   \\    /   O peration     | Website:  https://openfoam.org
    \\  /    A nd           | Version:  7
     \\/     M anipulation  |
\*---------------------------------------------------------------------------*/
FoamFile
{
    version     2.0;
    format      ascii;
    class       volScalarField;
    location    "5.1";
    object      p;
}
// * * * * * * * * * * * * * * * * * * * * * * * * * * * * * * * * * * * * * //

dimensions      [0 2 -2 0 0 0 0];

internalField   nonuniform List<scalar> 
900
(
-1.68305e-08
-0.000121622
-0.000256813
-0.000366177
-0.000421092
-0.000406481
-0.000317156
-0.000152757
8.51684e-05
0.000394411
0.000772392
0.00121586
0.00172029
0.00227904
0.00288267
0.00351829
0.00416924
0.0048152
0.00543295
0.00599768
0.00648502
0.0068736
0.00714772
0.00730006
0.00733359
0.00726293
0.00711498
0.00692823
0.00674951
0.00664407
0.000119807
-3.57055e-06
-9.68818e-05
-0.000160514
-0.000178744
-0.000139729
-3.84614e-05
0.000126702
0.00035582
0.00064797
0.00100139
0.00141327
0.0018793
0.00239311
0.00294574
0.0035252
0.00411625
0.00470093
0.0052588
0.00576846
0.00620932
0.00656377
0.00681955
0.00697188
0.00702484
0.00699196
0.0068958
0.0067671
0.00663998
0.00653722
0.000259545
8.62258e-05
-9.24902e-06
-6.19122e-05
-6.81542e-05
-1.98331e-05
8.60771e-05
0.000250525
0.000473731
0.000755299
0.00109411
0.001488
0.00193333
0.0024244
0.00295293
0.00350764
0.00407457
0.00463603
0.00517248
0.00566326
0.0060884
0.00643081
0.00667867
0.00682754
0.00688158
0.00685368
0.00676471
0.00664253
0.00651133
0.00636465
0.000375937
0.000142887
3.09503e-05
-2.37617e-05
-2.76852e-05
2.35512e-05
0.00013045
0.000292668
0.000510156
0.000782855
0.00111031
0.00149123
0.00192288
0.00240054
0.00291685
0.00346133
0.00402028
0.00457642
0.00510995
0.00559954
0.00602422
0.00636575
0.00661125
0.00675554
0.00680247
0.00676476
0.00666308
0.00652498
0.00636918
0.00617016
0.000433003
0.000142148
1.00715e-05
-5.21633e-05
-5.89171e-05
-8.87748e-06
9.61388e-05
0.000254526
0.000465945
0.000730686
0.00104905
0.00142076
0.00184422
0.00231585
0.00282932
0.00337492
0.00393921
0.00450474
0.00505068
0.00555399
0.00599142
0.0063422
0.00659116
0.00673153
0.00676659
0.00670951
0.00658232
0.00641472
0.00622446
0.005973
0.000404516
6.09878e-05
-9.21991e-05
-0.000165053
-0.000178154
-0.000132525
-3.18737e-05
0.000121179
0.000326145
0.000583777
0.000895269
0.0012615
0.00168223
0.00215522
0.00267532
0.00323363
0.00381692
0.00440712
0.00498172
0.00551495
0.00597997
0.00635204
0.00661226
0.00675121
0.00677131
0.00668679
0.00652271
0.00631364
0.00608041
0.00577703
0.0002723
-0.000118177
-0.000292018
-0.00037699
-0.000398653
-0.000359803
-0.000265608
-0.000119388
7.84323e-05
0.000329243
0.0006353
0.000998857
0.00142123
0.00190179
0.00243684
0.00301847
0.0036337
0.00426376
0.00488387
0.00546464
0.00597428
0.00638233
0.00666441
0.00680702
0.006811
0.00669213
0.0064802
0.00621748
0.00593158
0.00557316
2.27443e-05
-0.000409766
-0.000603322
-0.00070109
-0.000732817
-0.000702693
-0.000616995
-0.000479462
-0.000290233
-4.70913e-05
0.000253477
0.000615333
0.00104165
0.00153376
0.00208984
0.00270343
0.00336208
0.0040466
0.0047297
0.00537759
0.00595212
0.00641508
0.00673419
0.00688964
0.00687925
0.00672034
0.00644907
0.00611849
0.00576658
0.00534248
-0.000355244
-0.000826192
-0.00103871
-0.00114984
-0.00119305
-0.00117372
-0.00109901
-0.000972894
-0.000795049
-0.000562274
-0.000269611
8.86537e-05
0.000517899
0.00102191
0.00160138
0.00225206
0.00296268
0.0037147
0.0044784
0.00521534
0.00587965
0.00642292
0.00680166
0.00698614
0.00696842
0.00676622
0.00642333
0.00600721
0.00557004
0.00505888
-0.000871273
-0.00137837
-0.00160959
-0.00173492
-0.00179139
-0.00178551
-0.00172526
-0.00161473
-0.00145311
-0.00123613
-0.000957272
-0.000608761
-0.000182659
0.000327856
0.000926886
0.00161344
0.00237864
0.00320728
0.00406756
0.00491706
0.00570148
0.0063596
0.00683217
0.00707397
0.00706596
0.00682307
0.00639692
0.00587355
0.00532408
0.00469048
-0.00153398
-0.00207607
-0.00232629
-0.00246718
-0.00253932
-0.00255047
-0.00250948
-0.0024207
-0.0022829
-0.00209081
-0.0018364
-0.00150976
-0.00110013
-0.000597119
7.75477e-06
0.000718394
0.00153053
0.00243574
0.0034024
0.0043865
0.00532614
0.00614512
0.0067629
0.00711021
0.0071475
0.0068795
0.00636332
0.00570802
0.00500994
0.00420063
-0.00235125
-0.00292811
-0.00319819
-0.00335655
-0.0034475
-0.00348029
-0.00346498
-0.00340644
-0.00330331
-0.00314968
-0.00293631
-0.00265137
-0.00228134
-0.00181191
-0.00122932
-0.000521973
0.000316567
0.00127577
0.00234308
0.00347512
0.00460561
0.00564343
0.0064809
0.00701283
0.00716333
0.00691203
0.00631333
0.00550261
0.00460996
0.00354942
-0.0033302
-0.00394252
-0.0042338
-0.00441195
-0.0045254
-0.00458537
-0.00460362
-0.00458609
-0.00453193
-0.00443524
-0.00428628
-0.00407209
-0.00377697
-0.00338298
-0.00287063
-0.00221984
-0.00141301
-0.000443263
0.000692834
0.00196427
0.00331114
0.00463283
0.00579116
0.00663051
0.00701436
0.00686972
0.00622851
0.00525041
0.00411001
0.00269582
-0.00447713
-0.00512656
-0.00544071
-0.00564108
-0.00578083
-0.00587384
-0.00593438
-0.00597037
-0.00598239
-0.00596567
-0.0059113
-0.00580663
-0.00563537
-0.0053773
-0.00500785
-0.00449769
-0.0038135
-0.00292264
-0.00180199
-0.000443985
0.00111416
0.00277685
0.00437946
0.0057024
0.00651552
0.00664754
0.00606721
0.00494252
0.00350216
0.0016011
-0.00579747
-0.006487
-0.00682578
-0.0070503
-0.00721931
-0.00735044
-0.00746162
-0.00756394
-0.00766081
-0.00775017
-0.0078259
-0.00787807
-0.0078926
-0.00784996
-0.00772306
-0.00747437
-0.00705305
-0.006395
-0.00543542
-0.00411208
-0.00240785
-0.00038354
0.00178863
0.00382092
0.00535312
0.00604934
0.00574163
0.00456136
0.00278864
0.000235109
-0.00729605
-0.0080306
-0.00839549
-0.00864456
-0.00884354
-0.00901528
-0.00918294
-0.00936238
-0.00956151
-0.00978309
-0.0100263
-0.0102873
-0.0105583
-0.0108252
-0.0110632
-0.0112305
-0.0112598
-0.0110522
-0.010479
-0.00940227
-0.007709
-0.00537985
-0.00255374
0.000431656
0.00306056
0.00475313
0.00508982
0.00407099
0.00198897
-0.00141109
-0.0089777
-0.00976522
-0.0101568
-0.0104278
-0.010653
-0.0108626
-0.0110871
-0.0113489
-0.0116625
-0.0120377
-0.012482
-0.0130013
-0.0135994
-0.0142736
-0.0150086
-0.0157646
-0.0164622
-0.0169663
-0.0170756
-0.0165408
-0.0151275
-0.012669
-0.00920646
-0.00507576
-0.000939357
0.00231182
0.00385985
0.00341024
0.00115406
-0.00330019
-0.0108488
-0.0117019
-0.0121189
-0.0124037
-0.0126439
-0.0128798
-0.0131519
-0.0134916
-0.0139215
-0.0144607
-0.0151279
-0.0159428
-0.0169253
-0.0180911
-0.019442
-0.0209486
-0.0225263
-0.0240069
-0.0251124
-0.0254555
-0.0246827
-0.0223948
-0.0184646
-0.0131414
-0.00716755
-0.00175523
0.00174285
0.00250421
0.000393484
-0.00530176
-0.0129202
-0.0138581
-0.0142956
-0.0145773
-0.0148094
-0.0150468
-0.0153434
-0.0157414
-0.0162736
-0.0169698
-0.0178618
-0.0189857
-0.0203818
-0.0220892
-0.0241332
-0.0265025
-0.0291146
-0.0317755
-0.0341459
-0.0357336
-0.0359146
-0.0341554
-0.0300703
-0.023715
-0.0157876
-0.00773587
-0.00149975
0.00132591
-7.51196e-05
-0.00711314
-0.0152121
-0.0162641
-0.0167099
-0.016957
-0.0171403
-0.0173359
-0.0176148
-0.0180324
-0.0186321
-0.019455
-0.0205466
-0.0219606
-0.0237589
-0.0260061
-0.0287538
-0.0320124
-0.0357074
-0.0396267
-0.0433761
-0.0463577
-0.0477775
-0.0468829
-0.0430237
-0.0359876
-0.0262814
-0.0154062
-0.00579389
3.66046e-05
0.000155629
-0.00813795
-0.0177635
-0.0189718
-0.0194004
-0.0195581
-0.0196264
-0.0197117
-0.0199075
-0.0202831
-0.0208923
-0.0217863
-0.023023
-0.0246724
-0.0268167
-0.0295438
-0.0329294
-0.0370037
-0.0417008
-0.0467963
-0.0518525
-0.0561894
-0.0588974
-0.0590251
-0.0556848
-0.0483705
-0.0372861
-0.0237595
-0.010461
-0.000792544
0.00180606
-0.00731794
-0.0206493
-0.0220706
-0.0224299
-0.0224053
-0.0222557
-0.0221313
-0.0221519
-0.0224007
-0.0229393
-0.023826
-0.0251282
-0.0269284
-0.0293249
-0.0324234
-0.0363167
-0.041047
-0.0465514
-0.0525941
-0.0587044
-0.0641483
-0.0679528
-0.0689807
-0.0662054
-0.0588539
-0.0467919
-0.030995
-0.0140409
4.4209e-05
0.00607262
-0.00293507
-0.0240147
-0.0257127
-0.0258968
-0.025535
-0.0250133
-0.0245416
-0.024268
-0.0242853
-0.0246573
-0.0254444
-0.0267183
-0.0285692
-0.031105
-0.0344415
-0.0386781
-0.0438568
-0.0499107
-0.0565842
-0.0633818
-0.0695265
-0.0739909
-0.075568
-0.0730977
-0.0656066
-0.0526755
-0.0348665
-0.0143956
0.00447669
0.0148136
0.00757606
-0.0281486
-0.0301542
-0.0299484
-0.0289918
-0.0278734
-0.0268741
-0.0261633
-0.0258324
-0.0259377
-0.0265334
-0.0276887
-0.0294951
-0.0320628
-0.0355086
-0.039927
-0.0453458
-0.0516919
-0.0586671
-0.0657554
-0.0721392
-0.0767447
-0.0783155
-0.0756154
-0.0674779
-0.053294
-0.0332509
-0.00911125
0.0150485
0.0307263
0.0277491
-0.0336442
-0.0358187
-0.0347862
-0.0328133
-0.0307804
-0.0290292
-0.0277229
-0.0269291
-0.0266797
-0.0270114
-0.0279818
-0.0296762
-0.0321983
-0.0356557
-0.0401302
-0.0456282
-0.0520314
-0.0590243
-0.0660398
-0.0722202
-0.0764426
-0.0773915
-0.0736927
-0.0641125
-0.0478272
-0.0246863
0.00390017
0.0346107
0.0573783
0.0619887
-0.0417788
-0.0433873
-0.0406324
-0.0369747
-0.033598
-0.0308312
-0.028771
-0.0274208
-0.0267632
-0.0268007
-0.0275656
-0.0291297
-0.0315792
-0.0350025
-0.0394547
-0.0449106
-0.0512084
-0.0579871
-0.0646279
-0.0702215
-0.073581
-0.0732994
-0.0678642
-0.0558726
-0.0362666
-0.00872965
0.0258056
0.0655172
0.0985374
0.115242
-0.0556286
-0.0539434
-0.0476241
-0.0412634
-0.0359899
-0.0319228
-0.0289784
-0.0270352
-0.0259858
-0.0257731
-0.0263908
-0.0278764
-0.0302907
-0.0336924
-0.0381012
-0.0434497
-0.0495275
-0.0559187
-0.0619501
-0.0666552
-0.0687784
-0.0667862
-0.0589937
-0.0437459
-0.0196585
0.0140193
0.0569841
0.108003
0.156138
0.19445
-0.0830239
-0.0687061
-0.0557306
-0.045169
-0.0372954
-0.0316858
-0.0278373
-0.0253955
-0.0241007
-0.0237978
-0.0244191
-0.0259578
-0.0284392
-0.0318864
-0.0362795
-0.0415068
-0.0473083
-0.053216
-0.0585007
-0.0621355
-0.0628092
-0.0588855
-0.0485161
-0.0296616
-0.000427433
0.040776
0.0946611
0.161332
0.23096
0.313478
-0.135387
-0.0840444
-0.0626561
-0.0462432
-0.0353128
-0.0284099
-0.0241505
-0.0216963
-0.0205731
-0.0205229
-0.0214204
-0.0232223
-0.0259257
-0.029527
-0.0339779
-0.0391356
-0.0447089
-0.0502019
-0.0548608
-0.0576222
-0.0570835
-0.0516053
-0.0392734
-0.0176433
0.0158664
0.0643209
0.130776
0.220051
0.328489
0.498479
-0.307801
-0.0936678
-0.0452336
-0.0274752
-0.0179783
-0.0133141
-0.0115382
-0.0112803
-0.0119135
-0.0132341
-0.0151991
-0.017826
-0.0211536
-0.0252075
-0.0299594
-0.035282
-0.0408994
-0.0463362
-0.050872
-0.0535082
-0.0529559
-0.0475338
-0.0351038
-0.0133507
0.0206699
0.0715188
0.145861
0.2612
0.436764
0.780781
)
;

boundaryField
{
    movingWall
    {
        type            zeroGradient;
    }
    fixedWalls
    {
        type            zeroGradient;
    }
    frontAndBack
    {
        type            empty;
    }
}


// ************************************************************************* //
