/*--------------------------------*- C++ -*----------------------------------*\
  =========                 |
  \\      /  F ield         | OpenFOAM: The Open Source CFD Toolbox
   \\    /   O peration     | Website:  https://openfoam.org
    \\  /    A nd           | Version:  7
     \\/     M anipulation  |
\*---------------------------------------------------------------------------*/
FoamFile
{
    version     2.0;
    format      ascii;
    class       surfaceScalarField;
    location    "5.1";
    object      phi;
}
// * * * * * * * * * * * * * * * * * * * * * * * * * * * * * * * * * * * * * //

dimensions      [0 3 -1 0 0 0 0];

internalField   nonuniform List<scalar> 
1740
(
3.703e-07
-3.70285e-07
-6.52668e-07
1.02297e-06
-3.13549e-06
2.48282e-06
-6.74009e-06
3.60461e-06
-1.10853e-05
4.34525e-06
-1.58457e-05
4.76038e-06
-2.07727e-05
4.92695e-06
-2.56828e-05
4.9101e-06
-3.04361e-05
4.75329e-06
-3.49156e-05
4.4795e-06
-3.90113e-05
4.09577e-06
-4.26099e-05
3.59857e-06
-4.55891e-05
2.97924e-06
-4.78186e-05
2.22944e-06
-4.91649e-05
1.34634e-06
-4.95023e-05
3.37414e-07
-4.87267e-05
-7.7565e-07
-4.67737e-05
-1.95299e-06
-4.36378e-05
-3.13592e-06
-3.93892e-05
-4.24859e-06
-3.41864e-05
-5.20278e-06
-2.82802e-05
-5.90623e-06
-2.20066e-05
-6.27354e-06
-1.57688e-05
-6.23783e-06
-1.00075e-05
-5.76131e-06
-5.1638e-06
-4.84367e-06
-1.63021e-06
-3.5336e-06
3.2712e-07
-1.95732e-06
7.07352e-07
-3.8023e-07
7.07354e-07
-1.02189e-06
6.51603e-07
-5.09599e-06
5.09707e-06
-1.21218e-05
9.50858e-06
-2.14874e-05
1.29703e-05
-3.24921e-05
1.535e-05
-4.4478e-05
1.67463e-05
-5.68859e-05
1.73349e-05
-6.92598e-05
1.7284e-05
-8.12245e-05
1.6718e-05
-9.24558e-05
1.57107e-05
-0.000102653
1.42927e-05
-0.000111518
1.24642e-05
-0.00011875
1.02105e-05
-0.000124039
7.5189e-06
-0.000127087
4.39433e-06
-0.000127623
8.73656e-07
-0.000125442
-2.95741e-06
-0.000120429
-6.96517e-06
-0.000112614
-1.09518e-05
-0.00010219
-1.46719e-05
-8.95486e-05
-1.78444e-05
-7.52754e-05
-2.01794e-05
-6.01367e-05
-2.14123e-05
-4.50331e-05
-2.13414e-05
-3.09302e-05
-1.98642e-05
-1.87658e-05
-1.70081e-05
-9.33483e-06
-1.29646e-05
-3.15157e-06
-8.14057e-06
-3.03905e-07
-3.22789e-06
4.0345e-07
-2.60313e-06
3.25473e-06
-9.90531e-06
1.23993e-05
-2.11766e-05
2.07799e-05
-3.55369e-05
2.73306e-05
-5.20584e-05
3.18715e-05
-6.98747e-05
3.45626e-05
-8.82292e-05
3.56893e-05
-0.000106481
3.55355e-05
-0.000124084
3.43208e-05
-0.000140556
3.21832e-05
-0.00015545
2.91871e-05
-0.00016833
2.53435e-05
-0.000178757
2.06382e-05
-0.0001863
1.50611e-05
-0.000190542
8.63709e-06
-0.000191125
1.45671e-06
-0.000187769
-6.31327e-06
-0.000180345
-1.43894e-05
-0.000168909
-2.23879e-05
-0.000153752
-2.98288e-05
-0.000135429
-3.61677e-05
-0.000114762
-4.08462e-05
-9.28159e-05
-4.33586e-05
-7.08318e-05
-4.33255e-05
-5.01299e-05
-4.05661e-05
-3.19793e-05
-3.51587e-05
-1.74482e-05
-2.74957e-05
-7.24799e-06
-1.83408e-05
-1.57093e-06
-8.90495e-06
-1.16748e-06
-4.01147e-06
7.2662e-06
-1.42873e-05
2.26751e-05
-2.94419e-05
3.59345e-05
-4.82242e-05
4.61129e-05
-6.94813e-05
5.31286e-05
-9.21831e-05
5.72644e-05
-0.000115437
5.89427e-05
-0.000138477
5.85759e-05
-0.000160643
5.64871e-05
-0.000181344
5.28843e-05
-0.000200027
4.78696e-05
-0.000216151
4.14681e-05
-0.000229181
3.3668e-05
-0.000238586
2.44658e-05
-0.000243862
1.39127e-05
-0.000244566
2.16109e-06
-0.000240363
-1.05164e-05
-0.000231088
-2.36644e-05
-0.000216804
-3.66721e-05
-0.000197857
-4.87759e-05
-0.000174914
-5.91097e-05
-0.000148976
-6.67845e-05
-0.00012134
-7.09949e-05
-9.3525e-05
-7.11404e-05
-6.71484e-05
-6.69427e-05
-4.3765e-05
-5.85421e-05
-2.46933e-05
-4.65674e-05
-1.08534e-05
-3.21807e-05
-2.6505e-06
-1.71078e-05
-3.81798e-06
-5.19319e-06
1.24594e-05
-1.80974e-05
3.55793e-05
-3.67192e-05
5.45563e-05
-5.94237e-05
6.88174e-05
-8.48235e-05
7.85284e-05
-0.000111739
8.41802e-05
-0.000139173
8.63759e-05
-0.000166275
8.56784e-05
-0.000192312
8.25236e-05
-0.000216621
7.71933e-05
-0.000238578
6.98272e-05
-0.000257572
6.04616e-05
-0.000272987
4.9083e-05
-0.00028421
3.56893e-05
-0.000290651
2.03539e-05
-0.00029178
3.29e-06
-0.00028718
-1.51167e-05
-0.000276617
-3.4227e-05
-0.000260117
-5.31728e-05
-0.00023803
-7.08629e-05
-0.000211091
-8.60488e-05
-0.000180437
-9.74384e-05
-0.00014758
-0.000103852
-0.000114318
-0.000104402
-8.25859e-05
-9.86751e-05
-5.42577e-05
-8.68703e-05
-3.09416e-05
-6.98835e-05
-1.37992e-05
-4.93231e-05
-3.4449e-06
-2.74621e-05
-7.26288e-06
-6.17529e-06
1.86347e-05
-2.13669e-05
5.07709e-05
-4.30591e-05
7.62485e-05
-6.9256e-05
9.50143e-05
-9.83402e-05
0.000107613
-0.000128992
0.000114832
-0.000160126
0.00011751
-0.000190837
0.00011639
-0.000220348
0.000112034
-0.000247958
0.000104803
-0.000273001
9.48701e-05
-0.000294814
8.22748e-05
-0.00031272
6.69891e-05
-0.000326027
4.89968e-05
-0.000334049
2.83757e-05
-0.000336143
5.38407e-06
-0.00033177
-1.94902e-05
-0.000320572
-4.54246e-05
-0.000302471
-7.12742e-05
-0.000277757
-9.55767e-05
-0.000247175
-0.000116631
-0.00021197
-0.000132644
-0.000173871
-0.000141951
-0.000134999
-0.000143274
-9.76849e-05
-0.000135989
-6.42229e-05
-0.000120332
-3.6599e-05
-9.75074e-05
-1.62643e-05
-6.96577e-05
-4.01023e-06
-3.97162e-05
-1.12731e-05
-7.00572e-06
2.56404e-05
-2.41969e-05
6.7962e-05
-4.86213e-05
0.000100673
-7.79596e-05
0.000124353
-0.000110381
0.000140034
-0.000144436
0.000148887
-0.000178969
0.000152044
-0.000213042
0.000150462
-0.000245858
0.000144851
-0.000276706
0.000135651
-0.000304903
0.000123068
-0.000329758
0.000107129
-0.00035054
8.77719e-05
-0.000366481
6.4937e-05
-0.000376779
3.8674e-05
-0.000380645
9.25051e-06
-0.000377362
-2.27738e-05
-0.000366371
-5.64153e-05
-0.0003474
-9.02452e-05
-0.000320586
-0.00012239
-0.000286605
-0.000150612
-0.000246763
-0.000172487
-0.000203014
-0.0001857
-0.000157875
-0.000188413
-0.000114204
-0.00017966
-7.48746e-05
-0.000159662
-4.24018e-05
-0.00012998
-1.86138e-05
-9.34457e-05
-4.4625e-06
-5.38676e-05
-1.57356e-05
-7.72991e-06
3.33703e-05
-2.67012e-05
8.69333e-05
-5.3594e-05
0.000127566
-8.58049e-05
0.000156564
-0.000121311
0.00017554
-0.00015855
0.000186126
-0.000196314
0.000189807
-0.000233648
0.000187796
-0.000269767
0.000180969
-0.000303974
0.000169858
-0.000335596
0.00015469
-0.000363934
0.000135467
-0.000388222
0.00011206
-0.000407611
8.43259e-05
-0.000421172
5.22352e-05
-0.000427928
1.60061e-05
-0.000426915
-2.37863e-05
-0.000417278
-6.60522e-05
-0.00039843
-0.000109093
-0.000370223
-0.000150598
-0.000333138
-0.000187696
-0.00028846
-0.000217165
-0.000238357
-0.000235802
-0.000185821
-0.000240948
-0.000134415
-0.000231066
-8.78301e-05
-0.000206247
-4.93463e-05
-0.000168464
-2.13338e-05
-0.000121458
-4.94136e-06
-7.026e-05
-2.0677e-05
-8.38366e-06
4.1754e-05
-2.89807e-05
0.00010753
-5.81519e-05
0.000156737
-9.30429e-05
0.000191455
-0.000131461
0.000213957
-0.000171748
0.000226414
-0.000212663
0.000230722
-0.00025326
0.000228394
-0.000292789
0.000220499
-0.000330601
0.000207669
-0.000366062
0.000190152
-0.000398496
0.0001679
-0.000427121
0.000140685
-0.000451022
0.000108227
-0.000469131
7.0344e-05
-0.000480244
2.71189e-05
-0.000483085
-2.09455e-05
-0.000476377
-7.27595e-05
-0.000459068
-0.000126402
-0.000430537
-0.000179129
-0.000390886
-0.000227347
-0.000341227
-0.000266824
-0.000283876
-0.000293153
-0.000222369
-0.000302456
-0.000161183
-0.000292252
-0.00010516
-0.00026227
-5.87106e-05
-0.000214913
-2.5035e-05
-0.000155134
-5.61084e-06
-8.96841e-05
-2.62878e-05
-8.9931e-06
5.07471e-05
-3.11154e-05
0.000129653
-6.24382e-05
0.00018806
-9.98791e-05
0.000228895
-0.000141093
0.000255171
-0.000184346
0.000269667
-0.000228383
0.000274758
-0.000272294
0.000272304
-0.000315395
0.0002636
-0.000357117
0.000249392
-0.000396911
0.000229946
-0.00043416
0.000205149
-0.000468105
0.000174631
-0.00049779
0.000137912
-0.000522013
9.45674e-05
-0.000539319
4.4424e-05
-0.000548057
-1.22067e-05
-0.000546388
-7.44291e-05
-0.000532609
-0.000140181
-0.000505388
-0.000206351
-0.000464177
-0.000268558
-0.000409664
-0.000321337
-0.000344157
-0.000358659
-0.000271743
-0.00037487
-0.000198043
-0.000365953
-0.000129476
-0.000330836
-7.21227e-05
-0.000272267
-3.04922e-05
-0.000196764
-6.6736e-06
-0.000113503
-3.29614e-05
-9.57648e-06
6.03236e-05
-3.31648e-05
0.000153241
-6.65611e-05
0.000221456
-0.000106466
0.0002688
-0.000150394
0.0002991
-0.000196551
0.000315824
-0.000243688
0.000321895
-0.000290958
0.000319575
-0.000337781
0.000310422
-0.000383711
0.000295322
-0.000428329
0.000274564
-0.000471133
0.000247953
-0.000511443
0.000214941
-0.000548309
0.000174777
-0.000580426
0.000126685
-0.000606077
7.00744e-05
-0.000623197
4.91341e-06
-0.000629242
-6.83844e-05
-0.000621666
-0.000147757
-0.000598124
-0.000229892
-0.000557065
-0.000309618
-0.000498387
-0.000380014
-0.000424095
-0.000432951
-0.000338709
-0.000460256
-0.000249166
-0.000455496
-0.000163974
-0.000416029
-9.16221e-05
-0.000344619
-3.86873e-05
-0.000249699
-8.38655e-06
-0.000143803
-4.13479e-05
-1.01465e-05
7.047e-05
-3.51726e-05
0.000178267
-7.05991e-05
0.000256883
-0.000112907
0.000311109
-0.000159476
0.000345669
-0.000208459
0.000364807
-0.000258635
0.000372071
-0.00030925
0.000370189
-0.00035986
0.000361032
-0.000410195
0.000345656
-0.00046002
0.00032439
-0.000509019
0.000296952
-0.00055666
0.000262582
-0.000602072
0.000220189
-0.00064391
0.000168523
-0.000680247
0.000106411
-0.000708434
3.31006e-05
-0.00072537
-5.14481e-05
-0.000727312
-0.000145815
-0.000710627
-0.000246577
-0.000672351
-0.000347894
-0.000611111
-0.000441254
-0.00052813
-0.000515933
-0.000428034
-0.000560352
-0.000319078
-0.000564452
-0.000212339
-0.000522768
-0.000119669
-0.000437288
-5.08375e-05
-0.000318531
-1.10728e-05
-0.000183568
-5.24207e-05
-1.07134e-05
8.11834e-05
-3.7175e-05
0.000204729
-7.46138e-05
0.000294321
-0.000119276
0.00035577
-0.000168394
0.000394787
-0.000220077
0.000416489
-0.000273145
0.00042514
-0.000326963
0.000424007
-0.000381262
0.000415332
-0.000435992
0.000400386
-0.000491167
0.000379565
-0.000546724
0.000352509
-0.000602369
0.000318227
-0.0006574
0.00027522
-0.000710516
0.000221639
-0.000759625
0.00015552
-0.000801668
7.51436e-05
-0.000832726
-2.03905e-05
-0.000847859
-0.000130681
-0.000841891
-0.000252545
-0.000810036
-0.000379748
-0.0007491
-0.000502191
-0.00065886
-0.000606173
-0.00054341
-0.000675801
-0.000411966
-0.000695896
-0.00027843
-0.000656304
-0.000159062
-0.000556656
-6.8399e-05
-0.000409194
-1.51303e-05
-0.000236837
-6.75511e-05
-1.12895e-05
9.24729e-05
-3.92131e-05
0.000232652
-7.86707e-05
0.000333779
-0.000125636
0.000402736
-0.000177178
0.000446329
-0.000231352
0.000470663
-0.000287033
0.000480821
-0.00034372
0.000480694
-0.000401354
0.000472966
-0.000460143
0.000459175
-0.000520403
0.000439825
-0.000582396
0.000414502
-0.000646145
0.000381976
-0.000711215
0.00034029
-0.000776462
0.000286885
-0.00083975
0.000218808
-0.000897705
0.000133099
-0.000945591
2.7495e-05
-0.000977423
-9.88482e-05
-0.0009863
-0.000243669
-0.000965372
-0.000400675
-0.000909112
-0.000558451
-0.000815061
-0.000700225
-0.000685772
-0.00080509
-0.000530492
-0.000851175
-0.000365633
-0.000821163
-0.000212708
-0.000709581
-9.30402e-05
-0.000528861
-2.1042e-05
-0.000308835
-8.85931e-05
-1.18948e-05
0.000104368
-4.13495e-05
0.000262107
-8.28663e-05
0.000375296
-0.000132087
0.000451956
-0.000185876
0.000500118
-0.000242224
0.000527012
-0.000300059
0.000538655
-0.000359028
0.000539663
-0.000419296
0.000533234
-0.000481355
0.000521234
-0.000545855
0.000504325
-0.000613426
0.000482074
-0.000684473
0.000453023
-0.000758916
0.000414733
-0.000835879
0.000363848
-0.000913333
0.000296262
-0.000987764
0.00020753
-0.00105389
9.36189e-05
-0.00110482
-4.79156e-05
-0.00113217
-0.000216318
-0.00112704
-0.000405805
-0.00108128
-0.000604215
-0.000989407
-0.000792096
-0.000851122
-0.000943375
-0.000674044
-0.00102825
-0.000475778
-0.00101943
-0.000283193
-0.000902165
-0.000126569
-0.000685486
-2.9392e-05
-0.000406012
-0.000117985
-1.2565e-05
0.000116933
-4.36904e-05
0.000293232
-8.7365e-05
0.00041897
-0.000138803
0.000503394
-0.00019461
0.000555925
-0.000252685
0.000585087
-0.000312001
0.000597971
-0.000372354
0.000600017
-0.000434131
0.000595011
-0.000498105
0.000585208
-0.000565258
0.000571478
-0.000636593
0.000553409
-0.000712917
0.000529346
-0.000794554
0.00049637
-0.000880997
0.00045029
-0.000970496
0.000385762
-0.00105966
0.000296691
-0.00114311
0.000177076
-0.00121342
2.23926e-05
-0.00126134
-0.000168404
-0.00127633
-0.000390808
-0.00124775
-0.000632794
-0.00116661
-0.000873245
-0.00102832
-0.00108166
-0.000836582
-0.00121999
-0.000607546
-0.00124847
-0.000371997
-0.00113771
-0.00017076
-0.000886723
-4.08827e-05
-0.00053589
-0.000158868
-1.33623e-05
0.000130295
-4.64157e-05
0.000326286
-9.24448e-05
0.000464999
-0.000146096
0.000557045
-0.000203639
0.000613468
-0.000262851
0.000644298
-0.000322737
0.000657857
-0.00038323
0.00066051
-0.000444916
0.000656697
-0.000508815
0.000649107
-0.000576194
0.000638857
-0.000648383
0.000625598
-0.000726553
0.000607516
-0.000811433
0.00058125
-0.00090295
0.000541808
-0.000999812
0.000482623
-0.00109908
0.000395955
-0.0011958
0.000273799
-0.00128279
0.000109387
-0.00135063
-0.000100568
-0.00138831
-0.000353125
-0.00138327
-0.000637841
-0.00132303
-0.00093348
-0.00119775
-0.00120694
-0.00100462
-0.00141312
-0.000754455
-0.00149863
-0.000478231
-0.00141394
-0.000226976
-0.00113798
-5.63334e-05
-0.000706532
-0.000215201
-1.4391e-05
0.000144686
-4.98189e-05
0.000361714
-9.85559e-05
0.000513736
-0.000154479
0.000612969
-0.000213431
0.000672421
-0.000273036
0.000703902
-0.000332325
0.000717146
-0.000391353
0.000719537
-0.000450867
0.000716211
-0.00051207
0.00071031
-0.000576426
0.000703213
-0.00064549
0.000694662
-0.000720706
0.000682732
-0.000803153
0.000663697
-0.000893218
0.000631873
-0.000990222
0.000579627
-0.00109203
0.000497759
-0.00119469
0.000376465
-0.00129228
0.000206973
-0.00137587
-1.6972e-05
-0.00143581
-0.000293186
-0.00145854
-0.00061511
-0.00142907
-0.000962953
-0.00133211
-0.0013039
-0.00115641
-0.00158882
-0.000903031
-0.00175201
-0.000596974
-0.00171999
-0.000295477
-0.00143948
-7.6634e-05
-0.000925375
-0.000291835
-1.58231e-05
0.000160509
-5.43651e-05
0.000400256
-0.000106396
0.000565767
-0.000164746
0.000671318
-0.000224729
0.000732404
-0.000283812
0.000762986
-0.000341071
0.000774406
-0.000396678
0.000775143
-0.000451502
0.000771036
-0.000506847
0.000765655
-0.000564263
0.000760629
-0.000625399
0.000755797
-0.000691842
0.000749176
-0.000764926
0.000736781
-0.000845484
0.00071243
-0.000933564
0.000667708
-0.00102814
0.000592334
-0.0011268
0.000475127
-0.00122543
0.000305606
-0.00131818
7.57699e-05
-0.00139571
-0.000215648
-0.00144662
-0.000564203
-0.0014548
-0.000954768
-0.00140065
-0.00135806
-0.00126397
-0.0017255
-0.00103248
-0.00198351
-0.000717689
-0.00203478
-0.000374401
-0.00178276
-0.000102637
-0.00119714
-0.000394472
-1.79405e-05
0.00017845
-6.07792e-05
0.000443094
-0.000117009
0.000621998
-0.000178043
0.000732351
-0.000238592
0.000792953
-0.000296021
0.000820414
-0.000349519
0.000827904
-0.000399409
0.000825033
-0.000446665
0.000818292
-0.000492622
0.000811612
-0.000538807
0.000806814
-0.000586833
0.000803823
-0.000638304
0.000800647
-0.000694709
0.000793186
-0.000757292
0.000775014
-0.000826902
0.000737318
-0.000903822
0.000669253
-0.000987554
0.000558859
-0.00107653
0.000394585
-0.00116787
0.000167109
-0.00125534
-0.000128178
-0.00133024
-0.000489307
-0.00137772
-0.000907289
-0.00137625
-0.00135953
-0.00129836
-0.00180339
-0.00111717
-0.0021647
-0.000823965
-0.00232798
-0.000458695
-0.00214803
-0.000134993
-0.00152084
-0.000529465
-2.1216e-05
0.000199666
-7.01871e-05
0.000492066
-0.000131918
0.000683728
-0.000195946
0.00079638
-0.000256392
0.000853399
-0.000310686
0.000874708
-0.000358301
0.000875519
-0.000399815
0.000866547
-0.000436334
0.00085481
-0.000469194
0.000844472
-0.000499831
0.000837451
-0.000529733
0.000833725
-0.000560429
0.000831343
-0.000593491
0.000826248
-0.000630534
0.000812057
-0.000673213
0.000779997
-0.00072319
0.00071923
-0.000781993
0.000617662
-0.000850774
0.000463366
-0.000929891
0.000246226
-0.00101712
-4.095e-05
-0.0011075
-0.000398926
-0.00118956
-0.000825229
-0.0012431
-0.00130599
-0.00123702
-0.00180946
-0.00113195
-0.00226977
-0.000895497
-0.00256444
-0.000539547
-0.00250398
-0.000173907
-0.00188648
-0.000703372
-2.64687e-05
0.000226134
-8.43487e-05
0.000549946
-0.000153289
0.000752669
-0.00022048
0.000863571
-0.000279659
0.000912577
-0.000328707
0.000923757
-0.0003677
0.000914512
-0.00039767
0.000896517
-0.000419959
0.0008771
-0.000435944
0.000860457
-0.000446965
0.000848472
-0.000454362
0.000841121
-0.000459554
0.000836535
-0.00046416
0.000830854
-0.00047012
0.000818017
-0.000479827
0.000789704
-0.000496245
0.000735647
-0.000522762
0.000644179
-0.000563042
0.000503646
-0.000620422
0.000303606
-0.000697211
3.58391e-05
-0.000791831
-0.000304305
-0.000898251
-0.00071881
-0.0010007
-0.00120354
-0.00106943
-0.00174074
-0.00105802
-0.00228118
-0.000911842
-0.00271061
-0.000604807
-0.00281102
-0.000218708
-0.00227258
-0.00092208
-3.51768e-05
0.000261311
-0.000106037
0.000620805
-0.000184112
0.000830744
-0.000253964
0.000933422
-0.000309596
0.00096821
-0.000350064
0.000964224
-0.000376568
0.000941017
-0.000390929
0.000910877
-0.000394915
0.000881086
-0.000390058
0.0008556
-0.000377675
0.000836089
-0.000359001
0.000822446
-0.000335364
0.000812899
-0.00030841
0.0008039
-0.000280337
0.000789944
-0.000254088
0.000763455
-0.000233802
0.000715362
-0.000224269
0.000634646
-0.000231186
0.000510563
-0.000260454
0.000332874
-0.000317441
9.28257e-05
-0.000405042
-0.000216704
-0.000522724
-0.000601128
-0.000661285
-0.00106498
-0.00079753
-0.00160449
-0.000885738
-0.00219297
-0.000855764
-0.00274058
-0.000640042
-0.00302674
-0.000267043
-0.00264558
-0.00118912
-5.00897e-05
0.000311401
-0.000139586
0.000710302
-0.00022817
0.000919328
-0.000298277
0.00100353
-0.000345674
0.00101561
-0.000371821
0.000990371
-0.000379834
0.00094903
-0.00037278
0.000903824
-0.000353142
0.000861448
-0.000322787
0.000825245
-0.000283134
0.000796437
-0.000235395
0.000774707
-0.000180844
0.000758348
-0.000121107
0.000744163
-5.85651e-05
0.000727403
3.32298e-06
0.000701567
6.04125e-05
0.000658272
0.000106428
0.000588631
0.000134342
0.000482649
0.00013643
0.000330786
0.000104942
0.000124314
3.32305e-05
-0.000144993
-8.1993e-05
-0.000485904
-0.000240555
-0.000906418
-0.000429623
-0.00141542
-0.000612054
-0.00201054
-0.00071352
-0.00263912
-0.000628909
-0.00311135
-0.00031334
-0.00296115
-0.00150246
-7.63663e-05
0.000387767
-0.00019141
0.000825346
-0.000289014
0.00101693
-0.00035225
0.00106677
-0.000381663
0.00104502
-0.000383066
0.000991774
-0.000362565
0.000928529
-0.000325056
0.000866315
-0.000274054
0.000810446
-0.000211956
0.000763148
-0.000140386
0.000724866
-6.05733e-05
0.000694895
2.63015e-05
0.000671473
0.000118685
0.00065178
0.000214394
0.000631693
0.000310141
0.00060582
0.000401017
0.000567396
0.000480902
0.000508746
0.000542064
0.000421486
0.000575692
0.000297159
0.000572418
0.000127588
0.000522993
-9.55686e-05
0.00041894
-0.000381851
0.00025454
-0.000742019
3.08706e-05
-0.00119175
-0.000232644
-0.00174703
-0.000470629
-0.00240113
-0.000551303
-0.00303068
-0.000346422
-0.00316603
-0.00184889
-0.000123471
0.000511238
-0.000269151
0.000971026
-0.000364845
0.00111263
-0.00040295
0.00110487
-0.0003943
0.00103637
-0.000351862
0.000949336
-0.000285985
0.000862651
-0.000203888
0.000784218
-0.00011025
0.000716808
-7.95666e-06
0.000660855
0.000101239
0.00061567
0.000216265
0.000579869
0.000336216
0.000551522
0.000459966
0.000528029
0.000585685
0.000505974
0.000710481
0.000481024
0.000829989
0.000447889
0.000938254
0.000400481
0.00102762
0.000332123
0.0010889
0.000235875
0.00111169
0.000104799
0.00108476
-6.86371e-05
0.000996563
-0.000293656
0.000835099
-0.000580555
0.000590189
-0.000946843
0.000264346
-0.00142118
-9.97288e-05
-0.00203706
-0.000378076
-0.00275233
-0.000350688
-0.00319342
-0.00219957
-0.000207641
0.000718878
-0.000372208
0.00113559
-0.000427487
0.00116791
-0.000397396
0.00107478
-0.000311663
0.000950636
-0.000193229
0.000830902
-5.69106e-05
0.000726332
8.83822e-05
0.000638925
0.000237665
0.000567525
0.000388412
0.000510108
0.000539546
0.000464537
0.00069072
0.000428695
0.000841828
0.000400415
0.000992537
0.00037732
0.00114187
0.000356646
0.00128777
0.000335123
0.00142676
0.000308899
0.00155366
0.000273573
0.00166147
0.000224312
0.00174129
0.000156061
0.00178214
6.39448e-05
0.00177169
-5.81873e-05
0.00169593
-0.000217892
0.00153856
-0.00042319
0.00128137
-0.000689648
0.00090816
-0.00104797
0.000426385
-0.00155528
-5.77051e-05
-0.00226824
-0.000286211
-0.00296491
-0.00248579
-0.00034112
0.00106
-0.000430781
0.00122525
-0.000341338
0.00107846
-0.000157975
0.000891417
6.41549e-05
0.000728506
0.00029677
0.000598287
0.000525794
0.000497309
0.000745133
0.000419585
0.000952892
0.000359767
0.00114929
0.000313714
0.00133552
0.000278304
0.00151313
0.000251085
0.00168356
0.000229984
0.00184781
0.000213074
0.00200607
0.000198384
0.00215742
0.000183771
0.00229948
0.000166841
0.00242811
0.000144941
0.00253725
0.000115168
0.0026189
7.44171e-05
0.0026625
2.03451e-05
0.00265575
-5.14344e-05
0.00258267
-0.000144813
0.00242487
-0.000265395
0.00215913
-0.000423907
0.00175662
-0.000645467
0.00118851
-0.000987174
0.000501586
-0.00158131
-3.2517e-05
-0.00243081
-0.0025183
-0.000301045
0.00136104
-4.62354e-05
0.000970445
0.000384972
0.000647254
0.000806728
0.000469661
0.00118818
0.000347055
0.00152527
0.000261198
0.00182065
0.000201928
0.00207961
0.000160621
0.00230815
0.000131234
0.00251187
0.000109993
0.00269567
9.44985e-05
0.00286365
8.31065e-05
0.00301904
7.4594e-05
0.00316415
6.79601e-05
0.00330025
6.22916e-05
0.00342734
5.66761e-05
0.00354403
5.01558e-05
0.00364725
4.17208e-05
0.00373206
3.03491e-05
0.00379133
1.51475e-05
0.00381688
-5.20251e-06
0.00379829
-3.28384e-05
0.00371982
-6.6349e-05
0.00356439
-0.00010996
0.00330782
-0.000167337
0.00291414
-0.000251792
0.0023254
-0.000398428
0.00148803
-0.000743941
0.000505214
-0.00144799
-0.00201309
0.00136104
0.00233149
0.00297874
0.0034484
0.00379546
0.00405666
0.00425858
0.00441921
0.00455044
0.00466043
0.00475493
0.00483804
0.00491263
0.00498059
0.00504288
0.00509956
0.00514972
0.00519144
0.00522179
0.00523693
0.00523173
0.00519889
0.00513254
0.00502258
0.00485525
0.00460345
0.00420503
0.00346108
0.00201309
)
;

boundaryField
{
    movingWall
    {
        type            calculated;
        value           uniform 0;
    }
    fixedWalls
    {
        type            calculated;
        value           uniform 0;
    }
    frontAndBack
    {
        type            empty;
        value           nonuniform 0();
    }
}


// ************************************************************************* //
