/*--------------------------------*- C++ -*----------------------------------*\
  =========                 |
  \\      /  F ield         | OpenFOAM: The Open Source CFD Toolbox
   \\    /   O peration     | Website:  https://openfoam.org
    \\  /    A nd           | Version:  7
     \\/     M anipulation  |
\*---------------------------------------------------------------------------*/
FoamFile
{
    version     2.0;
    format      ascii;
    class       volScalarField;
    location    "4.87";
    object      p;
}
// * * * * * * * * * * * * * * * * * * * * * * * * * * * * * * * * * * * * * //

dimensions      [0 2 -2 0 0 0 0];

internalField   nonuniform List<scalar> 
1936
(
-1.91816e-05
-3348.58
-6344.88
-5427.84
-4196.89
-3610.32
-3388.95
-3876.85
-5875.97
-7277.46
-5553.67
-3517.43
-3001.45
-3011.82
-3704.83
-5583.65
-6816.98
-5418
-3476.07
-2850.56
-2864.57
-3541.59
-5812.85
-7254.5
-5455.12
-3349.01
-2778.37
-2795.97
-3454.95
-5340.18
-6841.5
-5606.49
-3488.48
-2797.97
-2833.51
-3687.73
-6182.72
-7163.16
-4870.09
-2961.77
-2653.89
-2771.39
-4150.93
-6641.97
-85.4366
-3300.28
-6283.43
-5424.09
-4217.96
-3649.73
-3431.18
-3880.36
-5826.3
-7203.13
-5507.35
-3526.27
-3050.69
-3065.99
-3728.51
-5562.11
-6768.17
-5393.39
-3501.96
-2907.92
-2913.42
-3541.93
-5753.02
-7177.22
-5412.87
-3357.47
-2827.27
-2852.34
-3482.51
-5324.55
-6791.57
-5573.71
-3510.97
-2857.83
-2883.13
-3682.11
-6116.52
-7088.6
-4837.96
-2985.63
-2711.81
-2823.45
-4153.41
-6595.7
-361.563
-3166.51
-6051.64
-5416.89
-4293.27
-3747.62
-3532.91
-3912.07
-5699.24
-6969.68
-5393.82
-3571.02
-3165.44
-3202.31
-3813.43
-5505.3
-6606.79
-5329.38
-3591.36
-3048.69
-3029.79
-3567.73
-5595.93
-6934.48
-5312.01
-3404.66
-2942.6
-2991.95
-3578.25
-5288.31
-6625.96
-5483.17
-3592.88
-3003.66
-3002.96
-3695.64
-5932.69
-6853.93
-4775.38
-3066.26
-2842.71
-2965.11
-4187.46
-6446.89
-747.575
-3026.15
-5699.01
-5363.14
-4385.47
-3876.79
-3678.53
-3983.01
-5528.39
-6625.18
-5245.27
-3659.57
-3328.9
-3383.96
-3928.62
-5410.36
-6354.02
-5230.06
-3715.08
-3235.75
-3196.14
-3631.86
-5385.04
-6573.58
-5174.81
-3496.55
-3109.7
-3178.53
-3708.43
-5221.06
-6365.38
-5347.18
-3708.23
-3197.86
-3175.4
-3742.97
-5677.59
-6503.46
-4698.29
-3200.66
-3026.12
-3159.33
-4232.99
-6210.45
-1186.13
-2925.86
-5285.17
-5250.84
-4464.45
-4011.11
-3843.52
-4083.19
-5342.99
-6229.01
-5088.58
-3781.87
-3518.87
-3578.2
-4046.74
-5287.17
-6049.34
-5107.74
-3844.78
-3435.65
-3388.65
-3727.62
-5159.04
-6155.28
-5023.09
-3622.52
-3307.4
-3380.14
-3843.77
-5126.54
-6050.26
-5185.74
-3830.07
-3404.99
-3374.54
-3819.41
-5397.81
-6096.92
-4618.93
-3371.18
-3236.79
-3368.91
-4273.48
-5923.16
-1639.1
-2893.27
-4866.68
-5079
-4511.86
-4133.03
-4007.14
-4195.28
-5161.62
-5828.09
-4941.21
-3924.22
-3717.6
-3767.17
-4152.14
-5143.69
-5724.16
-4971.42
-3964.52
-3630.35
-3588.68
-3843.92
-4944.97
-5729.51
-4871.29
-3768.69
-3516.85
-3579.1
-3968.12
-5008.27
-5713.14
-5013.68
-3943.84
-3605.14
-3579.72
-3915.92
-5127.38
-5682.46
-4544.53
-3559.17
-3455.47
-3572.5
-4300.05
-5614.15
-2079.4
-2935.72
-4493.72
-4864.33
-4518.91
-4233.44
-4150.61
-4298.87
-4994.31
-5456.81
-4813.5
-4069.66
-3909.31
-3939.92
-4240.08
-4990.3
-5404.37
-4832.04
-4069.76
-3809.66
-3780
-3966.19
-4760.32
-5334.37
-4729.92
-3917.29
-3721.36
-3764.46
-4075.46
-4874.55
-5381.42
-4845.15
-4045.1
-3787.96
-3773.64
-4019.35
-4889.14
-5296.89
-4478.97
-3745.56
-3665.07
-3757.31
-4315.22
-5307.63
-2488.77
-3044.91
-4201.62
-4636.59
-4487.69
-4304.87
-4260.63
-4377.97
-4843.79
-5137.59
-4708.08
-4202.86
-4080.33
-4091.33
-4310.56
-4837.97
-5111.93
-4702.14
-4159.98
-3967.88
-3950.25
-4081.26
-4611.59
-4996.93
-4605.06
-4053.14
-3906.17
-3929.99
-4164.95
-4736.42
-5078.16
-4693.83
-4132.9
-3947.7
-3943.89
-4117.18
-4693.6
-4966.7
-4422.73
-3914.77
-3852.17
-3917.1
-4324.05
-5024.72
-2854.58
-3202.13
-4006.95
-4428.07
-4426.9
-4341.5
-4330.68
-4424.63
-4712.47
-4882.21
-4623.42
-4311.25
-4220.4
-4217.72
-4362.56
-4699.37
-4863.94
-4591.18
-4234.53
-4102.04
-4090.85
-4178.64
-4499.77
-4732.59
-4502.84
-4164.71
-4060.36
-4071.38
-4234.22
-4608.02
-4821.44
-4568.39
-4205.87
-4081.59
-4082.34
-4199.25
-4544.55
-4706.96
-4376.89
-4055.45
-4008.33
-4050.83
-4328.04
-4781.66
-3167.47
-3382.07
-3907.5
-4263.37
-4349.96
-4343.52
-4362.72
-4438.52
-4602.52
-4691.99
-4557.08
-4386.76
-4324.22
-4314.07
-4395.92
-4585.05
-4670.69
-4505.49
-4292.39
-4207.95
-4198.52
-4251.14
-4422.39
-4545.76
-4427.25
-4245.41
-4179.01
-4182.86
-4282.98
-4501.71
-4622.25
-4473.28
-4262.06
-4186.06
-4186.85
-4258.72
-4440.39
-4522.42
-4343.17
-4162.36
-4129.37
-4156.53
-4327.29
-4589.6
-3422.37
-3559.99
-3884.72
-4154.47
-4274.21
-4320.52
-4364.07
-4426.28
-4514.58
-4560.35
-4505.6
-4428.54
-4391.07
-4377.69
-4412.52
-4499.93
-4534.42
-4445.56
-4332.53
-4283.19
-4273.72
-4298.57
-4374.69
-4429.52
-4378.68
-4296.89
-4261.27
-4261.23
-4313.52
-4423.8
-4482.82
-4407.67
-4300.38
-4259.08
-4259.06
-4295.99
-4375.39
-4407.18
-4322.39
-4235.03
-4215.94
-4232.05
-4322.9
-4453.24
-3621.47
-3715.45
-3910.73
-4099.23
-4215.76
-4287.66
-4345.3
-4397.6
-4447.18
-4474.99
-4465.49
-4442.23
-4424.38
-4410.83
-4416.02
-4442.91
-4449.1
-4407.28
-4355.55
-4329.4
-4320.35
-4325.95
-4349.97
-4368.55
-4352.82
-4325.56
-4310.9
-4308.6
-4329.08
-4373.64
-4397.1
-4366.71
-4322.11
-4303.47
-4302.74
-4315.94
-4340.63
-4346.84
-4313.02
-4279.04
-4270.88
-4278.61
-4317.18
-4369.07
-3771.42
-3840.01
-3959.39
-4083.68
-4181.68
-4256.83
-4316.53
-4362.58
-4397.42
-4421.44
-4433.58
-4436.58
-4431.78
-4419.95
-4410.54
-4408.29
-4402.3
-4384.66
-4364.98
-4352.76
-4344.76
-4339.88
-4340.65
-4343.75
-4342.31
-4338.87
-4335.44
-4331.97
-4334.62
-4345.88
-4352.32
-4344
-4331.35
-4325.81
-4324.59
-4324.89
-4325.99
-4322.65
-4311.57
-4302.47
-4300.6
-4302.32
-4312.46
-4325.91
-3886.82
-3933.97
-4009.37
-4092.05
-4168.3
-4234.43
-4288.8
-4330.36
-4361.67
-4386.82
-4407.13
-4420.16
-4422.62
-4414.07
-4400.35
-4388.47
-4379.45
-4371.98
-4366.14
-4361.09
-4354.41
-4346.16
-4339.71
-4337.88
-4339.93
-4343.36
-4343.91
-4340.04
-4335.16
-4333.22
-4333.36
-4333.24
-4333.38
-4333.93
-4332.55
-4328.23
-4322.44
-4317.35
-4313.99
-4313.36
-4313.54
-4311.74
-4309.99
-4309.16
-3977.42
-4006.92
-4054.84
-4110.65
-4167.59
-4220.95
-4267.28
-4305.09
-4335.69
-4361.74
-4383.66
-4398.87
-4404.19
-4399.24
-4388.07
-4376.6
-4368.65
-4364.97
-4363.62
-4361.43
-4356.18
-4348.52
-4341.76
-4339.06
-4340.59
-4343.76
-4344.47
-4340.59
-4334.19
-4328.94
-4327.32
-4329.15
-4332.55
-4334.92
-4333.89
-4329.19
-4323.3
-4318.84
-4317.36
-4317.79
-4317.57
-4314.47
-4309.63
-4305.53
-4049.34
-4066.35
-4096.08
-4133.33
-4174.17
-4215.21
-4253.12
-4286.54
-4315.53
-4340.66
-4361.48
-4376.18
-4382.91
-4381.72
-4375.37
-4368
-4362.79
-4360.59
-4359.91
-4358.37
-4354.43
-4348.81
-4343.77
-4341.22
-4341.4
-4342.5
-4342.04
-4338.66
-4333.49
-4329.1
-4327.42
-4328.73
-4331.42
-4333.22
-4332.35
-4329.02
-4324.85
-4321.64
-4320.11
-4319.53
-4318.31
-4315.14
-4310.97
-4307.75
-4106.13
-4115.62
-4133.57
-4157.75
-4185.94
-4215.85
-4245.66
-4273.63
-4299.16
-4321.71
-4340.43
-4354.13
-4361.95
-4364.2
-4362.62
-4359.65
-4357.27
-4356.11
-4355.46
-4354.1
-4351.39
-4347.75
-4344.39
-4342.28
-4341.48
-4341.01
-4339.68
-4336.9
-4333.31
-4330.3
-4328.95
-4329.34
-4330.55
-4331.24
-4330.49
-4328.42
-4325.82
-4323.48
-4321.75
-4320.31
-4318.49
-4315.92
-4313.17
-4311.19
-4150.52
-4155.92
-4166.73
-4182.11
-4200.99
-4222.04
-4244.03
-4265.92
-4286.73
-4305.62
-4321.76
-4334.32
-4342.89
-4347.73
-4349.77
-4350.28
-4350.33
-4350.33
-4350.12
-4349.28
-4347.66
-4345.52
-4343.43
-4341.8
-4340.62
-4339.49
-4337.95
-4335.82
-4333.45
-4331.47
-4330.33
-4330.05
-4330.13
-4329.99
-4329.23
-4327.82
-4326.08
-4324.33
-4322.69
-4321.07
-4319.31
-4317.4
-4315.67
-4314.53
-4184.88
-4188.11
-4194.75
-4204.53
-4216.96
-4231.34
-4246.93
-4263.03
-4278.88
-4293.78
-4307.05
-4318.13
-4326.74
-4332.95
-4337.19
-4339.98
-4341.85
-4343.08
-4343.72
-4343.72
-4343.14
-4342.16
-4341.03
-4339.95
-4338.92
-4337.83
-4336.54
-4335.04
-4333.49
-4332.13
-4331.14
-4330.5
-4330.01
-4329.42
-4328.58
-4327.48
-4326.2
-4324.85
-4323.48
-4322.09
-4320.69
-4319.36
-4318.29
-4317.63
-4211.19
-4213.23
-4217.43
-4223.73
-4231.9
-4241.57
-4252.32
-4263.71
-4275.3
-4286.52
-4296.97
-4306.26
-4314.16
-4320.61
-4325.73
-4329.7
-4332.74
-4334.98
-4336.53
-4337.46
-4337.85
-4337.84
-4337.56
-4337.11
-4336.54
-4335.85
-4335.02
-4334.08
-4333.1
-4332.17
-4331.35
-4330.63
-4329.95
-4329.23
-4328.41
-4327.5
-4326.5
-4325.47
-4324.42
-4323.38
-4322.39
-4321.51
-4320.85
-4320.46
-4231.09
-4232.42
-4235.17
-4239.3
-4244.71
-4251.2
-4258.55
-4266.48
-4274.71
-4282.97
-4290.95
-4298.4
-4305.16
-4311.11
-4316.23
-4320.55
-4324.12
-4327
-4329.26
-4330.96
-4332.16
-4332.96
-4333.43
-4333.65
-4333.65
-4333.49
-4333.17
-4332.73
-4332.2
-4331.64
-4331.06
-4330.47
-4329.86
-4329.22
-4328.53
-4327.8
-4327.05
-4326.29
-4325.53
-4324.82
-4324.16
-4323.61
-4323.2
-4322.97
-4245.8
-4246.71
-4248.55
-4251.32
-4254.98
-4259.4
-4264.46
-4270
-4275.87
-4281.9
-4287.9
-4293.73
-4299.25
-4304.38
-4309.04
-4313.2
-4316.86
-4320.01
-4322.67
-4324.88
-4326.67
-4328.09
-4329.17
-4329.98
-4330.54
-4330.89
-4331.06
-4331.08
-4330.97
-4330.76
-4330.47
-4330.12
-4329.71
-4329.26
-4328.77
-4328.26
-4327.73
-4327.21
-4326.7
-4326.23
-4325.82
-4325.48
-4325.23
-4325.1
-4255.52
-4256.18
-4257.49
-4259.48
-4262.1
-4265.3
-4268.98
-4273.07
-4277.45
-4282.03
-4286.7
-4291.36
-4295.92
-4300.29
-4304.41
-4308.24
-4311.74
-4314.9
-4317.71
-4320.17
-4322.29
-4324.09
-4325.59
-4326.82
-4327.81
-4328.57
-4329.13
-4329.51
-4329.74
-4329.84
-4329.83
-4329.73
-4329.55
-4329.31
-4329.03
-4328.71
-4328.37
-4328.03
-4327.71
-4327.4
-4327.14
-4326.93
-4326.78
-4326.7
-4261.03
-4261.55
-4262.58
-4264.16
-4266.24
-4268.79
-4271.75
-4275.05
-4278.62
-4282.4
-4286.31
-4290.27
-4294.22
-4298.09
-4301.83
-4305.38
-4308.72
-4311.81
-4314.64
-4317.2
-4319.48
-4321.48
-4323.22
-4324.7
-4325.95
-4326.97
-4327.79
-4328.42
-4328.89
-4329.21
-4329.4
-4329.48
-4329.48
-4329.4
-4329.26
-4329.08
-4328.87
-4328.65
-4328.44
-4328.23
-4328.05
-4327.91
-4327.81
-4327.76
-4263.88
-4264.33
-4265.22
-4266.59
-4268.39
-4270.61
-4273.19
-4276.09
-4279.24
-4282.6
-4286.1
-4289.69
-4293.31
-4296.89
-4300.4
-4303.79
-4307.02
-4310.07
-4312.89
-4315.49
-4317.86
-4319.97
-4321.84
-4323.48
-4324.88
-4326.06
-4327.04
-4327.82
-4328.44
-4328.89
-4329.22
-4329.42
-4329.52
-4329.54
-4329.49
-4329.4
-4329.27
-4329.12
-4328.96
-4328.81
-4328.68
-4328.57
-4328.5
-4328.46
-4265.21
-4265.62
-4266.44
-4267.69
-4269.36
-4271.41
-4273.81
-4276.5
-4279.44
-4282.59
-4285.89
-4289.29
-4292.74
-4296.18
-4299.58
-4302.89
-4306.07
-4309.09
-4311.93
-4314.57
-4316.98
-4319.17
-4321.13
-4322.85
-4324.35
-4325.64
-4326.71
-4327.59
-4328.29
-4328.83
-4329.23
-4329.5
-4329.67
-4329.74
-4329.75
-4329.7
-4329.61
-4329.49
-4329.37
-4329.25
-4329.14
-4329.05
-4328.98
-4328.95
-4265.65
-4266.05
-4266.83
-4268.04
-4269.64
-4271.61
-4273.92
-4276.52
-4279.37
-4282.43
-4285.64
-4288.96
-4292.34
-4295.74
-4299.1
-4302.38
-4305.56
-4308.59
-4311.45
-4314.12
-4316.58
-4318.82
-4320.84
-4322.63
-4324.19
-4325.53
-4326.66
-4327.6
-4328.35
-4328.94
-4329.38
-4329.68
-4329.88
-4329.98
-4330
-4329.97
-4329.9
-4329.8
-4329.68
-4329.57
-4329.47
-4329.38
-4329.32
-4329.29
-4265.62
-4266.01
-4266.78
-4267.96
-4269.55
-4271.5
-4273.78
-4276.35
-4279.18
-4282.21
-4285.41
-4288.72
-4292.09
-4295.48
-4298.84
-4302.14
-4305.33
-4308.39
-4311.28
-4313.99
-4316.48
-4318.76
-4320.82
-4322.64
-4324.24
-4325.61
-4326.78
-4327.74
-4328.51
-4329.11
-4329.56
-4329.88
-4330.08
-4330.18
-4330.21
-4330.17
-4330.1
-4330
-4329.88
-4329.77
-4329.66
-4329.58
-4329.52
-4329.49
-4265.41
-4265.8
-4266.56
-4267.75
-4269.34
-4271.29
-4273.58
-4276.16
-4279
-4282.05
-4285.26
-4288.59
-4291.98
-4295.39
-4298.78
-4302.11
-4305.33
-4308.41
-4311.33
-4314.06
-4316.58
-4318.88
-4320.96
-4322.8
-4324.4
-4325.78
-4326.95
-4327.91
-4328.68
-4329.27
-4329.71
-4330.01
-4330.2
-4330.29
-4330.3
-4330.25
-4330.16
-4330.05
-4329.92
-4329.8
-4329.69
-4329.6
-4329.53
-4329.5
-4265.2
-4265.59
-4266.36
-4267.55
-4269.15
-4271.13
-4273.44
-4276.05
-4278.92
-4282.01
-4285.25
-4288.61
-4292.04
-4295.49
-4298.91
-4302.26
-4305.5
-4308.61
-4311.54
-4314.29
-4316.82
-4319.12
-4321.19
-4323.02
-4324.61
-4325.98
-4327.12
-4328.05
-4328.79
-4329.36
-4329.76
-4330.03
-4330.18
-4330.24
-4330.22
-4330.15
-4330.03
-4329.9
-4329.76
-4329.62
-4329.5
-4329.4
-4329.33
-4329.3
-4265.1
-4265.49
-4266.26
-4267.47
-4269.1
-4271.1
-4273.45
-4276.1
-4279.01
-4282.13
-4285.41
-4288.81
-4292.27
-4295.74
-4299.19
-4302.56
-4305.82
-4308.93
-4311.87
-4314.61
-4317.13
-4319.42
-4321.47
-4323.27
-4324.83
-4326.16
-4327.26
-4328.14
-4328.83
-4329.34
-4329.69
-4329.91
-4330.01
-4330.02
-4329.95
-4329.84
-4329.69
-4329.52
-4329.36
-4329.21
-4329.08
-4328.97
-4328.9
-4328.87
-4265.19
-4265.58
-4266.36
-4267.59
-4269.24
-4271.27
-4273.65
-4276.33
-4279.27
-4282.42
-4285.73
-4289.15
-4292.63
-4296.12
-4299.58
-4302.96
-4306.22
-4309.33
-4312.26
-4314.99
-4317.49
-4319.75
-4321.76
-4323.53
-4325.04
-4326.32
-4327.36
-4328.18
-4328.8
-4329.24
-4329.52
-4329.67
-4329.7
-4329.63
-4329.5
-4329.33
-4329.13
-4328.92
-4328.73
-4328.56
-4328.41
-4328.31
-4328.24
-4328.21
-4265.52
-4265.9
-4266.69
-4267.93
-4269.6
-4271.65
-4274.05
-4276.74
-4279.69
-4282.85
-4286.16
-4289.59
-4293.08
-4296.58
-4300.04
-4303.42
-4306.67
-4309.78
-4312.69
-4315.39
-4317.87
-4320.09
-4322.06
-4323.78
-4325.24
-4326.45
-4327.43
-4328.18
-4328.73
-4329.09
-4329.28
-4329.34
-4329.28
-4329.14
-4328.92
-4328.67
-4328.39
-4328.12
-4327.88
-4327.66
-4327.5
-4327.39
-4327.32
-4327.3
-4266.11
-4266.5
-4267.28
-4268.52
-4270.18
-4272.22
-4274.6
-4277.28
-4280.21
-4283.36
-4286.67
-4290.09
-4293.57
-4297.06
-4300.51
-4303.88
-4307.13
-4310.22
-4313.12
-4315.79
-4318.24
-4320.43
-4322.36
-4324.02
-4325.43
-4326.58
-4327.49
-4328.17
-4328.63
-4328.91
-4329.02
-4328.98
-4328.83
-4328.58
-4328.26
-4327.9
-4327.53
-4327.17
-4326.84
-4326.55
-4326.35
-4326.21
-4326.15
-4326.14
-4267.02
-4267.4
-4268.16
-4269.35
-4270.96
-4272.95
-4275.27
-4277.9
-4280.79
-4283.9
-4287.18
-4290.58
-4294.05
-4297.53
-4300.97
-4304.33
-4307.57
-4310.64
-4313.52
-4316.17
-4318.59
-4320.75
-4322.64
-4324.26
-4325.61
-4326.7
-4327.55
-4328.15
-4328.54
-4328.74
-4328.75
-4328.62
-4328.37
-4328.01
-4327.58
-4327.11
-4326.61
-4326.12
-4325.67
-4325.27
-4324.97
-4324.76
-4324.7
-4324.71
-4268.31
-4268.64
-4269.33
-4270.38
-4271.88
-4273.75
-4275.98
-4278.53
-4281.36
-4284.42
-4287.66
-4291.04
-4294.49
-4297.96
-4301.39
-4304.74
-4307.96
-4311.02
-4313.88
-4316.52
-4318.91
-4321.04
-4322.89
-4324.47
-4325.78
-4326.82
-4327.61
-4328.15
-4328.47
-4328.59
-4328.52
-4328.3
-4327.95
-4327.49
-4326.94
-4326.34
-4325.71
-4325.07
-4324.45
-4323.88
-4323.42
-4323.06
-4322.95
-4322.94
-4270.1
-4270.22
-4270.75
-4271.55
-4272.86
-4274.57
-4276.67
-4279.12
-4281.87
-4284.88
-4288.09
-4291.44
-4294.87
-4298.32
-4301.75
-4305.09
-4308.3
-4311.35
-4314.2
-4316.83
-4319.2
-4321.3
-4323.13
-4324.67
-4325.94
-4326.94
-4327.67
-4328.16
-4328.42
-4328.47
-4328.33
-4328.03
-4327.59
-4327.03
-4326.37
-4325.65
-4324.87
-4324.07
-4323.26
-4322.48
-4321.79
-4321.15
-4320.9
-4320.72
-4272.51
-4272.12
-4272.36
-4272.76
-4273.82
-4275.33
-4277.29
-4279.63
-4282.31
-4285.26
-4288.43
-4291.76
-4295.18
-4298.62
-4302.04
-4305.38
-4308.59
-4311.63
-4314.48
-4317.09
-4319.44
-4321.53
-4323.33
-4324.85
-4326.09
-4327.05
-4327.74
-4328.18
-4328.39
-4328.38
-4328.18
-4327.81
-4327.3
-4326.65
-4325.9
-4325.06
-4324.15
-4323.18
-4322.18
-4321.14
-4320.17
-4319.12
-4318.6
-4317.92
-4275.69
-4274.22
-4274.02
-4273.9
-4274.69
-4275.98
-4277.8
-4280.04
-4282.65
-4285.55
-4288.7
-4292.01
-4295.41
-4298.85
-4302.27
-4305.6
-4308.81
-4311.86
-4314.69
-4317.3
-4319.64
-4321.72
-4323.5
-4325
-4326.21
-4327.15
-4327.81
-4328.21
-4328.38
-4328.33
-4328.08
-4327.66
-4327.08
-4326.36
-4325.53
-4324.59
-4323.56
-4322.45
-4321.27
-4319.97
-4318.68
-4317.09
-4316.16
-4314.41
-4279.72
-4276.37
-4275.58
-4274.89
-4275.39
-4276.49
-4278.19
-4280.34
-4282.89
-4285.76
-4288.88
-4292.18
-4295.58
-4299.02
-4302.43
-4305.77
-4308.98
-4312.03
-4314.86
-4317.46
-4319.8
-4321.86
-4323.64
-4325.12
-4326.32
-4327.23
-4327.87
-4328.25
-4328.39
-4328.3
-4328.01
-4327.55
-4326.92
-4326.15
-4325.25
-4324.24
-4323.12
-4321.89
-4320.56
-4319.03
-4317.43
-4315.24
-4313.76
-4310.1
-4284.53
-4278.33
-4276.88
-4275.63
-4275.9
-4276.84
-4278.45
-4280.54
-4283.06
-4285.9
-4289.01
-4292.3
-4295.69
-4299.13
-4302.55
-4305.89
-4309.1
-4312.14
-4314.98
-4317.58
-4319.91
-4321.97
-4323.74
-4325.21
-4326.4
-4327.29
-4327.92
-4328.28
-4328.39
-4328.29
-4327.98
-4327.48
-4326.82
-4326.01
-4325.07
-4324.01
-4322.83
-4321.51
-4320.05
-4318.34
-4316.49
-4313.74
-4311.62
-4305.09
-4289.76
-4279.89
-4277.8
-4276.13
-4276.22
-4277.06
-4278.61
-4280.66
-4283.15
-4285.98
-4289.08
-4292.36
-4295.76
-4299.2
-4302.61
-4305.95
-4309.17
-4312.21
-4315.05
-4317.64
-4319.98
-4322.03
-4323.8
-4325.27
-4326.44
-4327.33
-4327.95
-4328.3
-4328.4
-4328.28
-4327.96
-4327.44
-4326.76
-4325.94
-4324.97
-4323.87
-4322.65
-4321.27
-4319.75
-4317.92
-4315.89
-4312.7
-4309.95
-4299.72
-4294.7
-4280.87
-4278.29
-4276.38
-4276.38
-4277.16
-4278.68
-4280.72
-4283.19
-4286.01
-4289.11
-4292.39
-4295.79
-4299.23
-4302.64
-4305.98
-4309.2
-4312.24
-4315.08
-4317.68
-4320.01
-4322.06
-4323.83
-4325.29
-4326.47
-4327.35
-4327.96
-4328.31
-4328.41
-4328.28
-4327.95
-4327.43
-4326.74
-4325.9
-4324.92
-4323.81
-4322.57
-4321.16
-4319.6
-4317.71
-4315.58
-4312.15
-4308.92
-4294.71
-4298.65
-4281.3
-4278.46
-4276.47
-4276.44
-4277.2
-4278.71
-4280.74
-4283.21
-4286.03
-4289.12
-4292.4
-4295.8
-4299.23
-4302.65
-4305.99
-4309.21
-4312.25
-4315.09
-4317.69
-4320.02
-4322.07
-4323.83
-4325.3
-4326.47
-4327.36
-4327.96
-4328.31
-4328.41
-4328.28
-4327.94
-4327.42
-4326.73
-4325.89
-4324.91
-4323.79
-4322.54
-4321.13
-4319.55
-4317.64
-4315.48
-4311.97
-4308.48
-4290.74
)
;

boundaryField
{
    movingWall
    {
        type            zeroGradient;
    }
    fixedWalls
    {
        type            zeroGradient;
    }
    frontAndBack
    {
        type            empty;
    }
    defaultFaces
    {
        type            empty;
    }
}


// ************************************************************************* //
