/*--------------------------------*- C++ -*----------------------------------*\
  =========                 |
  \\      /  F ield         | OpenFOAM: The Open Source CFD Toolbox
   \\    /   O peration     | Website:  https://openfoam.org
    \\  /    A nd           | Version:  7
     \\/     M anipulation  |
\*---------------------------------------------------------------------------*/
FoamFile
{
    version     2.0;
    format      ascii;
    class       surfaceScalarField;
    location    "8.1";
    object      phi;
}
// * * * * * * * * * * * * * * * * * * * * * * * * * * * * * * * * * * * * * //

dimensions      [0 3 -1 0 0 0 0];

internalField   nonuniform List<scalar> 
1740
(
5.81843e-07
-5.82597e-07
-4.74523e-07
1.05637e-06
-3.30857e-06
2.83405e-06
-7.55182e-06
4.24324e-06
-1.27522e-05
5.20036e-06
-1.85196e-05
5.7674e-06
-2.45567e-05
6.03711e-06
-3.06409e-05
6.08418e-06
-3.65925e-05
5.95161e-06
-4.22456e-05
5.65311e-06
-4.74264e-05
5.18086e-06
-5.19414e-05
4.51494e-06
-5.55748e-05
3.6334e-06
-5.80973e-05
2.52249e-06
-5.92839e-05
1.18664e-06
-5.89405e-05
-3.43399e-07
-5.69345e-05
-2.00604e-06
-5.32324e-05
-3.70202e-06
-4.79293e-05
-5.30312e-06
-4.12669e-05
-6.66238e-06
-3.36352e-05
-7.63169e-06
-2.55505e-05
-8.08469e-06
-1.76104e-05
-7.94014e-06
-1.04291e-05
-7.18132e-06
-4.56302e-06
-5.86605e-06
-4.31331e-07
-4.13169e-06
1.78353e-06
-2.21486e-06
2.14499e-06
-3.61457e-07
1.14084e-06
1.00417e-06
1.14085e-06
-1.05787e-06
4.7528e-07
-5.76322e-06
5.76172e-06
-1.41524e-05
1.12232e-05
-2.55169e-05
1.56077e-05
-3.90258e-05
1.87092e-05
-5.38909e-05
2.06325e-05
-6.94348e-05
2.1581e-05
-8.50884e-05
2.17379e-05
-0.000100355
2.1218e-05
-0.000114766
2.00638e-05
-0.000127845
1.82605e-05
-0.000139092
1.57622e-05
-0.00014798
1.25215e-05
-0.000153978
8.52014e-06
-0.000156588
3.79674e-06
-0.000155418
-1.51388e-06
-0.000150212
-7.21205e-06
-0.00014096
-1.29542e-05
-0.000127931
-1.83317e-05
-0.000111712
-2.28812e-05
-9.32015e-05
-2.61423e-05
-7.35603e-05
-2.77259e-05
-5.41149e-05
-2.73854e-05
-3.62204e-05
-2.50758e-05
-2.10974e-05
-2.09891e-05
-9.66483e-06
-1.55643e-05
-2.40009e-06
-9.4796e-06
8.67713e-07
-3.62928e-06
1.06502e-06
8.06831e-07
2.20588e-06
-3.04586e-06
3.52114e-06
-1.19018e-05
1.46176e-05
-2.57752e-05
2.50967e-05
-4.36301e-05
3.34626e-05
-6.43538e-05
3.94329e-05
-8.69017e-05
4.31804e-05
-0.000110348
4.50277e-05
-0.000133882
4.52715e-05
-0.000156767
4.41028e-05
-0.000178297
4.1594e-05
-0.00019776
3.77237e-05
-0.000214418
3.24203e-05
-0.000227513
2.56158e-05
-0.000236295
1.73026e-05
-0.000240087
7.58833e-06
-0.000238342
-3.25849e-06
-0.000230742
-1.4812e-05
-0.000217288
-2.64087e-05
-0.000198364
-3.72551e-05
-0.000174787
-4.64586e-05
-0.000147795
-5.31338e-05
-0.000118992
-5.65295e-05
-9.02138e-05
-5.61633e-05
-6.33518e-05
-5.19378e-05
-4.01266e-05
-4.42143e-05
-2.18588e-05
-3.38321e-05
-9.25598e-06
-2.20824e-05
-2.2288e-06
-1.06565e-05
2.08672e-07
-1.63065e-06
2.41455e-06
-4.94136e-06
8.46251e-06
-1.78161e-05
2.74923e-05
-3.69594e-05
4.424e-05
-6.08427e-05
5.7346e-05
-8.80636e-05
6.66538e-05
-0.000117372
7.24884e-05
-0.000147668
7.53246e-05
-0.000177978
7.55812e-05
-0.0002074
7.35243e-05
-0.000235058
6.92522e-05
-0.000260066
6.27315e-05
-0.000281506
5.38607e-05
-0.000298441
4.2551e-05
-0.000309949
2.88101e-05
-0.000315186
1.28255e-05
-0.000313473
-4.97112e-06
-0.000304389
-2.38962e-05
-0.000287889
-4.29084e-05
-0.000264389
-6.07558e-05
-0.000234822
-7.60252e-05
-0.000200655
-8.73009e-05
-0.000163823
-9.33618e-05
-0.00012659
-9.33964e-05
-9.13306e-05
-8.71968e-05
-6.02551e-05
-7.52898e-05
-3.51122e-05
-5.89749e-05
-1.69233e-05
-4.02713e-05
-5.78107e-06
-2.17987e-05
-7.74194e-07
-6.63753e-06
1.64036e-06
-6.63175e-06
1.50943e-05
-2.32399e-05
4.41004e-05
-4.73058e-05
6.83059e-05
-7.67776e-05
8.68178e-05
-0.000109945
9.98214e-05
-0.000145371
0.000107915
-0.000181829
0.000111782
-0.000218235
0.000111987
-0.000253586
0.000108875
-0.000286897
0.000102563
-0.000317161
9.29961e-05
-0.00034333
8.00296e-05
-0.000364318
6.35386e-05
-0.000379039
4.35317e-05
-0.000386477
2.02632e-05
-0.000385779
-5.66964e-06
-0.000376338
-3.33364e-05
-0.000357971
-6.12753e-05
-0.000331004
-8.77231e-05
-0.000296375
-0.000110655
-0.000255676
-0.000128
-0.000211117
-0.000137921
-0.000165384
-0.00013913
-0.000121387
-0.000131194
-8.19243e-05
-0.000114752
-4.93034e-05
-9.15959e-05
-2.49926e-05
-6.45821e-05
-9.37654e-06
-3.74148e-05
-1.66579e-06
-1.43483e-05
-2.54323e-08
-8.11743e-06
2.32117e-05
-2.81185e-05
6.41015e-05
-5.67129e-05
9.69003e-05
-9.13453e-05
0.00012145
-0.000130005
0.000138481
-0.000171086
0.000148996
-0.000213266
0.000153962
-0.000255402
0.000154123
-0.00029644
0.000149913
-0.000335342
0.000141465
-0.000371031
0.000128685
-0.000402362
0.00011136
-0.000428121
8.92976e-05
-0.000447054
6.24646e-05
-0.000457928
3.11372e-05
-0.000459652
-3.9456e-06
-0.000451313
-4.16748e-05
-0.000432457
-8.01313e-05
-0.000403171
-0.00011701
-0.000364251
-0.000149574
-0.000317309
-0.000174942
-0.000264779
-0.000190451
-0.0002098
-0.000194109
-0.000155937
-0.000185056
-0.00010677
-0.00016392
-6.53859e-05
-0.00013298
-3.39103e-05
-9.60577e-05
-1.31583e-05
-5.81668e-05
-2.5124e-06
-2.49942e-05
-2.53783e-06
-9.42627e-06
3.2638e-05
-3.24796e-05
8.71548e-05
-6.51997e-05
0.00012962
-0.000104579
0.000160829
-0.000148334
0.000182237
-0.000194718
0.000195379
-0.000242345
0.00020159
-0.000290058
0.000201836
-0.000336804
0.000196659
-0.000381542
0.000186202
-0.000423171
0.000170314
-0.000460486
0.000148676
-0.000492158
0.00012097
-0.000516748
8.70544e-05
-0.000532752
4.71413e-05
-0.000538751
2.05385e-06
-0.000533392
-4.70342e-05
-0.000515782
-9.77411e-05
-0.000485578
-0.000147213
-0.000443255
-0.000191898
-0.00039029
-0.000227906
-0.000329268
-0.000251473
-0.000263806
-0.000259571
-0.000198279
-0.000250583
-0.000137305
-0.000224894
-8.50796e-05
-0.000185205
-4.46924e-05
-0.000136445
-1.76035e-05
-8.52557e-05
-3.42945e-06
-3.91682e-05
-5.96728e-06
-1.05811e-05
4.32191e-05
-3.63594e-05
0.000112933
-7.28059e-05
0.000166067
-0.000116525
0.000204549
-0.000165006
0.000230718
-0.000216394
0.000246766
-0.000269283
0.000254478
-0.000322541
0.000255095
-0.00037517
0.000249287
-0.000426176
0.000237209
-0.000474487
0.000218624
-0.00051887
0.000193059
-0.0005579
0.000159999
-0.000589937
0.000119092
-0.000613173
7.03774e-05
-0.000625664
1.45445e-05
-0.000625636
-4.70624e-05
-0.000611468
-0.000111908
-0.000582186
-0.000176496
-0.000537707
-0.000236377
-0.000479169
-0.000286444
-0.000409158
-0.000321484
-0.000331749
-0.00033698
-0.000252254
-0.000330078
-0.000176638
-0.00030051
-0.000110632
-0.000251211
-5.8736e-05
-0.000188341
-2.33969e-05
-0.000120595
-4.6238e-06
-5.79413e-05
-1.05911e-05
-1.1591e-05
5.48101e-05
-3.97713e-05
0.000141113
-7.95401e-05
0.000205836
-0.000127185
0.000252193
-0.000180015
0.000283549
-0.000236111
0.000302862
-0.000294085
0.000312453
-0.000352882
0.000313893
-0.000411604
0.000308008
-0.000469363
0.000294968
-0.000525161
0.000274422
-0.000577786
0.000245684
-0.000625734
0.000207947
-0.000667167
0.000160525
-0.000699914
0.000103124
-0.000721524
3.6154e-05
-0.000729517
-3.9069e-05
-0.000721452
-0.000119974
-0.000695475
-0.000202473
-0.000650674
-0.000281178
-0.000587559
-0.000349559
-0.000508471
-0.000400572
-0.000417794
-0.000427657
-0.000321829
-0.000426043
-0.000228177
-0.000394162
-0.00014462
-0.000334768
-7.76865e-05
-0.000255275
-3.135e-05
-0.000166931
-6.32282e-06
-8.29685e-05
-1.69139e-05
-1.24516e-05
6.72618e-05
-4.26989e-05
0.000171361
-8.53638e-05
0.000248501
-0.000136485
0.000303314
-0.000193244
0.000340307
-0.000253695
0.000363314
-0.000316512
0.00037527
-0.000380756
0.000378137
-0.000445681
0.000372934
-0.000510558
0.000359845
-0.000574517
0.000338381
-0.000636413
0.00030758
-0.000694705
0.000266239
-0.000747372
0.000213192
-0.000791879
0.000147631
-0.000825207
6.94828e-05
-0.000844119
-2.01571e-05
-0.000845173
-0.00011892
-0.000825447
-0.000222199
-0.000782912
-0.000323713
-0.000717099
-0.000415372
-0.00062972
-0.000487951
-0.000525145
-0.000532232
-0.000410521
-0.000540667
-0.000295263
-0.00050942
-0.000189747
-0.000440284
-0.000103345
-0.000341677
-4.23638e-05
-0.000227912
-8.7752e-06
-0.000116557
-2.56891e-05
-1.31486e-05
8.04104e-05
-4.51004e-05
0.000203312
-9.01937e-05
0.000293594
-0.000144282
0.000357403
-0.000204463
0.000400488
-0.000268802
0.000427652
-0.000336062
0.00044253
-0.000405462
0.000447536
-0.000476447
0.000443919
-0.000548494
0.000431891
-0.000620913
0.0004108
-0.000692679
0.000379346
-0.000762264
0.000335825
-0.000827514
0.000278442
-0.000885567
0.000205685
-0.000932865
0.000116781
-0.000965357
1.23348e-05
-0.000978631
-0.000105646
-0.000968525
-0.000232306
-0.000931653
-0.000360584
-0.000866187
-0.000480838
-0.000772703
-0.000581436
-0.000654997
-0.000649938
-0.000520612
-0.000675051
-0.000380674
-0.000649358
-0.000248604
-0.000572354
-0.000137578
-0.000452702
-5.74118e-05
-0.000308079
-1.22527e-05
-0.000161716
-3.79418e-05
-1.36627e-05
9.40731e-05
-4.69197e-05
0.000236569
-9.39187e-05
0.000340593
-0.000150383
0.000413868
-0.000213358
0.000463463
-0.000280942
0.000495235
-0.000352009
0.000513597
-0.000425955
0.000521482
-0.000502446
0.000520411
-0.000581196
0.00051064
-0.000661737
0.000491342
-0.000743215
0.000460823
-0.000824179
0.000416789
-0.000902416
0.000356679
-0.00097484
0.000278108
-0.00103747
0.000179415
-0.00108547
6.03325e-05
-0.00111369
-7.74312e-05
-0.00111664
-0.000229351
-0.00108949
-0.000387735
-0.00102872
-0.000541614
-0.000933169
-0.000676982
-0.00080527
-0.000777836
-0.000652103
-0.000828219
-0.000485923
-0.000815538
-0.000323297
-0.000734981
-0.0001822
-0.0005938
-7.7526e-05
-0.000412753
-1.70576e-05
-0.000222185
-5.49994e-05
-1.39757e-05
0.000108049
-4.81044e-05
0.000270698
-9.64297e-05
0.000388918
-0.000154585
0.000472023
-0.000219578
0.000528457
-0.000289545
0.000565201
-0.000363473
0.000587526
-0.000440936
0.000598945
-0.000521826
0.000601301
-0.000606103
0.000594918
-0.000693549
0.000578787
-0.000783515
0.00055079
-0.0008747
0.000507973
-0.000964939
0.000446918
-0.00105107
0.000364239
-0.00112888
0.000257224
-0.00119315
0.000124604
-0.00123795
-3.26267e-05
-0.00125692
-0.000210381
-0.00124379
-0.000400867
-0.00119317
-0.000592237
-0.00110165
-0.000768502
-0.000969304
-0.000910182
-0.000801469
-0.000996054
-0.000610289
-0.00100672
-0.000414894
-0.000930376
-0.000238753
-0.000769941
-0.000103764
-0.000547741
-2.35328e-05
-0.000302416
-7.85322e-05
-1.40789e-05
0.000122128
-4.86291e-05
0.000305248
-9.76603e-05
0.000437949
-0.000156734
0.000531096
-0.000222816
0.000594539
-0.000294061
0.000636447
-0.000369552
0.000663016
-0.000449014
0.000678407
-0.000532545
0.000684832
-0.000620339
0.000682712
-0.00071242
0.000670868
-0.000808377
0.000646748
-0.00090712
0.000606716
-0.00100666
0.00054646
-0.00110397
0.000461546
-0.00119489
0.000348147
-0.0012742
0.000203908
-0.00133565
2.88258e-05
-0.00137239
-0.000173634
-0.00137711
-0.000396154
-0.00134263
-0.000626716
-0.00126295
-0.000848177
-0.00113488
-0.00103825
-0.000960421
-0.00117051
-0.000749629
-0.00121751
-0.000522588
-0.00115742
-0.000308131
-0.000984398
-0.000137118
-0.000718754
-3.20634e-05
-0.00040747
-0.000110596
-1.39825e-05
0.00013611
-4.85245e-05
0.00033979
-9.7639e-05
0.000487064
-0.000156803
0.00059026
-0.000222908
0.000660644
-0.000294093
0.000707633
-0.00036949
0.000738413
-0.000448935
0.000757852
-0.000532681
0.000768579
-0.000621116
0.000771147
-0.000714482
0.000764234
-0.000812613
0.000744878
-0.000914691
0.000708794
-0.00101904
0.000650814
-0.001123
0.000565504
-0.00122283
0.00044797
-0.0013137
0.000294783
-0.00138975
0.000104877
-0.00144408
-0.000119304
-0.00146908
-0.000371152
-0.00145623
-0.000639571
-0.00139698
-0.000907426
-0.00128425
-0.00115098
-0.00111518
-0.00133958
-0.00089525
-0.00143744
-0.000642658
-0.00141001
-0.000389978
-0.00123708
-0.00017833
-0.000930402
-4.3059e-05
-0.000542741
-0.000153655
-1.37279e-05
0.000149838
-4.79122e-05
0.000373974
-9.65494e-05
0.000535701
-0.000154976
0.000648686
-0.000219953
0.000725621
-0.000289547
0.000777227
-0.000362883
0.000811749
-0.00043985
0.000834818
-0.000520796
0.000849525
-0.000606241
0.000856592
-0.000696606
0.000854599
-0.000791966
0.000840238
-0.00089183
0.000808658
-0.000994973
0.000753957
-0.00109932
0.000669852
-0.00120189
0.000550541
-0.00129877
0.000391658
-0.00138507
0.000191174
-0.00145442
-4.99444e-05
-0.00149994
-0.000325635
-0.00151241
-0.000627104
-0.00148135
-0.000938487
-0.00139581
-0.00123652
-0.00124704
-0.00148835
-0.00103343
-0.00165105
-0.000767498
-0.00167594
-0.000481913
-0.00152266
-0.000227599
-0.00118472
-5.69139e-05
-0.000713426
-0.000210568
-1.34005e-05
0.000163239
-4.7044e-05
0.000407618
-9.47976e-05
0.000583455
-0.000151743
0.000705632
-0.000214427
0.000788305
-0.000280782
0.000843582
-0.000349874
0.00088084
-0.000421585
0.000906529
-0.000496299
0.000924239
-0.000574614
0.000934907
-0.000657089
0.000937074
-0.000744033
0.000927181
-0.00083533
0.000899956
-0.000930323
0.000848949
-0.00102773
0.000767262
-0.00112563
0.000648437
-0.00122138
0.000487408
-0.00131157
0.000281366
-0.00139134
2.98289e-05
-0.00145484
-0.00026214
-0.00149344
-0.000588505
-0.00149577
-0.000936155
-0.00144781
-0.00128448
-0.00133482
-0.00160134
-0.00114638
-0.0018395
-0.000885294
-0.00193703
-0.000578822
-0.00182914
-0.000284208
-0.00147933
-7.39535e-05
-0.000923681
-0.000284522
-1.31474e-05
0.000176386
-4.63492e-05
0.00044082
-9.30855e-05
0.000630191
-0.000147993
0.000760539
-0.000207298
0.00084761
-0.000268746
0.00090503
-0.000331313
0.000943408
-0.000394848
0.000970064
-0.000459734
0.000989125
-0.000526612
0.00100179
-0.000596161
0.00100662
-0.000668932
0.000999952
-0.000745236
0.00097626
-0.000825075
0.000928789
-0.000908117
0.000850304
-0.000993672
0.000733992
-0.00108064
0.000574375
-0.0011673
0.00036803
-0.00125134
0.000113862
-0.00132772
-0.000185758
-0.00138991
-0.000526313
-0.00142692
-0.000899146
-0.00142315
-0.00128825
-0.00135901
-0.00166548
-0.00121496
-0.00198355
-0.000981025
-0.00217096
-0.000672597
-0.00213756
-0.000346184
-0.00180574
-9.43994e-05
-0.00117546
-0.000378921
-1.3203e-05
0.000189589
-4.64965e-05
0.000474113
-9.24949e-05
0.000676189
-0.0001451
0.000813144
-0.000200102
0.000902612
-0.000255046
0.000959974
-0.000308839
0.000997201
-0.000361315
0.00102254
-0.000412875
0.00104068
-0.000464214
0.00105312
-0.000516144
0.00105855
-0.000569492
0.0010533
-0.000625049
0.00103182
-0.000683552
0.000987293
-0.000745698
0.000912449
-0.000812124
0.000800418
-0.000883343
0.000645594
-0.000959541
0.000444228
-0.0010403
0.000194621
-0.00112314
-0.000102913
-0.00120348
-0.000445981
-0.00127211
-0.000830509
-0.00131382
-0.00124654
-0.0013064
-0.0016729
-0.00122269
-0.00206727
-0.00103885
-0.0023548
-0.000752672
-0.00242374
-0.000410089
-0.00214833
-0.000118389
-0.00146716
-0.00049731
-1.39323e-05
0.000203521
-4.84853e-05
0.000508666
-9.45927e-05
0.000722297
-0.000145011
0.000863562
-0.000194998
0.0009526
-0.000241959
0.00100693
-0.000284837
0.00104008
-0.000323557
0.00106126
-0.000358613
0.00107574
-0.00039082
0.00108533
-0.000421183
0.00108892
-0.000450857
0.00108298
-0.000481164
0.00106212
-0.000513621
0.00101975
-0.000549966
0.000948794
-0.000592136
0.000842588
-0.000642171
0.000695629
-0.000701988
0.000504045
-0.00077301
0.000265642
-0.000855201
-2.07221e-05
-0.000946285
-0.000354897
-0.00103978
-0.000737017
-0.0011227
-0.00116362
-0.00117308
-0.00162251
-0.0011593
-0.00208105
-0.00104519
-0.00246891
-0.000807577
-0.00266136
-0.000471134
-0.00248477
-0.000146065
-0.00179223
-0.000643376
-1.59158e-05
0.000219437
-5.37959e-05
0.000546546
-0.000101572
0.000770073
-0.000150323
0.000912312
-0.000194757
0.000997034
-0.000232331
0.00104451
-0.000262258
0.00107001
-0.000284752
0.00108375
-0.000300558
0.00109155
-0.000310724
0.0010955
-0.000316536
0.00109473
-0.000319542
0.00108598
-0.000321629
0.00106421
-0.000325091
0.00102321
-0.000332647
0.000956349
-0.000347407
0.000857348
-0.000372732
0.000720955
-0.00041198
0.000543293
-0.000468088
0.00032175
-0.000543161
5.4351e-05
-0.000636954
-0.000261103
-0.000746217
-0.000627754
-0.00086158
-0.00104825
-0.000964172
-0.00151992
-0.00102212
-0.0020231
-0.000990957
-0.00250007
-0.000826621
-0.00282569
-0.000523512
-0.00278788
-0.000177653
-0.00213809
-0.000821028
-2.01166e-05
0.000239554
-6.46425e-05
0.000591072
-0.000116444
0.000821875
-0.000164326
0.000960194
-0.000202631
0.00103534
-0.000229286
0.00107116
-0.000244174
0.00108489
-0.000248107
0.00108769
-0.000242299
0.00108574
-0.000228182
0.00108138
-0.000207419
0.00107396
-0.000181999
0.00106056
-0.000154361
0.00103657
-0.00012754
0.000996391
-0.00010509
0.0009339
-9.10908e-05
0.000843348
-8.99178e-05
0.000719782
-0.000105985
0.00055936
-0.000143415
0.00035918
-0.000205629
0.000116565
-0.000294544
-0.000172188
-0.0004097
-0.000512598
-0.000546086
-0.000911867
-0.000690172
-0.00137584
-0.000814285
-0.00189899
-0.000871499
-0.00244286
-0.000800673
-0.00289652
-0.000560589
-0.00302796
-0.000213298
-0.00248538
-0.00103433
-2.82129e-05
0.000267767
-8.43832e-05
0.000647243
-0.000143244
0.000880736
-0.000190891
0.00100784
-0.000221924
0.00106637
-0.00023551
0.00108475
-0.000232811
0.0010822
-0.000215647
0.00107052
-0.000185962
0.00105605
-0.000145727
0.00104115
-9.70528e-05
0.00102529
-4.23779e-05
0.00100589
1.5338e-05
0.000978855
7.26154e-05
0.000939114
0.000125187
0.000881328
0.000168293
0.000800242
0.00019682
0.000691255
0.000205596
0.000550585
0.000189725
0.000375051
0.000144887
0.000161404
6.75751e-05
-9.4877e-05
-4.39733e-05
-0.00040105
-0.000189106
-0.000766734
-0.00036118
-0.00120376
-0.000540402
-0.00171976
-0.000684135
-0.00229912
-0.000721155
-0.0028595
-0.000574261
-0.00317486
-0.00025229
-0.00280736
-0.00128662
-4.32338e-05
0.000311
-0.000118094
0.000722103
-0.000187023
0.000949664
-0.000233756
0.00105457
-0.000254626
0.00108724
-0.000251329
0.00108145
-0.000227145
0.00105801
-0.000185393
0.00102877
-0.000129009
0.000999669
-6.06175e-05
0.000972754
1.72085e-05
0.000947465
0.000101659
0.000921436
0.000189483
0.00089103
0.000276761
0.000851837
0.000358963
0.000799126
0.000430966
0.000728239
0.000487286
0.000634935
0.000522359
0.000515511
0.000530817
0.000366593
0.00050768
0.000184541
0.000448208
-3.54047e-05
0.000348603
-0.000301445
0.000205645
-0.000623776
1.94342e-05
-0.00101755
-0.000200944
-0.00149939
-0.00042393
-0.00207614
-0.000577405
-0.00270602
-0.000552937
-0.00319932
-0.000291165
-0.00306913
-0.00157778
-7.06888e-05
0.000381689
-0.000173022
0.000824436
-0.00025271
0.00102935
-0.000293763
0.00109563
-0.000297265
0.00109074
-0.00026941
0.0010536
-0.000216667
0.00100527
-0.00014437
0.000956476
-5.66531e-05
0.000911952
4.31717e-05
0.000872929
0.000152158
0.000838479
0.000267329
0.000806266
0.000385337
0.000773022
0.000502283
0.00073489
0.000613645
0.000687763
0.000714331
0.000627554
0.00079884
0.000550426
0.000861495
0.000452856
0.000896637
0.000331451
0.000898737
0.00018244
0.000861829
1.50362e-06
0.000780645
-0.000220262
0.000648528
-0.000491658
0.000459483
-0.000828507
0.000212119
-0.00125202
-7.75828e-05
-0.00178643
-0.000352392
-0.00243121
-0.000477934
-0.00307378
-0.000320695
-0.00322637
-0.00189848
-0.000120318
0.000502007
-0.000257402
0.00096152
-0.000339464
0.00111141
-0.000359407
0.00111557
-0.000328566
0.0010599
-0.000260386
0.000985416
-0.000165682
0.000910565
-5.21617e-05
0.000842955
7.4877e-05
0.000784913
0.000211665
0.000736141
0.000355213
0.00069493
0.000502736
0.000658743
0.000651243
0.000624515
0.000797272
0.000588861
0.000936766
0.000548269
0.00106507
0.000499254
0.001177
0.000438487
0.00126705
0.000362815
0.00132937
0.000269123
0.00135779
0.00015402
0.00134581
1.3484e-05
0.0012857
-0.000160146
0.00116857
-0.000374535
0.000983593
-0.000643527
0.00071982
-0.000988248
0.00037633
-0.00144294
-6.49854e-06
-0.00204838
-0.000318176
-0.00276211
-0.000327343
-0.0032172
-0.00222582
-0.000208039
0.000710046
-0.000370047
0.00112353
-0.000418186
0.00115955
-0.000376518
0.0010739
-0.000275162
0.000958547
-0.000137475
0.000847729
2.12737e-05
0.000751817
0.000191779
0.00067245
0.000368572
0.00060812
0.000548403
0.000556309
0.000729116
0.000514218
0.000908891
0.000478969
0.00108575
0.000447653
0.00125725
0.000417361
0.0014203
0.000385225
0.00157108
0.000348469
0.00170512
0.00030445
0.0018173
0.000250638
0.00190191
0.000184511
0.0019525
0.000103426
0.00196076
5.22149e-06
0.00191886
-0.000118242
0.00181489
-0.00027056
0.00163465
-0.000463295
0.00136041
-0.000713999
0.000974291
-0.00105683
0.000479231
-0.00155332
-1.87424e-05
-0.00226413
-0.000268843
-0.0029671
-0.00249466
-0.000344816
0.00105486
-0.00043796
0.00121667
-0.00034804
0.00106963
-0.000160564
0.000886428
6.94209e-05
0.000728562
0.0003134
0.00060375
0.000557135
0.000508082
0.000794258
0.000435326
0.0010225
0.00037988
0.0012415
0.000337312
0.00145158
0.000304136
0.00165305
0.000277496
0.00184578
0.000254928
0.00202891
0.000234223
0.00220077
0.000213364
0.00235876
0.000190488
0.00249933
0.000163874
0.00261806
0.00013191
0.0027096
9.29733e-05
0.00276759
4.54313e-05
0.00278463
-1.18139e-05
0.00275009
-8.37022e-05
0.00265183
-0.000172306
0.00247358
-0.000285037
0.00219338
-0.000433808
0.00178226
-0.000645712
0.00120938
-0.000980437
0.000518321
-0.00157308
-2.21908e-05
-0.00242659
-0.00251685
-0.00030503
0.00135989
-5.51189e-05
0.000966762
0.000371263
0.000643251
0.000791064
0.000466627
0.00117381
0.000345819
0.00151549
0.000262062
0.00181869
0.000204882
0.00208852
0.000165499
0.00233065
0.000137755
0.00255019
0.000117767
0.00275131
0.000103014
0.00293709
9.17187e-05
0.00310948
8.25367e-05
0.00326932
7.4389e-05
0.00341631
6.63722e-05
0.00354909
5.7707e-05
0.00366525
4.77145e-05
0.00376136
3.57953e-05
0.00383286
2.14793e-05
0.00387379
4.50174e-06
0.00387954
-1.75632e-05
0.00383905
-4.32145e-05
0.0037414
-7.46539e-05
0.0035712
-0.000114844
0.00330563
-0.000168236
0.00290894
-0.000249018
0.0023217
-0.000393203
0.00148731
-0.000738683
0.000505442
-0.00144472
-0.00201141
0.00135989
0.00232665
0.0029699
0.00343653
0.00378235
0.00404441
0.00424929
0.00441479
0.00455255
0.00467032
0.00477333
0.00486505
0.00494758
0.00502197
0.00508835
0.00514605
0.00519377
0.00522956
0.00525104
0.00525554
0.00523798
0.00519477
0.00512011
0.00500527
0.00483703
0.00458801
0.00419481
0.00345613
0.00201141
)
;

boundaryField
{
    movingWall
    {
        type            calculated;
        value           uniform 0;
    }
    fixedWalls
    {
        type            calculated;
        value           uniform 0;
    }
    frontAndBack
    {
        type            empty;
        value           nonuniform 0();
    }
}


// ************************************************************************* //
