/*--------------------------------*- C++ -*----------------------------------*\
  =========                 |
  \\      /  F ield         | OpenFOAM: The Open Source CFD Toolbox
   \\    /   O peration     | Website:  https://openfoam.org
    \\  /    A nd           | Version:  7
     \\/     M anipulation  |
\*---------------------------------------------------------------------------*/
FoamFile
{
    version     2.0;
    format      ascii;
    class       volVectorField;
    location    "8.1";
    object      U;
}
// * * * * * * * * * * * * * * * * * * * * * * * * * * * * * * * * * * * * * //

dimensions      [0 1 -1 0 0 0 0];

internalField   nonuniform List<vector> 
900
(
(8.7674e-05 -8.65082e-05 0)
(8.29822e-05 -2.47281e-06 0)
(-0.000255776 0.000102833 0)
(-0.000863368 0.000183183 0)
(-0.00166444 0.000233933 0)
(-0.00259031 0.000261383 0)
(-0.00358368 0.000273265 0)
(-0.00460166 0.000275203 0)
(-0.00561158 0.000270127 0)
(-0.0065854 0.000258799 0)
(-0.00749533 0.000240482 0)
(-0.00831096 0.000213596 0)
(-0.00899804 0.000176326 0)
(-0.00951901 0.00012723 0)
(-0.00983525 6.58547e-05 0)
(-0.00991088 -6.73872e-06 0)
(-0.00971754 -8.80523e-05 0)
(-0.00924028 -0.000172871 0)
(-0.00848353 -0.000254266 0)
(-0.00747506 -0.000324031 0)
(-0.00626793 -0.000373686 0)
(-0.00493884 -0.000395839 0)
(-0.00358237 -0.000385598 0)
(-0.0023017 -0.000341707 0)
(-0.00119626 -0.000267051 0)
(-0.000346538 -0.000169159 0)
(0.000186522 -6.23805e-05 0)
(0.000386964 4.26568e-05 0)
(0.000304041 0.000114879 0)
(0.000100579 0.000100794 0)
(5.37348e-06 -8.61161e-05 0)
(-0.000398258 0.000393026 0)
(-0.00152522 0.000919379 0)
(-0.00320603 0.00134107 0)
(-0.00530986 0.00163331 0)
(-0.00770317 0.00181032 0)
(-0.0102622 0.00189639 0)
(-0.0128834 0.00191213 0)
(-0.0154796 0.0018699 0)
(-0.0179717 0.00177388 0)
(-0.0202821 0.00162216 0)
(-0.0223298 0.00140932 0)
(-0.0240287 0.00112949 0)
(-0.0252892 0.000779382 0)
(-0.026024 0.000361159 0)
(-0.0261563 -0.000115236 0)
(-0.0256297 -0.000629882 0)
(-0.0244196 -0.00115251 0)
(-0.0225459 -0.00164427 0)
(-0.0200796 -0.00206088 0)
(-0.0171454 -0.00235801 0)
(-0.0139176 -0.00249803 0)
(-0.0106081 -0.00245695 0)
(-0.00744565 -0.00223015 0)
(-0.00465123 -0.00183558 0)
(-0.00240876 -0.00131498 0)
(-0.000840838 -0.000736001 0)
(1.89204e-05 -0.000179443 0)
(0.000254832 0.000229132 0)
(0.000117715 0.000300196 0)
(-0.000110296 0.000260303 0)
(-0.000990564 0.00153625 0)
(-0.00294838 0.00280395 0)
(-0.00564617 0.00382661 0)
(-0.00890381 0.00455625 0)
(-0.0125497 0.00501316 0)
(-0.0164183 0.00523993 0)
(-0.0203651 0.00527601 0)
(-0.0242627 0.00514673 0)
(-0.0279929 0.00486166 0)
(-0.0314386 0.00441793 0)
(-0.0344791 0.00380583 0)
(-0.0369889 0.00301563 0)
(-0.0388408 0.00204468 0)
(-0.0399131 0.000904147 0)
(-0.0401007 -0.000375526 0)
(-0.0393281 -0.00174037 0)
(-0.0375656 -0.00311314 0)
(-0.0348432 -0.0043968 0)
(-0.0312604 -0.00548273 0)
(-0.0269896 -0.00626333 0)
(-0.0222713 -0.00664786 0)
(-0.017398 -0.00657875 0)
(-0.0126881 -0.00604554 0)
(-0.0084515 -0.00509339 0)
(-0.00495059 -0.00382521 0)
(-0.0023628 -0.00239975 0)
(-0.000745478 -0.00102584 0)
(-1.16738e-05 3.11998e-05 0)
(7.73194e-05 0.000419539 0)
(-0.000216992 0.000935241 0)
(-0.00155975 0.00335968 0)
(-0.00432659 0.00557668 0)
(-0.00798597 0.00733609 0)
(-0.0122976 0.00859253 0)
(-0.0170563 0.00938281 0)
(-0.0220667 0.00977125 0)
(-0.0271562 0.0098167 0)
(-0.0321705 0.00955713 0)
(-0.0369634 0.00900699 0)
(-0.0413894 0.00816201 0)
(-0.0452981 0.00700813 0)
(-0.048534 0.00553252 0)
(-0.05094 0.00373527 0)
(-0.0523661 0.00164057 0)
(-0.0526818 -0.000694213 0)
(-0.0517911 -0.00317379 0)
(-0.0496513 -0.00566219 0)
(-0.0462905 -0.00799057 0)
(-0.0418199 -0.00997042 0)
(-0.0364403 -0.0114145 0)
(-0.0304391 -0.0121634 0)
(-0.024173 -0.0121138 0)
(-0.0180382 -0.0112434 0)
(-0.012428 -0.00962703 0)
(-0.0076841 -0.00744103 0)
(-0.00404789 -0.00495686 0)
(-0.00161524 -0.00252851 0)
(-0.000316458 -0.00058063 0)
(3.41917e-05 0.00037537 0)
(-0.000307612 0.00190663 0)
(-0.00207382 0.00582836 0)
(-0.00559841 0.00919174 0)
(-0.0101545 0.011799 0)
(-0.0154372 0.013644 0)
(-0.0212079 0.014798 0)
(-0.0272468 0.0153551 0)
(-0.0333624 0.0153955 0)
(-0.0393835 0.01497 0)
(-0.0451466 0.0140969 0)
(-0.0504871 0.0127691 0)
(-0.0552338 0.010967 0)
(-0.059208 0.00867375 0)
(-0.0622265 0.00589168 0)
(-0.064111 0.00265833 0)
(-0.0647017 -0.000940768 0)
(-0.0638724 -0.00476521 0)
(-0.0615519 -0.00861351 0)
(-0.0577483 -0.0122349 0)
(-0.0525642 -0.0153467 0)
(-0.0462103 -0.0176642 0)
(-0.0390067 -0.0189396 0)
(-0.0313686 -0.019005 0)
(-0.0237738 -0.0178131 0)
(-0.0167122 -0.015464 0)
(-0.0106251 -0.0122143 0)
(-0.00584033 -0.00846551 0)
(-0.00251316 -0.0047371 0)
(-0.000607004 -0.00163219 0)
(3.32112e-06 0.000170106 0)
(-0.000384059 0.0031421 0)
(-0.00252983 0.00889223 0)
(-0.00674897 0.0135959 0)
(-0.0121326 0.0171578 0)
(-0.0183122 0.0196465 0)
(-0.0250173 0.0211897 0)
(-0.0320078 0.021922 0)
(-0.0390802 0.0219505 0)
(-0.0460551 0.0213396 0)
(-0.0527608 0.0201104 0)
(-0.0590228 0.0182512 0)
(-0.0646564 0.0157335 0)
(-0.0694645 0.0125326 0)
(-0.0732394 0.00864862 0)
(-0.0757707 0.00412781 0)
(-0.0768606 -0.000919705 0)
(-0.0763365 -0.00630895 0)
(-0.0740777 -0.0117714 0)
(-0.0700478 -0.0169659 0)
(-0.0643157 -0.0215001 0)
(-0.0570793 -0.0249684 0)
(-0.0486776 -0.0270057 0)
(-0.0395821 -0.0273498 0)
(-0.030365 -0.0259027 0)
(-0.0216398 -0.0227765 0)
(-0.0139833 -0.018311 0)
(-0.00784864 -0.0130568 0)
(-0.00348105 -0.00772936 0)
(-0.000893272 -0.00314374 0)
(-1.63227e-05 -0.000175287 0)
(-0.000449703 0.00460982 0)
(-0.00293352 0.012493 0)
(-0.0077816 0.0187216 0)
(-0.0139227 0.0233423 0)
(-0.0209307 0.0265303 0)
(-0.0285065 0.0284919 0)
(-0.0363946 0.0294157 0)
(-0.0443862 0.029442 0)
(-0.0523017 0.0286513 0)
(-0.05997 0.0270671 0)
(-0.0672151 0.0246695 0)
(-0.0738462 0.0214164 0)
(-0.0796519 0.0172678 0)
(-0.0844002 0.0122125 0)
(-0.0878432 0.00629442 0)
(-0.0897322 -0.000361866 0)
(-0.0898301 -0.00752934 0)
(-0.0879416 -0.0148808 0)
(-0.0839546 -0.021978 0)
(-0.077872 -0.028301 0)
(-0.0698502 -0.0332943 0)
(-0.0602266 -0.036435 0)
(-0.049524 -0.0373205 0)
(-0.0384233 -0.0357598 0)
(-0.0276973 -0.0318489 0)
(-0.0181099 -0.0260065 0)
(-0.0102954 -0.0189555 0)
(-0.0046351 -0.0116518 0)
(-0.0012145 -0.0051769 0)
(-2.90146e-05 -0.000659331 0)
(-0.000506868 0.00628237 0)
(-0.00329038 0.0165747 0)
(-0.00870258 0.0245013 0)
(-0.0155316 0.0302835 0)
(-0.0233018 0.0342316 0)
(-0.0316911 0.0366513 0)
(-0.0404346 0.0377991 0)
(-0.0493253 0.0378569 0)
(-0.058191 0.0369244 0)
(-0.0668705 0.0350269 0)
(-0.0751948 0.0321331 0)
(-0.0829743 0.0281794 0)
(-0.0899884 0.0230999 0)
(-0.0959815 0.016858 0)
(-0.100663 0.00947957 0)
(-0.103716 0.00108645 0)
(-0.104824 -0.00807262 0)
(-0.103693 -0.0176156 0)
(-0.100094 -0.0270056 0)
(-0.0939272 -0.0355791 0)
(-0.0852688 -0.0425956 0)
(-0.0744233 -0.0473223 0)
(-0.0619484 -0.0491511 0)
(-0.0486415 -0.0477318 0)
(-0.0354715 -0.0430936 0)
(-0.0234537 -0.0357158 0)
(-0.0134814 -0.0265176 0)
(-0.00614067 -0.0167575 0)
(-0.00163298 -0.00786562 0)
(-4.52939e-05 -0.00131263 0)
(-0.000556465 0.00813523 0)
(-0.00360261 0.0210837 0)
(-0.00951399 0.0308686 0)
(-0.0169599 0.037914 0)
(-0.0254246 0.0426897 0)
(-0.0345697 0.0456206 0)
(-0.0441275 0.0470453 0)
(-0.0538999 0.0471958 0)
(-0.0637306 0.0461958 0)
(-0.0734768 0.0440723 0)
(-0.082986 0.0407776 0)
(-0.0920775 0.0362179 0)
(-0.100528 0.0302873 0)
(-0.108059 0.022905 0)
(-0.114334 0.0140562 0)
(-0.118965 0.0038353 0)
(-0.121532 -0.00751544 0)
(-0.121613 -0.0195708 0)
(-0.118832 -0.0317007 0)
(-0.112943 -0.0430859 0)
(-0.103895 -0.0527647 0)
(-0.0919111 -0.0597323 0)
(-0.0775491 -0.0630902 0)
(-0.0617117 -0.0622332 0)
(-0.0455904 -0.0570384 0)
(-0.0305217 -0.0480006 0)
(-0.0177589 -0.0362514 0)
(-0.00819482 -0.0234307 0)
(-0.00222051 -0.0114335 0)
(-7.53616e-05 -0.00219794 0)
(-0.000598302 0.0101442 0)
(-0.00386886 0.0259657 0)
(-0.0102117 0.0377552 0)
(-0.0181988 0.0461628 0)
(-0.0272837 0.0518398 0)
(-0.0371185 0.0553482 0)
(-0.0474392 0.0571226 0)
(-0.0580634 0.0574551 0)
(-0.0688585 0.0564981 0)
(-0.0797089 0.0542808 0)
(-0.0904873 0.0507347 0)
(-0.101031 0.0457253 0)
(-0.111121 0.0390899 0)
(-0.120462 0.0306804 0)
(-0.128673 0.0204124 0)
(-0.135289 0.00832006 0)
(-0.139778 -0.00538738 0)
(-0.14157 -0.0202691 0)
(-0.140115 -0.0356202 0)
(-0.134977 -0.0504608 0)
(-0.125924 -0.0635773 0)
(-0.113038 -0.0736287 0)
(-0.0968125 -0.0793256 0)
(-0.0782107 -0.0796791 0)
(-0.0586453 -0.0742826 0)
(-0.0398339 -0.0635526 0)
(-0.0235101 -0.0488227 0)
(-0.0110173 -0.0322021 0)
(-0.00305666 -0.0162084 0)
(-0.000129711 -0.00341912 0)
(-0.000631457 0.0122835 0)
(-0.00408501 0.0311632 0)
(-0.0107858 0.0450872 0)
(-0.0192303 0.0549513 0)
(-0.0288493 0.0616063 0)
(-0.0392912 0.065768 0)
(-0.050301 0.067981 0)
(-0.0617176 0.0686073 0)
(-0.0734391 0.0678344 0)
(-0.0853839 0.0656949 0)
(-0.0974588 0.062095 0)
(-0.109528 0.0568488 0)
(-0.121385 0.0497188 0)
(-0.132726 0.0404645 0)
(-0.143135 0.0289002 0)
(-0.152072 0.0149629 0)
(-0.158894 -0.00120935 0)
(-0.162881 -0.0191914 0)
(-0.163296 -0.0382353 0)
(-0.159483 -0.0572112 0)
(-0.15098 -0.0746396 0)
(-0.137648 -0.0887904 0)
(-0.119825 -0.0978806 0)
(-0.0984442 -0.100381 0)
(-0.0750835 -0.0954131 0)
(-0.0518642 -0.083145 0)
(-0.0311233 -0.0650404 0)
(-0.014845 -0.0437557 0)
(-0.00422899 -0.0226317 0)
(-0.000219676 -0.00512355 0)
(-0.000654644 0.0145242 0)
(-0.00424553 0.0366128 0)
(-0.0112236 0.0527827 0)
(-0.0200303 0.0641885 0)
(-0.0300807 0.0718958 0)
(-0.0410228 0.0767895 0)
(-0.0526141 0.0795371 0)
(-0.0647184 0.0805818 0)
(-0.0772678 0.0801525 0)
(-0.0902204 0.0782877 0)
(-0.103523 0.0748649 0)
(-0.117074 0.0696368 0)
(-0.130689 0.0622742 0)
(-0.144069 0.0524196 0)
(-0.156775 0.0397549 0)
(-0.168212 0.0240847 0)
(-0.177638 0.00543516 0)
(-0.184205 -0.0158384 0)
(-0.187005 -0.0389711 0)
(-0.18515 -0.0627184 0)
(-0.17791 -0.0853503 0)
(-0.164856 -0.104726 0)
(-0.14605 -0.118488 0)
(-0.122248 -0.124401 0)
(-0.0950587 -0.120867 0)
(-0.0669523 -0.107534 0)
(-0.0409569 -0.0858109 0)
(-0.0199255 -0.0589205 0)
(-0.00583493 -0.0312656 0)
(-0.000358558 -0.00750653 0)
(-0.000666633 0.0168343 0)
(-0.00434529 0.0422449 0)
(-0.0115126 0.0607494 0)
(-0.0205745 0.0737682 0)
(-0.0309341 0.0825923 0)
(-0.0422398 0.0882888 0)
(-0.0542619 0.0916616 0)
(-0.0668889 0.0932454 0)
(-0.0800877 0.0933188 0)
(-0.0938572 0.091929 0)
(-0.108187 0.0889231 0)
(-0.123014 0.0839848 0)
(-0.138187 0.0766791 0)
(-0.153422 0.0665113 0)
(-0.16828 0.0530049 0)
(-0.182143 0.0358011 0)
(-0.194214 0.0147769 0)
(-0.203553 -0.00982964 0)
(-0.209114 -0.0372835 0)
(-0.20982 -0.0662814 0)
(-0.204667 -0.0948982 0)
(-0.192878 -0.120614 0)
(-0.174117 -0.140464 0)
(-0.148767 -0.151372 0)
(-0.118239 -0.150739 0)
(-0.0851737 -0.137301 0)
(-0.05328 -0.112044 0)
(-0.0265039 -0.0786415 0)
(-0.00798382 -0.0427959 0)
(-0.000563359 -0.0108175 0)
(-0.000666746 0.019179 0)
(-0.00438204 0.0479848 0)
(-0.0116468 0.0688866 0)
(-0.0208471 0.0835682 0)
(-0.0313744 0.0935535 0)
(-0.042875 0.100103 0)
(-0.0551282 0.104169 0)
(-0.0680441 0.106388 0)
(-0.08162 0.107097 0)
(-0.0958926 0.106357 0)
(-0.110892 0.103984 0)
(-0.126597 0.0995887 0)
(-0.142894 0.0926226 0)
(-0.159532 0.0824416 0)
(-0.176098 0.0683946 0)
(-0.191991 0.0499387 0)
(-0.206418 0.0267754 0)
(-0.218414 -0.0010028 0)
(-0.226871 -0.0327612 0)
(-0.230592 -0.0672053 0)
(-0.228345 -0.102316 0)
(-0.218991 -0.135294 0)
(-0.201694 -0.162625 0)
(-0.176259 -0.180328 0)
(-0.143588 -0.184549 0)
(-0.10616 -0.172617 0)
(-0.0681704 -0.144492 0)
(-0.0347912 -0.103912 0)
(-0.010796 -0.0580248 0)
(-0.000856737 -0.0153676 0)
(-0.000655448 0.0215234 0)
(-0.00435931 0.0537577 0)
(-0.0116326 0.0770889 0)
(-0.0208508 0.0934538 0)
(-0.0313894 0.104612 0)
(-0.042886 0.112027 0)
(-0.0551225 0.116811 0)
(-0.0680228 0.119715 0)
(-0.0816074 0.121139 0)
(-0.0959425 0.121164 0)
(-0.111093 0.119579 0)
(-0.127078 0.115922 0)
(-0.143825 0.109531 0)
(-0.161134 0.0996131 0)
(-0.178646 0.0853411 0)
(-0.195824 0.0659855 0)
(-0.211949 0.0410635 0)
(-0.22612 0.0104973 0)
(-0.237263 -0.0252308 0)
(-0.244165 -0.0649222 0)
(-0.245472 -0.106602 0)
(-0.239727 -0.147361 0)
(-0.225565 -0.183299 0)
(-0.202038 -0.209609 0)
(-0.169202 -0.221027 0)
(-0.128897 -0.212967 0)
(-0.0853667 -0.18351 0)
(-0.044905 -0.135648 0)
(-0.0143952 -0.0778423 0)
(-0.00126865 -0.0215359 0)
(-0.00063503 0.0238365 0)
(-0.00428994 0.0594961 0)
(-0.0114974 0.0852548 0)
(-0.0206195 0.103284 0)
(-0.0310067 0.115581 0)
(-0.0422777 0.12382 0)
(-0.0542083 0.129286 0)
(-0.0667265 0.13285 0)
(-0.0798657 0.134988 0)
(-0.0937115 0.135803 0)
(-0.108355 0.135065 0)
(-0.123849 0.132246 0)
(-0.140169 0.126581 0)
(-0.157177 0.11714 0)
(-0.1746 0.102938 0)
(-0.192014 0.0830767 0)
(-0.208839 0.0569004 0)
(-0.224332 0.0241586 0)
(-0.237556 -0.014851 0)
(-0.247417 -0.0591392 0)
(-0.252577 -0.106904 0)
(-0.251384 -0.155354 0)
(-0.242001 -0.200486 0)
(-0.222665 -0.23691 0)
(-0.192302 -0.258004 0)
(-0.15158 -0.25688 0)
(-0.104096 -0.228742 0)
(-0.0567758 -0.174483 0)
(-0.0188917 -0.103163 0)
(-0.00183797 -0.0297713 0)
(-0.00061042 0.0260974 0)
(-0.00420015 0.0651519 0)
(-0.0112977 0.0932999 0)
(-0.0202314 0.112926 0)
(-0.0303108 0.126264 0)
(-0.0411243 0.135215 0)
(-0.0524318 0.141242 0)
(-0.0641569 0.145352 0)
(-0.0763358 0.148097 0)
(-0.0890635 0.149616 0)
(-0.102448 0.149664 0)
(-0.116573 0.147663 0)
(-0.131462 0.142762 0)
(-0.147055 0.133922 0)
(-0.16319 0.120034 0)
(-0.179595 0.100064 0)
(-0.195888 0.073218 0)
(-0.211558 0.0390948 0)
(-0.225922 -0.0022025 0)
(-0.238114 -0.0499903 0)
(-0.246945 -0.10275 0)
(-0.25077 -0.158064 0)
(-0.247447 -0.21218 0)
(-0.234475 -0.259549 0)
(-0.209533 -0.292514 0)
(-0.171656 -0.301798 0)
(-0.122953 -0.278806 0)
(-0.0700356 -0.220483 0)
(-0.024359 -0.134814 0)
(-0.0026149 -0.0405852 0)
(-0.000590309 0.0283036 0)
(-0.00413465 0.0707134 0)
(-0.0111298 0.101174 0)
(-0.0198231 0.122265 0)
(-0.0294604 0.136471 0)
(-0.0395885 0.14593 0)
(-0.0499455 0.152304 0)
(-0.0604457 0.156738 0)
(-0.0711228 0.159874 0)
(-0.0820749 0.161886 0)
(-0.0934227 0.162532 0)
(-0.105277 0.1612 0)
(-0.117717 0.156982 0)
(-0.13077 0.148768 0)
(-0.144407 0.135365 0)
(-0.158536 0.115656 0)
(-0.173003 0.0887515 0)
(-0.187579 0.0541275 0)
(-0.201933 0.0117081 0)
(-0.215485 -0.0380994 0)
(-0.227315 -0.0942292 0)
(-0.236005 -0.154839 0)
(-0.239352 -0.216802 0)
(-0.234359 -0.274946 0)
(-0.217563 -0.321186 0)
(-0.18614 -0.344211 0)
(-0.139928 -0.331104 0)
(-0.0839292 -0.27282 0)
(-0.0308104 -0.173365 0)
(-0.00366647 -0.0545365 0)
(-0.000589031 0.030484 0)
(-0.00416387 0.0762274 0)
(-0.0111427 0.108885 0)
(-0.0196044 0.13123 0)
(-0.0287027 0.14603 0)
(-0.0379353 0.155691 0)
(-0.0470206 0.162089 0)
(-0.0558678 0.16652 0)
(-0.0645115 0.169716 0)
(-0.0730545 0.1719 0)
(-0.0816316 0.172841 0)
(-0.090386 0.171919 0)
(-0.0994561 0.168201 0)
(-0.10897 0.160548 0)
(-0.119043 0.147736 0)
(-0.129781 0.128612 0)
(-0.141275 0.102243 0)
(-0.153586 0.0680234 0)
(-0.166714 0.0257301 0)
(-0.180447 -0.0244637 0)
(-0.194252 -0.0820181 0)
(-0.207047 -0.145794 0)
(-0.216847 -0.213595 0)
(-0.220524 -0.281185 0)
(-0.213827 -0.340865 0)
(-0.192176 -0.380127 0)
(-0.152663 -0.381913 0)
(-0.0973015 -0.329502 0)
(-0.0381846 -0.218909 0)
(-0.00508879 -0.0722125 0)
(-0.000630334 0.0327151 0)
(-0.00439588 0.0818277 0)
(-0.0115553 0.116519 0)
(-0.0198753 0.139805 0)
(-0.0283847 0.154804 0)
(-0.0365361 0.164241 0)
(-0.0440444 0.17023 0)
(-0.0508323 0.174228 0)
(-0.0569504 0.177062 0)
(-0.0625182 0.179007 0)
(-0.0676941 0.179858 0)
(-0.0726623 0.179011 0)
(-0.077631 0.175544 0)
(-0.0828353 0.16833 0)
(-0.0885423 0.156163 0)
(-0.0950528 0.137906 0)
(-0.102694 0.112623 0)
(-0.111802 0.0796727 0)
(-0.122671 0.0387253 0)
(-0.135449 -0.0102831 0)
(-0.150003 -0.0672617 0)
(-0.165675 -0.131803 0)
(-0.18093 -0.202816 0)
(-0.192906 -0.277453 0)
(-0.197099 -0.349264 0)
(-0.187642 -0.405775 0)
(-0.158856 -0.426821 0)
(-0.10869 -0.387304 0)
(-0.0463431 -0.270825 0)
(-0.00702937 -0.0942199 0)
(-0.000755515 0.0351496 0)
(-0.00499797 0.0877739 0)
(-0.0126831 0.124273 0)
(-0.0210453 0.148044 0)
(-0.0289594 0.162694 0)
(-0.0358595 0.171343 0)
(-0.0414964 0.176382 0)
(-0.0458433 0.179432 0)
(-0.0489962 0.181415 0)
(-0.0511137 0.18266 0)
(-0.0523946 0.182999 0)
(-0.0530765 0.181863 0)
(-0.0534452 0.178376 0)
(-0.0538465 0.171464 0)
(-0.0546938 0.159975 0)
(-0.0564685 0.142826 0)
(-0.0597089 0.119114 0)
(-0.0649798 0.088188 0)
(-0.0728242 0.0496405 0)
(-0.0836883 0.00321392 0)
(-0.0977782 -0.0513488 0)
(-0.114872 -0.114309 0)
(-0.134019 -0.185666 0)
(-0.152974 -0.264192 0)
(-0.167588 -0.345406 0)
(-0.171461 -0.418282 0)
(-0.15664 -0.461376 0)
(-0.116492 -0.441964 0)
(-0.0550559 -0.327555 0)
(-0.00971288 -0.121193 0)
(-0.00104129 0.0380631 0)
(-0.00623699 0.0945027 0)
(-0.0149791 0.132473 0)
(-0.0236548 0.156066 0)
(-0.0309793 0.169618 0)
(-0.036437 0.176766 0)
(-0.0398877 0.180212 0)
(-0.041415 0.181739 0)
(-0.0412043 0.182355 0)
(-0.039483 0.182433 0)
(-0.0365105 0.181847 0)
(-0.0325899 0.180081 0)
(-0.0280872 0.176327 0)
(-0.0234546 0.169596 0)
(-0.0192354 0.158821 0)
(-0.0160619 0.142994 0)
(-0.0146436 0.121263 0)
(-0.0157251 0.0929812 0)
(-0.0200338 0.057684 0)
(-0.0282178 0.0149698 0)
(-0.04075 -0.0356714 0)
(-0.0578035 -0.0950215 0)
(-0.0790181 -0.163988 0)
(-0.102988 -0.242915 0)
(-0.126476 -0.329706 0)
(-0.143465 -0.416089 0)
(-0.144681 -0.481718 0)
(-0.119091 -0.488606 0)
(-0.0639277 -0.386464 0)
(-0.0134454 -0.153812 0)
(-0.00163844 0.0419416 0)
(-0.00855389 0.102696 0)
(-0.0190923 0.14158 0)
(-0.028385 0.164016 0)
(-0.0350501 0.175463 0)
(-0.0387652 0.180231 0)
(-0.039619 0.181356 0)
(-0.0378905 0.180765 0)
(-0.0339084 0.179513 0)
(-0.0280024 0.178002 0)
(-0.020511 0.176139 0)
(-0.0118081 0.173464 0)
(-0.00233234 0.169255 0)
(0.00737232 0.162621 0)
(0.0166605 0.152603 0)
(0.0247917 0.138284 0)
(0.0309368 0.118864 0)
(0.0342314 0.0937081 0)
(0.0338275 0.062303 0)
(0.0289451 0.02414 0)
(0.0189176 -0.0214752 0)
(0.00326448 -0.0756481 0)
(-0.0181918 -0.139896 0)
(-0.0449511 -0.215817 0)
(-0.0750703 -0.303705 0)
(-0.103822 -0.398972 0)
(-0.121914 -0.484932 0)
(-0.114774 -0.522189 0)
(-0.0721878 -0.443754 0)
(-0.0185349 -0.192747 0)
(-0.00285191 0.0476458 0)
(-0.0126928 0.113356 0)
(-0.0259246 0.152143 0)
(-0.0359998 0.171958 0)
(-0.0416559 0.179961 0)
(-0.0430299 0.1813 0)
(-0.0406189 0.179329 0)
(-0.035004 0.176048 0)
(-0.0267167 0.172502 0)
(-0.0162185 0.169074 0)
(-0.00393623 0.165684 0)
(0.00969031 0.161924 0)
(0.0241636 0.157153 0)
(0.0388881 0.150583 0)
(0.0531625 0.141375 0)
(0.0661846 0.128704 0)
(0.0770663 0.11183 0)
(0.0848813 0.0901261 0)
(0.0887123 0.0630407 0)
(0.0876919 0.0299848 0)
(0.0810005 -0.00984466 0)
(0.0679319 -0.057705 0)
(0.04787 -0.115403 0)
(0.0204515 -0.185306 0)
(-0.0138249 -0.26964 0)
(-0.0522332 -0.36781 0)
(-0.086999 -0.469089 0)
(-0.101396 -0.537703 0)
(-0.0782802 -0.494272 0)
(-0.0250211 -0.238356 0)
(-0.00529587 0.0567318 0)
(-0.0198947 0.127854 0)
(-0.0365911 0.164599 0)
(-0.0470172 0.179584 0)
(-0.0505754 0.182405 0)
(-0.0483102 0.179127 0)
(-0.041374 0.173303 0)
(-0.0307717 0.166869 0)
(-0.0172913 0.160751 0)
(-0.00154208 0.155245 0)
(0.0159678 0.150242 0)
(0.0347556 0.145358 0)
(0.0543039 0.140026 0)
(0.074015 0.133559 0)
(0.0931908 0.125223 0)
(0.111032 0.11429 0)
(0.126652 0.100085 0)
(0.139118 0.0819982 0)
(0.14748 0.0594579 0)
(0.150809 0.0318311 0)
(0.148143 -0.00172571 0)
(0.138579 -0.0424408 0)
(0.121125 -0.0921741 0)
(0.0947151 -0.153553 0)
(0.0585279 -0.229964 0)
(0.0128992 -0.324332 0)
(-0.0375598 -0.433229 0)
(-0.0756951 -0.530009 0)
(-0.0793009 -0.531075 0)
(-0.0321542 -0.290134 0)
(-0.010159 0.072109 0)
(-0.0320811 0.147801 0)
(-0.0518703 0.178708 0)
(-0.0604255 0.185574 0)
(-0.0590309 0.181055 0)
(-0.0503203 0.171953 0)
(-0.0363965 0.161702 0)
(-0.0187916 0.151919 0)
(0.00143421 0.143248 0)
(0.0235509 0.135794 0)
(0.0470172 0.129355 0)
(0.0713689 0.123535 0)
(0.0961378 0.117812 0)
(0.120795 0.111587 0)
(0.14472 0.104228 0)
(0.167189 0.0951004 0)
(0.187384 0.0836043 0)
(0.20441 0.0691748 0)
(0.217322 0.0512574 0)
(0.225134 0.0292388 0)
(0.226772 0.00232934 0)
(0.221115 -0.0306177 0)
(0.2068 -0.0712571 0)
(0.182232 -0.122058 0)
(0.145566 -0.186744 0)
(0.0950762 -0.270653 0)
(0.0309127 -0.377639 0)
(-0.0320722 -0.493955 0)
(-0.0705016 -0.545293 0)
(-0.037794 -0.34645 0)
(-0.0194875 0.0989001 0)
(-0.0514105 0.173737 0)
(-0.0694005 0.191909 0)
(-0.069121 0.186085 0)
(-0.0561637 0.171945 0)
(-0.0355056 0.156249 0)
(-0.0103324 0.141627 0)
(0.0173951 0.128959 0)
(0.0465102 0.118363 0)
(0.0763338 0.109626 0)
(0.106448 0.102378 0)
(0.136544 0.0961708 0)
(0.166322 0.0905077 0)
(0.195424 0.0848637 0)
(0.223396 0.0787052 0)
(0.249669 0.071507 0)
(0.273552 0.0627649 0)
(0.294247 0.0519951 0)
(0.310855 0.0387119 0)
(0.32238 0.0223822 0)
(0.327578 0.00234678 0)
(0.325188 -0.0222605 0)
(0.313564 -0.0527953 0)
(0.29065 -0.0913226 0)
(0.253819 -0.141175 0)
(0.199854 -0.208504 0)
(0.125591 -0.302893 0)
(0.0391875 -0.426575 0)
(-0.044385 -0.527536 0)
(-0.0373135 -0.402686 0)
(-0.0348841 0.143077 0)
(-0.0744171 0.198496 0)
(-0.0707043 0.193114 0)
(-0.0449834 0.170302 0)
(-0.00869162 0.146152 0)
(0.0316193 0.12523 0)
(0.0726573 0.108204 0)
(0.112906 0.0946634 0)
(0.151746 0.0839857 0)
(0.189019 0.0755654 0)
(0.224754 0.0688565 0)
(0.259027 0.0633628 0)
(0.291866 0.0586242 0)
(0.323199 0.0542058 0)
(0.352823 0.0496946 0)
(0.380383 0.0446992 0)
(0.405373 0.0388513 0)
(0.427129 0.0318007 0)
(0.444843 0.0231982 0)
(0.457551 0.0126587 0)
(0.46407 -0.000322192 0)
(0.463041 -0.0161976 0)
(0.452526 -0.0358978 0)
(0.430293 -0.060911 0)
(0.393191 -0.0937165 0)
(0.337373 -0.139646 0)
(0.256464 -0.210154 0)
(0.152339 -0.324614 0)
(0.0150357 -0.465719 0)
(-0.0172278 -0.441604 0)
(-0.0377095 0.235627 0)
(-0.0484476 0.202891 0)
(0.0262435 0.152326 0)
(0.0978942 0.11673 0)
(0.164937 0.0904749 0)
(0.225457 0.071325 0)
(0.27916 0.0576056 0)
(0.326756 0.0477286 0)
(0.369234 0.0405036 0)
(0.407533 0.03513 0)
(0.442441 0.0310557 0)
(0.474565 0.027869 0)
(0.504328 0.0252409 0)
(0.531963 0.0228944 0)
(0.557519 0.020588 0)
(0.580859 0.0181066 0)
(0.601669 0.0152566 0)
(0.619459 0.0118614 0)
(0.633576 0.00775945 0)
(0.643141 0.00278273 0)
(0.647241 -0.00321444 0)
(0.644669 -0.0106064 0)
(0.633576 -0.0197879 0)
(0.611928 -0.0314473 0)
(0.576369 -0.0468666 0)
(0.523265 -0.0694454 0)
(0.442785 -0.107449 0)
(0.333455 -0.187978 0)
(0.143249 -0.335776 0)
(0.0605759 -0.412716 0)
(0.231246 0.158596 0)
(0.291098 0.116902 0)
(0.440095 0.0756927 0)
(0.538466 0.0503876 0)
(0.605165 0.034133 0)
(0.654561 0.0234808 0)
(0.692819 0.0166011 0)
(0.723269 0.0121766 0)
(0.748214 0.00929454 0)
(0.769259 0.00737947 0)
(0.787479 0.00607575 0)
(0.803581 0.00515451 0)
(0.818015 0.00446012 0)
(0.831037 0.00388098 0)
(0.84274 0.00333287 0)
(0.853079 0.00274921 0)
(0.861886 0.00207623 0)
(0.86889 0.00126734 0)
(0.873727 0.000291135 0)
(0.875953 -0.000892453 0)
(0.874979 -0.00221521 0)
(0.870068 -0.00387463 0)
(0.860336 -0.00596253 0)
(0.844796 -0.00860643 0)
(0.821065 -0.0120664 0)
(0.787424 -0.0173924 0)
(0.732179 -0.0267779 0)
(0.655483 -0.0487893 0)
(0.453965 -0.109913 0)
(0.313146 -0.177423 0)
)
;

boundaryField
{
    movingWall
    {
        type            fixedValue;
        value           uniform (1 0 0);
    }
    fixedWalls
    {
        type            noSlip;
    }
    frontAndBack
    {
        type            empty;
    }
}


// ************************************************************************* //
