/*--------------------------------*- C++ -*----------------------------------*\
  =========                 |
  \\      /  F ield         | OpenFOAM: The Open Source CFD Toolbox
   \\    /   O peration     | Website:  https://openfoam.org
    \\  /    A nd           | Version:  7
     \\/     M anipulation  |
\*---------------------------------------------------------------------------*/
FoamFile
{
    version     2.0;
    format      ascii;
    class       surfaceScalarField;
    location    "5";
    object      phi;
}
// * * * * * * * * * * * * * * * * * * * * * * * * * * * * * * * * * * * * * //

dimensions      [0 3 -1 0 0 0 0];

internalField   nonuniform List<scalar> 
1740
(
3.65445e-07
-3.65421e-07
-6.54573e-07
1.02002e-06
-3.12499e-06
2.47041e-06
-6.70856e-06
3.58357e-06
-1.10257e-05
4.31711e-06
-1.57522e-05
4.72657e-06
-2.0641e-05
4.88873e-06
-2.55097e-05
4.86871e-06
-3.02198e-05
4.71015e-06
-3.46562e-05
4.43636e-06
-3.8711e-05
4.05483e-06
-4.22735e-05
3.5625e-06
-4.52247e-05
2.95116e-06
-4.74374e-05
2.21271e-06
-4.87816e-05
1.34421e-06
-4.91342e-05
3.52584e-07
-4.83926e-05
-7.41562e-07
-4.64925e-05
-1.90018e-06
-4.34256e-05
-3.06683e-06
-3.92575e-05
-4.16815e-06
-3.41393e-05
-5.11822e-06
-2.83128e-05
-5.82643e-06
-2.2105e-05
-6.20784e-06
-1.59105e-05
-6.19446e-06
-1.01649e-05
-5.74561e-06
-5.30845e-06
-4.85645e-06
-1.73875e-06
-3.5697e-06
2.65943e-07
-2.00469e-06
6.90373e-07
-4.24426e-07
6.90376e-07
-1.0188e-06
6.53381e-07
-5.07127e-06
5.07248e-06
-1.20539e-05
9.45303e-06
-2.13568e-05
1.28865e-05
-3.22818e-05
1.52421e-05
-4.41738e-05
1.66186e-05
-5.64767e-05
1.71917e-05
-6.8738e-05
1.71299e-05
-8.05864e-05
1.65586e-05
-9.17027e-05
1.55527e-05
-0.000101792
1.41441e-05
-0.000110564
1.23346e-05
-0.000117724
1.01107e-05
-0.000122971
7.4601e-06
-0.000126014
4.38706e-06
-0.000126588
9.26153e-07
-0.000124489
-2.84055e-06
-0.000119603
-6.78543e-06
-0.000111952
-1.07178e-05
-0.000101721
-1.44e-05
-8.92808e-05
-1.7558e-05
-7.52005e-05
-1.99067e-05
-6.02256e-05
-2.11827e-05
-4.52393e-05
-2.11808e-05
-3.11955e-05
-1.97894e-05
-1.90296e-05
-1.70223e-05
-9.54533e-06
-1.3054e-05
-3.27711e-06
-8.27289e-06
-3.4715e-07
-3.35438e-06
3.43227e-07
-2.5882e-06
3.24158e-06
-9.8423e-06
1.23266e-05
-2.10344e-05
2.06451e-05
-3.52875e-05
2.71396e-05
-5.16776e-05
3.16322e-05
-6.93422e-05
3.42832e-05
-8.7529e-05
3.53785e-05
-0.000105602
3.5203e-05
-0.000123022
3.39785e-05
-0.000139315
3.18455e-05
-0.000154042
2.8871e-05
-0.000166776
2.50689e-05
-0.000177092
2.04268e-05
-0.000184567
1.49354e-05
-0.000188798
8.6179e-06
-0.000189432
1.55973e-06
-0.000186193
-6.07924e-06
-0.00017895
-1.4028e-05
-0.000167752
-2.19162e-05
-0.000152873
-2.92789e-05
-0.000134846
-3.55851e-05
-0.000114467
-4.02858e-05
-9.27721e-05
-4.28774e-05
-7.09788e-05
-4.29741e-05
-5.03899e-05
-4.03783e-05
-3.22694e-05
-3.51429e-05
-1.76949e-05
-2.76285e-05
-7.40308e-06
-1.85647e-05
-1.62604e-06
-9.13142e-06
-1.28281e-06
-3.98274e-06
7.22431e-06
-1.41805e-05
2.25244e-05
-2.92156e-05
3.56802e-05
-4.78431e-05
4.57672e-05
-6.89155e-05
5.27045e-05
-9.14076e-05
5.67753e-05
-0.000114432
5.84027e-05
-0.00013723
5.80014e-05
-0.00015915
5.58978e-05
-0.000179608
5.23043e-05
-0.000198065
4.73275e-05
-0.000213993
4.09966e-05
-0.000226869
3.33029e-05
-0.000236177
2.42435e-05
-0.000241426
1.38667e-05
-0.000242183
2.31712e-06
-0.000238118
-1.01442e-05
-0.000229065
-2.30813e-05
-0.000215076
-3.59047e-05
-0.000196481
-4.78743e-05
-0.00017392
-5.81456e-05
-0.000148361
-6.58449e-05
-0.000121067
-7.01716e-05
-9.35255e-05
-7.05157e-05
-6.73299e-05
-6.65739e-05
-4.40254e-05
-5.84474e-05
-2.49385e-05
-4.67154e-05
-1.10165e-05
-3.24866e-05
-2.71121e-06
-1.74368e-05
-3.99402e-06
-5.14988e-06
1.23742e-05
-1.79441e-05
3.53186e-05
-3.64036e-05
5.41397e-05
-5.89037e-05
6.82673e-05
-8.40641e-05
7.78649e-05
-0.000110712
8.34228e-05
-0.000137854
8.55452e-05
-0.000164651
8.47982e-05
-0.000190376
8.16229e-05
-0.000214379
7.63072e-05
-0.000236049
6.89975e-05
-0.000254788
5.97361e-05
-0.000269999
4.85138e-05
-0.000281085
3.53296e-05
-0.000287471
2.02528e-05
-0.00028864
3.48583e-06
-0.000284182
-1.46019e-05
-0.000273866
-3.33978e-05
-0.000257706
-5.20642e-05
-0.000236037
-6.95436e-05
-0.000209564
-8.46192e-05
-0.000179386
-9.60226e-05
-0.000146975
-0.000102583
-0.000114087
-0.000103404
-8.26237e-05
-9.80367e-05
-5.44441e-05
-8.6627e-05
-3.11593e-05
-7.00002e-05
-1.39586e-05
-4.96873e-05
-3.50778e-06
-2.78876e-05
-7.5018e-06
-6.11737e-06
1.84916e-05
-2.11667e-05
5.03679e-05
-4.26536e-05
7.56266e-05
-6.85961e-05
9.42097e-05
-9.73862e-05
0.000106655
-0.000127711
0.000113748
-0.000158492
0.000116327
-0.000188833
0.000115139
-0.000217966
0.000110755
-0.000245201
0.000103543
-0.000269888
9.3684e-05
-0.000291379
8.12275e-05
-0.000309017
6.61513e-05
-0.000322128
4.84408e-05
-0.000330045
2.81698e-05
-0.000332142
5.58319e-06
-0.000327893
-1.88517e-05
-0.000316944
-4.43461e-05
-0.000299213
-6.97954e-05
-0.000274974
-9.37825e-05
-0.000244943
-0.000114651
-0.000210322
-0.000130643
-0.000172792
-0.000140113
-0.000134422
-0.000141774
-9.7497e-05
-0.000134961
-6.42827e-05
-0.000119841
-3.67612e-05
-9.75217e-05
-1.64091e-05
-7.00393e-05
-4.07344e-06
-4.02233e-05
-1.15752e-05
-6.93391e-06
2.54255e-05
-2.3952e-05
6.7386e-05
-4.813e-05
9.98046e-05
-7.7166e-05
0.000123246
-0.00010924
0.000138729
-0.000142911
0.000147419
-0.000177031
0.000150446
-0.000210667
0.000148775
-0.000243035
0.000143123
-0.000273433
0.000133941
-0.000301194
0.000121446
-0.000325644
0.000105677
-0.000346072
8.658e-05
-0.000361732
6.41e-05
-0.000371845
3.8283e-05
-0.000375644
9.38271e-06
-0.000372431
-2.2065e-05
-0.000361661
-5.51164e-05
-0.000343064
-8.83925e-05
-0.000316767
-0.000120079
-0.000283419
-0.000147998
-0.000244283
-0.00016978
-0.000201255
-0.000183141
-0.000156784
-0.000186244
-0.000113666
-0.000178079
-7.47273e-05
-0.00015878
-4.24646e-05
-0.000129784
-1.87265e-05
-9.37775e-05
-4.52287e-06
-5.44269e-05
-1.60981e-05
-7.64577e-06
3.30713e-05
-2.64168e-05
8.61571e-05
-5.30265e-05
0.000126414
-8.48919e-05
0.000155111
-0.000120002
0.00017384
-0.000156804
0.00018422
-0.000194094
0.000187737
-0.000230926
0.000185607
-0.000266522
0.000178718
-0.000300195
0.000167614
-0.000331288
0.000152539
-0.000359118
0.000133506
-0.000382938
0.000110401
-0.000401927
8.30884e-05
-0.000415181
5.15376e-05
-0.000421754
1.59549e-05
-0.00042071
-2.31091e-05
-0.000411218
-6.46077e-05
-0.000392709
-0.000106902
-0.000365034
-0.000147754
-0.000328657
-0.000184375
-0.000284819
-0.000213618
-0.000235621
-0.000232339
-0.000183971
-0.000237895
-0.000133341
-0.000228709
-8.735e-05
-0.000204771
-4.92386e-05
-0.000167896
-2.13836e-05
-0.000121632
-4.99207e-06
-7.08184e-05
-2.10902e-05
-8.28962e-06
4.13609e-05
-2.86646e-05
0.000106532
-5.75231e-05
0.000155273
-9.20329e-05
0.000189621
-0.000130014
0.00021182
-0.000169816
0.000224022
-0.000210201
0.000228122
-0.00025023
0.000225636
-0.000289158
0.000217647
-0.000326344
0.0002048
-0.000361167
0.000187362
-0.000392965
0.000165304
-0.000420978
0.000138414
-0.000444317
0.000106427
-0.000461947
6.91673e-05
-0.000472702
2.67099e-05
-0.000475347
-2.04639e-05
-0.000468649
-7.1306e-05
-0.000451588
-0.000123963
-0.000423565
-0.000175777
-0.000384678
-0.000223262
-0.000335998
-0.000262297
-0.000279769
-0.000288568
-0.000219421
-0.000298244
-0.00015931
-0.00028882
-0.000104166
-0.000259915
-5.83253e-05
-0.000213736
-2.49736e-05
-0.000154984
-5.63977e-06
-9.01522e-05
-2.673e-05
-8.8925e-06
5.02534e-05
-3.07784e-05
0.000128418
-6.17685e-05
0.000186263
-9.88027e-05
0.000226655
-0.000139548
0.000252566
-0.000182276
0.00026675
-0.000225734
0.000271579
-0.000269013
0.000268916
-0.000311434
0.000260067
-0.000352431
0.000245798
-0.000391464
0.000226394
-0.000427926
0.000201766
-0.00046108
0.000171569
-0.000489997
0.000135344
-0.000513513
9.26833e-05
-0.00053022
4.34172e-05
-0.000538527
-1.21564e-05
-0.000536658
-7.31754e-05
-0.000522972
-0.000137649
-0.00049618
-0.000202568
-0.000455754
-0.000263689
-0.000402353
-0.000315698
-0.000338211
-0.00035271
-0.000267285
-0.000369169
-0.000195038
-0.000361067
-0.00012773
-0.000327223
-7.13155e-05
-0.000270151
-3.02516e-05
-0.000196048
-6.66278e-06
-0.000113741
-3.33927e-05
-9.47351e-06
5.97269e-05
-3.28204e-05
0.000151765
-6.5876e-05
0.000219318
-0.000105362
0.000266141
-0.000148803
0.000296007
-0.000194407
0.000312354
-0.000240924
0.000318097
-0.000287508
0.000315499
-0.000333573
0.000306132
-0.000378676
0.0002909
-0.000422398
0.000270116
-0.000464247
0.000243615
-0.000503558
0.00021088
-0.000539409
0.000171195
-0.00057054
0.000123814
-0.00059529
6.81677e-05
-0.000611679
4.23214e-06
-0.000617242
-6.76118e-05
-0.000609532
-0.000145359
-0.000586281
-0.000225819
-0.000545982
-0.000303989
-0.000488525
-0.000373154
-0.000415842
-0.000425394
-0.000332309
-0.000452702
-0.000244667
-0.000448709
-0.000161204
-0.000410686
-9.02206e-05
-0.000341134
-3.81837e-05
-0.000248085
-8.31294e-06
-0.000143612
-4.17057e-05
-1.00461e-05
6.9773e-05
-3.48369e-05
0.000176556
-6.9929e-05
0.00025441
-0.000111822
0.000308034
-0.0001579
0.000342085
-0.000206318
0.000360772
-0.00025585
0.000367629
-0.000305734
0.000365384
-0.000355521
0.000355919
-0.000404931
0.00034031
-0.000453728
0.000318913
-0.000501596
0.000291482
-0.000548016
0.0002573
-0.000592145
0.000215324
-0.000632687
0.000164355
-0.000667786
0.000103267
-0.000694891
3.13374e-05
-0.000711019
-5.14837e-05
-0.000712551
-0.000143827
-0.000695964
-0.000242406
-0.000658368
-0.000341585
-0.000598405
-0.000433117
-0.000517236
-0.000506562
-0.000419344
-0.000550595
-0.000312757
-0.000555296
-0.00020828
-0.000515164
-0.000117495
-0.000431919
-4.99797e-05
-0.0003156
-1.09104e-05
-0.000182681
-5.26161e-05
-1.06214e-05
8.03945e-05
-3.68664e-05
0.000202801
-7.39937e-05
0.000291538
-0.000118262
0.000352302
-0.000166907
0.00039073
-0.000218032
0.000411898
-0.000270451
0.000420048
-0.000323515
0.000418448
-0.000376944
0.000409348
-0.000430671
0.000394038
-0.000484702
0.000372944
-0.000538969
0.000345749
-0.000593185
0.000311517
-0.000646677
0.000268816
-0.000698198
0.000215876
-0.000745742
0.000150811
-0.000786366
7.19617e-05
-0.00081629
-2.15599e-05
-0.000830729
-0.000129388
-0.000824637
-0.000248498
-0.000793328
-0.000372894
-0.000733642
-0.000492803
-0.000645317
-0.000594888
-0.00053232
-0.000663591
-0.000403646
-0.00068397
-0.00027289
-0.00064592
-0.000155961
-0.000548848
-6.71011e-05
-0.00040446
-1.4853e-05
-0.000234929
-6.74691e-05
-1.12123e-05
9.16067e-05
-3.89518e-05
0.00023054
-7.81388e-05
0.000330725
-0.000124753
0.000398917
-0.000175862
0.000441838
-0.000229511
0.000465547
-0.000284564
0.000475101
-0.000340504
0.000474388
-0.000397253
0.000466096
-0.000454998
0.000451783
-0.000514039
0.000431985
-0.000574629
0.000406339
-0.000636797
0.000373684
-0.000700137
0.000332156
-0.000763564
0.000279304
-0.000825041
0.000212288
-0.000881323
0.000128243
-0.00092784
2.49566e-05
-0.00095875
-9.84775e-05
-0.0009673
-0.000239948
-0.000946741
-0.000393453
-0.000891592
-0.000547952
-0.000799382
-0.000687098
-0.000672586
-0.000790387
-0.000520279
-0.000836277
-0.000358579
-0.000807621
-0.000208597
-0.00069883
-9.12367e-05
-0.00052182
-2.06262e-05
-0.00030554
-8.80954e-05
-1.1839e-05
0.000103446
-4.11567e-05
0.000259858
-8.24634e-05
0.000372031
-0.000131399
0.000447852
-0.00018482
0.00049526
-0.000240706
0.000521433
-0.000297969
0.000532363
-0.000356237
0.000532656
-0.000415652
0.000525511
-0.000476683
0.000512814
-0.000539959
0.000495262
-0.000606101
0.000472481
-0.000675517
0.000443101
-0.000748164
0.000404802
-0.000823231
0.000354371
-0.000898796
0.000287854
-0.000971483
0.000200931
-0.00103616
8.96297e-05
-0.00108609
-4.85484e-05
-0.00111299
-0.000213048
-0.00110804
-0.000398403
-0.00106312
-0.000592868
-0.000972783
-0.000777435
-0.000836712
-0.000926458
-0.000662461
-0.00101053
-0.000467435
-0.00100265
-0.000278111
-0.000888154
-0.000124234
-0.000675698
-2.8819e-05
-0.000400954
-0.000116914
-1.25374e-05
0.000115983
-4.35875e-05
0.000290908
-8.71321e-05
0.000415576
-0.000138374
0.000499094
-0.000193907
0.000550793
-0.000251616
0.000579142
-0.000310456
0.000591204
-0.000370205
0.000592404
-0.000431223
0.00058653
-0.000494263
0.000575853
-0.000560284
0.000561283
-0.000630283
0.000542479
-0.000705077
0.000517895
-0.000785032
0.000484757
-0.000869716
0.000439054
-0.000957487
0.000375625
-0.00104508
0.000288522
-0.00112725
0.000171806
-0.00119668
2.08731e-05
-0.00124415
-0.000165577
-0.00125916
-0.000383385
-0.00123107
-0.000620959
-0.00115091
-0.000857596
-0.00101419
-0.00106318
-0.000824675
-0.00120004
-0.000598499
-0.00122882
-0.00036617
-0.00112048
-0.000167932
-0.000873936
-4.01434e-05
-0.000528743
-0.000157058
-1.33691e-05
0.000129352
-4.64225e-05
0.000323961
-9.24202e-05
0.000461574
-0.000145988
0.000552662
-0.00020338
0.000608185
-0.000262356
0.000638118
-0.000321907
0.000650755
-0.000381948
0.000652445
-0.000443043
0.000647625
-0.000506193
0.000639003
-0.00057265
0.00062774
-0.000643741
0.000613571
-0.00072066
0.000594813
-0.000804184
0.000568282
-0.00089432
0.00052919
-0.000989877
0.000471181
-0.00108802
0.000386665
-0.00118389
0.000267675
-0.00127033
0.000107316
-0.0013379
-9.80102e-05
-0.00137552
-0.000345765
-0.00137057
-0.00062591
-0.00131061
-0.000917556
-0.00118592
-0.00118787
-0.000993944
-0.00139202
-0.000745709
-0.00147706
-0.000472148
-0.00139404
-0.000223799
-0.00112229
-5.54373e-05
-0.000697105
-0.000212495
-1.44375e-05
0.00014379
-4.99517e-05
0.000359476
-9.87716e-05
0.000510394
-0.000154745
0.000608635
-0.000213694
0.000667134
-0.000273229
0.000697653
-0.00033237
0.000709897
-0.000391156
0.000711231
-0.000450322
0.000706791
-0.000511056
0.000699737
-0.000574817
0.000691501
-0.000643169
0.000681923
-0.000717585
0.00066923
-0.0007992
0.000649896
-0.000888476
0.000618467
-0.00098482
0.000567525
-0.00108616
0.00048801
-0.0011886
0.000370109
-0.00128614
0.000204857
-0.00136976
-1.43889e-05
-0.00142966
-0.000285864
-0.00145216
-0.000603416
-0.00142223
-0.000947478
-0.00132477
-0.00128533
-0.00114885
-0.00156794
-0.000895959
-0.00172994
-0.000591419
-0.00169858
-0.000292244
-0.00142146
-7.56242e-05
-0.000913725
-0.000288119
-1.59127e-05
0.000159702
-5.46343e-05
0.000398197
-0.000106873
0.000562632
-0.000165419
0.000667181
-0.00022557
0.000727284
-0.000284779
0.000756863
-0.000342116
0.000767234
-0.000397744
0.00076686
-0.000452529
0.000761576
-0.000507769
0.000754976
-0.000565017
0.000748749
-0.000625941
0.000742846
-0.000692163
0.000735452
-0.00076507
0.000722802
-0.000845555
0.000698952
-0.000933727
0.000655697
-0.00102858
0.000582864
-0.00112768
0.000469211
-0.00122681
0.000303982
-0.00131995
7.87509e-05
-0.00139753
-0.000208283
-0.00144799
-0.000552958
-0.00145515
-0.00094032
-0.0013995
-0.00134098
-0.00126121
-0.00170623
-0.00102856
-0.0019626
-0.000713674
-0.00201347
-0.00037157
-0.00176356
-0.000101606
-0.00118369
-0.000389725
-1.80738e-05
0.000177776
-6.11859e-05
0.000441309
-0.00011775
0.000619196
-0.000179135
0.000728566
-0.000240033
0.000788182
-0.000297802
0.000814632
-0.000351632
0.000821063
-0.000401844
0.000817072
-0.000449415
0.000809147
-0.000495684
0.000801245
-0.000542188
0.000795253
-0.000590561
0.000791219
-0.000642438
0.00078733
-0.000699348
0.000779713
-0.000762572
0.000762177
-0.000832976
0.000726101
-0.000910823
0.000660711
-0.000995545
0.000553933
-0.00108544
0.000393877
-0.00117742
0.000170729
-0.00126502
-0.000120682
-0.00133937
-0.000478603
-0.00138551
-0.000894189
-0.0013819
-0.00134458
-0.00130136
-0.00178677
-0.00111752
-0.00214643
-0.000822479
-0.00230851
-0.000456837
-0.00212921
-0.00013409
-0.00150644
-0.000523816
-2.13894e-05
0.000199166
-7.07196e-05
0.00049064
-0.000132902
0.000681379
-0.00019743
0.000793094
-0.000258405
0.000849157
-0.000313258
0.000869484
-0.000361466
0.000869271
-0.000403614
0.00085922
-0.000440815
0.000846348
-0.000474414
0.000834844
-0.00050586
0.000826699
-0.000536655
0.000822014
-0.000568345
0.00081902
-0.000602515
0.000813883
-0.000640781
0.000800443
-0.000684771
0.000770091
-0.000736079
0.000712019
-0.000796144
0.000613998
-0.00086598
0.000463713
-0.000945784
0.000250533
-0.00103309
-3.33799e-05
-0.00112288
-0.000388807
-0.00120351
-0.000813564
-0.0012547
-0.00129339
-0.00124548
-0.001796
-0.00113685
-0.00225507
-0.000897142
-0.00254821
-0.000539196
-0.00248715
-0.000173321
-0.00187231
-0.000697137
-2.6673e-05
0.000225839
-8.4978e-05
0.000548945
-0.000154466
0.000750867
-0.000222282
0.00086091
-0.00028215
0.000909026
-0.000331957
0.000919291
-0.000371785
0.000909099
-0.000402678
0.000890113
-0.000425988
0.000869658
-0.0004431
0.000851956
-0.000455361
0.00083896
-0.000464113
0.000830766
-0.00047077
0.000825677
-0.000476927
0.00082004
-0.000484486
0.000808002
-0.000495771
0.000781376
-0.000513617
0.000729865
-0.000541343
0.000641725
-0.000582492
0.000504861
-0.000640279
0.00030832
-0.000717015
4.33568e-05
-0.000810888
-0.000294935
-0.000915906
-0.000708546
-0.00101615
-0.00119315
-0.00108182
-0.00173032
-0.00106666
-0.00227023
-0.000916517
-0.00269835
-0.000606236
-0.00279743
-0.000218624
-0.00225992
-0.000915761
-3.53952e-05
0.000261234
-0.000106712
0.000620261
-0.00018539
0.000829545
-0.00025595
0.00093147
-0.00031239
0.000965465
-0.000353768
0.000960669
-0.000381298
0.000936629
-0.000396807
0.000905623
-0.000402077
0.000874927
-0.000398641
0.000848521
-0.000387817
0.000828135
-0.000370823
0.000813772
-0.000348959
0.000803813
-0.000323806
0.000794887
-0.000297491
0.000781687
-0.000272891
0.000756775
-0.000253839
0.000710814
-0.000245231
0.000633117
-0.000252607
0.000512238
-0.000281847
0.00033756
-0.00033834
9.98489e-05
-0.000424926
-0.000208349
-0.000541309
-0.000592163
-0.000677956
-0.0010565
-0.000811618
-0.00159666
-0.000896491
-0.00218536
-0.000862619
-0.00273222
-0.000643101
-0.00301695
-0.000267564
-0.00263546
-0.00118333
-5.02954e-05
0.000311529
-0.000140231
0.000710197
-0.000229413
0.000918727
-0.00030025
0.00100231
-0.000348501
0.00101372
-0.000375633
0.0009878
-0.000384768
0.000945765
-0.000378984
0.000899838
-0.000360767
0.000856711
-0.000331987
0.000819741
-0.000294055
0.000790203
-0.000248153
0.00076787
-0.000195509
0.000751169
-0.000137635
0.000737013
-7.67987e-05
0.000720852
-1.62411e-05
0.000696218
3.9574e-05
0.000654999
8.50047e-05
0.000587686
0.000112898
0.000484344
0.000115483
0.000334975
8.48817e-05
0.00013045
1.42126e-05
-0.00013768
-9.92868e-05
-0.000478664
-0.000256136
-0.000899654
-0.000443225
-0.00140957
-0.000623018
-0.00200557
-0.000721232
-0.00263401
-0.000633017
-0.00310517
-0.000314427
-0.00295405
-0.00149775
-7.6522e-05
0.000388051
-0.000191923
0.000825598
-0.000290046
0.00101685
-0.000353947
0.00106621
-0.000384167
0.00104394
-0.000386519
0.000990152
-0.000367113
0.000926359
-0.000330851
0.000863576
-0.000281252
0.000807112
-0.000220712
0.000759202
-0.000150847
0.000720337
-7.28443e-05
0.000689867
1.21916e-05
0.000666133
0.000102739
0.000646465
0.000196797
0.000626793
0.000291174
0.000601841
0.00038128
0.000564893
0.00046089
0.000508075
0.000522383
0.000422851
0.000556887
0.000300471
0.000554898
0.000132438
0.000507034
-8.98158e-05
0.000404431
-0.00037606
0.000241578
-0.000736801
1.95956e-05
-0.00118758
-0.000242239
-0.00174373
-0.00047785
-0.0023984
-0.000555638
-0.00302738
-0.000347869
-0.00316182
-0.00184562
-0.000123534
0.000511585
-0.000269421
0.000971486
-0.000365473
0.0011129
-0.000404084
0.00110482
-0.000396086
0.00103594
-0.00035444
0.000948506
-0.000289495
0.000861413
-0.000208475
0.000782555
-0.000116064
0.000714701
-1.51536e-05
0.000658291
9.25236e-05
0.00061266
0.000205914
0.000576477
0.000324168
0.000547879
0.000446278
0.000524355
0.000570513
0.000502558
0.00069413
0.000478224
0.000812936
0.000446087
0.000921048
0.000399964
0.00101085
0.000333054
0.0010731
0.000238214
0.00109727
0.000108273
0.00107191
-6.44569e-05
0.000985264
-0.000289415
0.000825225
-0.000576762
0.000581552
-0.00094391
0.000257032
-0.00141921
-0.000105606
-0.00203576
-0.000381841
-0.00275114
-0.00035211
-0.00319155
-0.00219773
-0.000207588
0.000719174
-0.00037216
0.00113606
-0.000427577
0.00116832
-0.000397762
0.001075
-0.00031244
0.000950615
-0.000194548
0.000830615
-5.88985e-05
0.000725764
8.5593e-05
0.000638064
0.000233935
0.000566359
0.000383597
0.00050863
0.000533501
0.000462755
0.000683328
0.000426651
0.000833016
0.00039819
0.000982318
0.000375053
0.00113035
0.000354523
0.00127521
0.000333372
0.00141353
0.000307761
0.00154025
0.000273244
0.0016484
0.000224908
0.00172905
0.000157566
0.00177113
6.61837e-05
0.00176213
-5.54504e-05
0.00168784
-0.000215122
0.00153182
-0.000420742
0.00127574
-0.000687838
0.000903482
-0.00104695
0.000422674
-0.00155495
-6.03358e-05
-0.00226813
-0.00028736
-0.00296452
-0.00248509
-0.000340976
0.00106015
-0.000430465
0.00122555
-0.000340958
0.00107881
-0.000157634
0.000891681
6.4344e-05
0.000728637
0.000296694
0.000598265
0.000525337
0.000497121
0.000744174
0.000419227
0.000951302
0.000359232
0.00114693
0.000313002
0.00133226
0.000277423
0.00150885
0.000250059
0.00167819
0.00022886
0.00184131
0.000211928
0.00199852
0.000197317
0.00214898
0.000182905
0.00229044
0.000166306
0.00241884
0.000144843
0.00252818
0.000115567
0.00261044
7.53089e-05
0.00265502
2.16018e-05
0.00264948
-4.9915e-05
0.00257767
-0.000143315
0.00242106
-0.000264125
0.00215627
-0.000423052
0.00175445
-0.000645126
0.00118679
-0.000987302
0.000500296
-0.00158163
-3.32613e-05
-0.00243097
-0.00251835
-0.000300917
0.00136107
-4.59307e-05
0.00097056
0.000385482
0.000647398
0.000807371
0.000469792
0.00118887
0.000347142
0.0015259
0.000261226
0.00182113
0.000201893
0.00207984
0.00016052
0.002308
0.000131069
0.00251124
0.000109766
0.00269445
9.42134e-05
0.00286173
8.2775e-05
0.00301636
7.42353e-05
0.00316068
6.76031e-05
0.00329602
6.19734e-05
0.00342249
5.64406e-05
0.00353875
5.00463e-05
0.00364182
4.17704e-05
0.00372682
3.0569e-05
0.00378661
1.55189e-05
0.00381286
-4.64851e-06
0.00379524
-3.22942e-05
0.00371777
-6.58489e-05
0.00356322
-0.000109577
0.00330731
-0.000167143
0.002914
-0.000251814
0.00232534
-0.00039864
0.00148792
-0.000744214
0.000505146
-0.00144819
-0.00201321
0.00136107
0.00233163
0.00297903
0.00344882
0.00379596
0.00405719
0.00425908
0.0044196
0.00455067
0.00466043
0.00475465
0.00483742
0.00491166
0.00497926
0.00504123
0.00509767
0.00514772
0.00518949
0.00522006
0.00523558
0.00523093
0.00519864
0.00513279
0.00502321
0.00485607
0.00460425
0.00420561
0.0034614
0.00201321
)
;

boundaryField
{
    movingWall
    {
        type            calculated;
        value           uniform 0;
    }
    fixedWalls
    {
        type            calculated;
        value           uniform 0;
    }
    frontAndBack
    {
        type            empty;
        value           nonuniform 0();
    }
}


// ************************************************************************* //
