/*--------------------------------*- C++ -*----------------------------------*\
  =========                 |
  \\      /  F ield         | OpenFOAM: The Open Source CFD Toolbox
   \\    /   O peration     | Website:  https://openfoam.org
    \\  /    A nd           | Version:  7
     \\/     M anipulation  |
\*---------------------------------------------------------------------------*/
FoamFile
{
    version     2.0;
    format      ascii;
    class       surfaceScalarField;
    location    "1.35";
    object      phi;
}
// * * * * * * * * * * * * * * * * * * * * * * * * * * * * * * * * * * * * * //

dimensions      [0 3 -1 0 0 0 0];

internalField   nonuniform List<scalar> 
3784
(
-0.0019511
0.0019511
-0.000810445
-0.00114066
0.000638694
-0.00144914
0.000785573
-0.000146877
0.00033972
0.000445852
-0.000519756
0.000859476
-0.00156501
0.00104525
-0.00194212
0.00037711
-0.00112394
-0.000818185
0.000530206
-0.00165414
0.00186576
-0.00133555
0.00187923
-1.34717e-05
0.000750315
0.00112892
-0.000554697
0.00130501
-0.00101004
0.000455343
-0.000300365
-0.000709676
0.00074253
-0.0010429
0.00100334
-0.000260808
0.000268111
0.000735227
-0.00102257
0.00129069
-0.00202789
0.00100532
-0.00196649
-6.14025e-05
-0.000688065
-0.00127843
0.00108229
-0.00177035
0.00211436
-0.00103208
0.00179885
0.000315513
0.000591497
0.00120735
-0.000643897
0.00123539
-0.00105596
0.000412058
-0.000389545
-0.000666411
0.000710218
-0.00109976
0.00106263
-0.000352409
0.000280302
0.000782326
-0.0010792
0.0013595
-0.00204814
0.000968938
-0.0017362
-0.000311941
-0.000192205
-0.001544
0.0014905
-0.00168271
0.0021799
-0.000689401
0.00155259
0.000627309
0.000234215
0.00131838
-0.000882322
0.00111654
-0.000955577
7.32547e-05
-0.000955577
-0.00293188
0.00488298
-0.00169038
-0.00238215
0.000895629
-0.00403515
0.00109357
-0.000344819
0.000345934
0.00119349
-0.000568173
0.00177359
-0.00143073
0.00190781
-0.00208737
0.00103375
-0.0015411
-0.00136446
0.000721406
-0.00391665
0.00210719
-0.00272134
0.0016908
0.000402925
0.000770423
0.00204929
-0.000426893
0.00250233
-0.00128887
0.00131732
-0.000464227
-0.00153432
0.00111386
-0.00262098
0.00121365
-0.000360605
0.000130014
0.00181887
-0.000968476
0.00238918
-0.00183113
0.00186798
-0.00225478
0.000362244
-0.000959713
-0.00257349
0.00146382
-0.00419389
0.00225214
-0.00182039
0.00160499
0.000962664
0.000670289
0.00214205
-0.000554125
0.00245981
-0.00139313
0.00125107
-0.000604091
-0.00145545
0.00104469
-0.00274854
0.00123507
-0.000542787
0.000110776
0.00190662
-0.000987081
0.00245736
-0.00190268
0.00188453
-0.00210554
-0.000109075
-0.000279511
-0.00337003
0.00196421
-0.00392642
0.00219954
-0.000924735
0.0013645
0.00146234
0.000397669
0.00228521
-0.000874199
0.00238841
-0.00138467
0.000583722
-0.00234024
-0.00281443
0.0076974
-0.00244872
-0.00274786
0.000227346
-0.00671121
0.00127516
-0.00139263
0.000943784
0.00152486
8.44408e-05
0.00263293
-0.00104492
0.00303718
-0.00209996
0.00208879
-0.00157895
-0.00188546
0.00089218
-0.00638778
0.00225408
-0.00408324
0.00147096
0.00118604
0.000201238
0.00331901
-0.00104131
0.00374487
-0.00174353
0.00201954
-0.000647166
-0.00263068
0.00131017
-0.00457832
0.00174907
-0.000799508
0.000822446
0.00274549
-0.000371047
0.00358267
-0.00163754
0.00313447
-0.00239543
0.00112014
-0.00101939
-0.00394953
0.00163571
-0.00684899
0.00236393
-0.00254861
0.00130871
0.00201788
3.49842e-05
0.00341577
-0.00120071
0.0036955
-0.00183322
0.00188358
-0.000702501
-0.00258617
0.00131028
-0.00476133
0.00176445
-0.000996956
0.000748588
0.00292248
-0.000495374
0.00370132
-0.00180931
0.00319847
-0.00228097
0.000362584
-0.000334233
-0.00531676
0.00214278
-0.00640343
0.00227803
-0.00105999
0.00101693
0.00272344
-0.000270708
0.00357286
-0.00152483
0.00364253
-0.00176863
0.000827525
-0.00410887
-0.00208623
0.00978364
-0.00272507
-0.00210902
-0.000849754
-0.00858652
0.000594876
-0.00283726
0.00083734
0.0012824
0.00042897
0.0030413
-0.000358479
0.00382462
-0.00127905
0.00300937
-0.00102318
-0.00214134
0.000637935
-0.00804889
0.00137633
-0.00482163
0.000563066
0.0019993
-0.000416266
0.00429834
-0.0011105
0.00443911
-0.00137946
0.0022885
-0.000516787
-0.00349335
0.000977599
-0.00607271
0.00150013
-0.00132203
0.00108763
0.00315799
0.000339516
0.00433078
-0.000730667
0.00420465
-0.00151584
0.00190531
-0.00066754
-0.00479783
0.00112903
-0.00864556
0.00145678
-0.00287636
0.000460693
0.00301397
-0.000543664
0.00442013
-0.00124646
0.00439829
-0.00145151
0.00208864
-0.000511389
-0.00352629
0.00100564
-0.00627836
0.00147787
-0.00146919
0.000978363
0.00342199
0.000190523
0.00448916
-0.000886383
0.00427538
-0.00144895
0.000925155
-0.000214558
-0.00655116
0.0014575
-0.0080755
0.00137918
-0.000981668
0.000253145
0.00384948
-0.000733945
0.00455995
-0.00142178
0.00433036
-0.00135407
0.00075982
-0.00546294
-0.00134428
0.0111279
-0.00283609
-0.000617212
-0.00208634
-0.00933628
-0.000485694
-0.00443791
0.00028909
0.000507613
0.000321225
0.00300916
-1.11914e-05
0.00415704
-0.000533485
0.00353166
-0.000457434
-0.00221739
0.00034478
-0.0088511
0.000505664
-0.00498252
-0.000178877
0.00268384
-0.000803864
0.00492333
-0.00105426
0.0046895
-0.000997175
0.00223141
-0.000365559
-0.00412496
0.000624853
-0.00706312
0.00121974
-0.00191692
0.00117277
0.00320496
0.000765966
0.00473758
2.22973e-05
0.00494832
-0.00062912
0.00255673
-0.000288437
-0.00513851
0.000583439
-0.00951744
0.000568251
-0.00286117
-0.000200804
0.00378303
-0.000871192
0.00509052
-0.00117016
0.00469726
-0.00103531
0.00195379
-0.000300527
-0.00426108
0.000680203
-0.00725909
0.00117185
-0.00196084
0.00104943
0.00354442
0.00062788
0.00491071
-6.35506e-05
0.00496681
-0.000592487
0.00145409
-9.06919e-05
-0.00705295
0.000726745
-0.00889293
0.000499189
-0.000754112
-0.000321321
0.00466999
-0.000981772
0.0052204
-0.00124393
0.00459252
-0.000914473
0.000430361
-0.00637742
-0.000531751
0.0116597
-0.00247673
0.00132776
-0.00305453
-0.00875847
-0.00176013
-0.00573231
-0.000644524
-0.000607995
-0.00021354
0.00257818
-2.25529e-05
0.00396605
2.54444e-05
0.00348366
5.62355e-05
-0.00224818
3.12497e-05
-0.00882611
-0.000290933
-0.00466033
-0.000657238
0.00305014
-0.000817766
0.00508386
-0.000723746
0.00459548
-0.000506298
0.00201397
-0.000191258
-0.00444
0.000261376
-0.00751575
0.000746879
-0.00240242
0.000914612
0.00303723
0.000806324
0.00484587
0.000531016
0.00522363
0.000196174
0.00289157
8.30834e-05
-0.00502542
2.54729e-05
-0.00945983
-0.000239332
-0.00259637
-0.000595306
0.004139
-0.000835322
0.00533054
-0.000774329
0.00463627
-0.000518894
0.00169835
-7.3897e-05
-0.00470608
0.000343919
-0.00767691
0.000685376
-0.0023023
0.000831566
0.00339822
0.000742409
0.00499987
0.000540013
0.0051692
0.000201699
0.0017924
3.21024e-05
-0.00688336
-8.51338e-06
-0.00885232
-0.000273783
-0.000488843
-0.000632435
0.00502864
-0.000872472
0.00546043
-0.000766488
0.00448653
-0.000425457
8.93313e-05
-0.00680287
0.000268766
0.0113909
-0.00165133
0.00324785
-0.00339994
-0.00700986
-0.00285582
-0.00627643
-0.00174572
-0.0017181
-0.000972878
0.00180534
-0.000265643
0.00325882
0.00033433
0.00288369
0.000398196
-0.00231205
-0.000335658
-0.00809226
-0.000938346
-0.00405765
-0.000898531
0.00301033
-0.000563505
0.00474884
-0.000197558
0.00422953
7.50637e-05
0.00174134
3.29282e-05
-0.00439786
-0.000117421
-0.00736541
0.000127417
-0.00264726
0.000416553
0.00274809
0.000600376
0.00466205
0.000842109
0.00498189
0.000892793
0.00284088
0.0004116
-0.00454423
-0.000477439
-0.00857079
-0.000866072
-0.00220774
-0.00076885
0.00404178
-0.000519688
0.00508138
-0.00017471
0.00429129
9.13258e-05
0.00143232
0.000164054
-0.0047788
-3.22617e-05
-0.00748059
5.32526e-05
-0.00238781
0.000375626
0.00307585
0.000627808
0.00474768
0.000931196
0.00486581
0.000885043
0.00183856
0.000149617
-0.00614793
-0.000682105
-0.00802059
-0.000879918
-0.000291032
-0.000719707
0.00486843
-0.00048821
0.00522894
-0.000102182
0.00410051
0.000116403
-0.000129253
-0.00668647
0.000953308
0.0104376
-0.000530465
0.00473162
-0.00295382
-0.00458651
-0.00335708
-0.00587317
-0.0025429
-0.00253228
-0.00154159
0.000804041
-0.000485427
0.00220265
0.000471811
0.00192646
0.000511636
-0.00235187
-0.000738999
-0.00684163
-0.00148733
-0.00330932
-0.0010345
0.00255751
-0.000267439
0.00398178
0.000331348
0.00363074
0.000700222
0.00137246
0.000287729
-0.00398537
-0.000494742
-0.00658293
-0.000577502
-0.0025645
-0.000174075
0.00234467
0.0003308
0.00415717
0.00102531
0.00428738
0.00144052
0.00242567
0.000661272
-0.00376498
-0.000899047
-0.00701047
-0.00134121
-0.00176558
-0.000816747
0.00351732
-0.000132574
0.00439721
0.000398963
0.00375976
0.000738402
0.00109288
0.000384906
-0.00442531
-0.000434788
-0.0066609
-0.000597326
-0.00222527
-0.000149411
0.00262793
0.00043355
0.00416472
0.00114997
0.00414939
0.00139677
0.00159176
0.00025306
-0.00500422
-0.00119098
-0.00657656
-0.00128645
-0.000195564
-0.000676669
0.00425865
-2.40162e-05
0.00457629
0.000500939
0.00357555
0.000640028
-0.000268342
-0.00604644
0.00144794
0.00898965
0.00070637
0.00547319
-0.00176457
-0.00211557
-0.00298643
-0.00465132
-0.00266981
-0.0028489
-0.00166985
-0.000195916
-0.000531515
0.00106432
0.000500991
0.000893947
0.000418338
-0.00226922
-0.00112987
-0.00529341
-0.00188326
-0.00255593
-0.00109947
0.00177372
-7.78244e-05
0.00296013
0.000762843
0.00279008
0.00119494
0.000940368
0.000469025
-0.00325945
-0.000796793
-0.00531712
-0.00119138
-0.00216992
-0.00067665
0.00182994
0.000145933
0.00333459
0.00109502
0.00333829
0.00176361
0.00175709
0.000779498
-0.00278087
-0.00114561
-0.00508536
-0.00163334
-0.00127785
-0.000817573
0.00270156
0.00015419
0.00342545
0.000905136
0.00300881
0.00126887
0.00072915
0.000518947
-0.00367539
-0.000773799
-0.00536815
-0.00115105
-0.00184802
-0.000581621
0.00205851
0.000288446
0.00329465
0.00122978
0.00320806
0.00169379
0.00112775
0.000325617
-0.00363605
-0.00147303
-0.00477791
-0.00153778
-0.00013081
-0.000621515
0.00334239
0.000319276
0.0036355
0.00100133
0.00289349
0.00108909
-0.0003561
-0.00495735
0.00173939
0.00725026
0.00182511
0.00538746
-0.000170652
-0.000119803
-0.00180853
-0.00301344
-0.00207258
-0.00258485
-0.00138969
-0.000878811
-0.000440356
0.000114985
0.000457178
-3.58742e-06
0.000228179
-0.00204023
-0.00132626
-0.00373897
-0.00198672
-0.00189547
-0.00112137
0.000908364
-3.11472e-05
0.0018699
0.00093157
0.00182736
0.00138118
0.000490754
0.000519126
-0.0023974
-0.000984326
-0.00381366
-0.00153671
-0.00161753
-0.000946041
0.00123927
4.85087e-05
0.00234004
0.00107742
0.00230938
0.0017403
0.00109421
0.000734213
-0.00177479
-0.0011747
-0.00317644
-0.00164732
-0.00080523
-0.000732314
0.00178655
0.000304323
0.00238881
0.00119359
0.00211953
0.00152787
0.00039487
0.000548391
-0.0026959
-0.000979285
-0.00384048
-0.00144975
-0.00137756
-0.000801149
0.00140991
0.000191945
0.00230155
0.00120846
0.00219154
0.00166953
0.000666685
0.000322999
-0.00228953
-0.00148268
-0.00297223
-0.00155461
-5.88775e-05
-0.000517896
0.00230567
0.000511312
0.00260629
0.0013247
0.00208011
0.00135171
-0.000383108
-0.00360565
0.00174906
0.0055012
0.00251278
0.00462374
0.00130195
0.00109102
-0.000247571
-0.00146391
-0.000982582
-0.00184983
-0.000799085
-0.00106231
-0.000163236
-0.000520865
0.000437402
-0.000604223
8.92979e-05
-0.00169212
-0.00122128
-0.00242839
-0.00174287
-0.00137388
-0.00102681
0.000192306
-5.66933e-05
0.000899787
0.000848003
0.000922668
0.00123288
0.000105871
0.000421446
-0.00158596
-0.00100956
-0.00238266
-0.00155323
-0.00107386
-0.000988194
0.00067423
-4.55372e-05
0.00139738
0.000886886
0.00137696
0.00139229
0.000588809
0.00055072
-0.00093322
-0.000992591
-0.00163313
-0.00138162
-0.000416194
-0.000598295
0.00100323
0.000350854
0.00143966
0.00120138
0.00126901
0.00145169
0.000144554
0.000473075
-0.00171728
-0.000993039
-0.00237436
-0.00145244
-0.000918163
-0.00083517
0.000792642
8.986e-05
0.00137652
0.00100077
0.00128063
0.00133934
0.000328113
0.000243598
-0.00119379
-0.0012261
-0.00150254
-0.00131018
2.52038e-05
-0.00038542
0.00138091
0.000584878
0.00163599
0.00139934
0.00126565
0.00135363
-0.000337392
-0.00225202
0.00152356
0.00397763
0.00257751
0.00356979
0.00213553
0.00153301
0.00104146
-0.000369848
0.000193023
-0.00100139
2.72985e-06
-0.000872013
0.000215706
-0.000733843
0.000478287
-0.000866805
8.62845e-05
-0.00130012
-0.00085475
-0.00148736
-0.00123681
-0.000991825
-0.000780131
-0.000264369
-5.32121e-05
0.00017287
0.000628494
0.000240962
0.000881067
-0.000146705
0.00024301
-0.000947905
-0.000852964
-0.00128668
-0.00128498
-0.000641847
-0.000862793
0.000252042
-0.000142391
0.00067698
0.000567213
0.000667357
0.00087883
0.000277192
0.000312032
-0.00036642
-0.000684052
-0.000637044
-0.000943209
-0.000157035
-0.000400807
0.000460824
0.000325212
0.00071364
0.000977151
0.000617066
0.00111891
2.79247e-06
0.000324462
-0.000922827
-0.000816711
-0.00123319
-0.00119773
-0.000537141
-0.000737271
0.00033218
-3.4328e-05
0.000673578
0.00064526
0.000601043
0.00083676
0.000136613
0.000114327
-0.000471358
-0.000833367
-0.000554844
-0.00089828
9.01172e-05
-0.00022611
0.000708743
0.000548952
0.000860929
0.0011938
0.000620796
0.00109363
-0.000237224
-0.00115839
0.00106325
0.00291439
0.00209458
0.00253847
0.00223468
0.00139291
0.00161106
0.000253777
0.000973563
-0.000363904
0.000669
-0.000567452
0.000612512
-0.000677352
0.000550148
-0.00080444
0.00017339
-0.000923362
-0.000399011
-0.000914956
-0.00065817
-0.000732663
-0.00045322
-0.00046932
-2.28686e-05
-0.000257485
0.000394166
-0.000176071
0.000514476
-0.000267013
9.30434e-05
-0.000526475
-0.000580375
-0.000613266
-0.000873078
-0.000349146
-0.000637379
1.63414e-05
-0.000178569
0.00021817
0.000255356
0.000233434
0.000418266
0.000114283
0.000121931
-7.00821e-05
-0.000369384
-0.000145727
-0.000502586
-2.3833e-05
-0.000200593
0.000158827
0.000256631
0.000256414
0.000654623
0.000219075
0.000696178
-3.87619e-05
0.000168892
-0.000395537
-0.000545423
-0.000518869
-0.000817493
-0.000265072
-0.000558982
7.36688e-05
-0.00011296
0.000227555
0.000286368
0.000201712
0.000369793
5.31878e-05
-1.23095e-06
-0.000100334
-0.000462207
-9.38676e-05
-0.000484315
0.000112225
-8.27882e-05
0.000307218
0.000425481
0.000352662
0.000817293
0.000228981
0.000702436
-0.000122367
-0.00045595
0.000779543
0.00213484
0.00147316
0.00184485
0.00173401
0.00113206
0.00151148
0.000476305
0.00116291
-1.53311e-05
0.000911281
-0.000315829
0.000739661
-0.000505733
0.000545237
-0.000610011
0.000261047
-0.000639172
-3.49814e-05
-0.000618933
-0.000188577
-0.000579066
-0.000139131
-0.000518764
3.85062e-05
-0.000435122
0.000211404
-0.000348968
0.000244274
-0.000299882
1.9406e-05
-0.00030161
-0.000316443
-0.000277422
-0.000481499
-0.000184091
-0.000388475
-7.66814e-05
-0.000159528
-1.07768e-05
5.30205e-05
2.08865e-05
0.000131645
3.56618e-05
3.05026e-05
3.10613e-05
-0.000136623
2.13975e-05
-0.000178885
1.8427e-05
-4.36731e-05
2.3613e-05
0.000180657
3.20836e-05
0.000364957
3.47772e-05
0.000352198
-2.60007e-05
6.91747e-05
-0.000112512
-0.000298419
-0.000151275
-0.000459375
-0.000104117
-0.000359801
-2.59055e-05
-0.000141613
9.3681e-06
4.18333e-05
1.82646e-05
7.44937e-05
2.05275e-05
-5.46591e-05
2.88171e-05
-0.000204983
5.64555e-05
-0.000185387
9.26307e-05
1.36805e-05
0.000108152
0.000273608
9.27372e-05
0.000448092
5.44976e-05
0.000356235
-3.05122e-05
-9.97157e-05
0.000591254
0.00154359
0.00103277
0.00140334
0.00122225
0.000942579
0.00118445
0.000514108
0.00101064
0.000158479
0.00082439
-0.000129573
0.000642182
-0.000323527
0.000459778
-0.000427607
0.000287139
-0.000466531
0.000150134
-0.000481931
6.81091e-05
-0.000497043
4.77536e-05
-0.000498403
7.29907e-05
-0.000460356
0.000104138
-0.000380118
8.81717e-05
-0.000283918
-9.67331e-06
-0.000203765
-0.000137185
-0.00014991
-0.000203829
-0.000117448
-0.000180552
-9.99562e-05
-0.000105671
-8.56559e-05
-3.08461e-05
-5.39385e-05
1.24515e-05
-7.63643e-06
1.14914e-05
3.20207e-05
-5.99343e-06
3.88806e-05
1.97177e-06
1.04601e-05
4.7204e-05
-2.16195e-05
0.000115904
-3.66155e-05
0.000174526
-2.38441e-05
0.000148711
-1.85839e-07
3.20467e-05
4.15192e-06
-0.000110965
-8.26205e-06
-0.000190898
-2.41831e-05
-0.000177205
-3.95983e-05
-0.000116025
-5.18111e-05
-6.12951e-05
-3.64671e-05
-4.06865e-05
-8.17646e-08
-5.4923e-05
4.3053e-05
-6.06276e-05
6.21584e-05
-2.30608e-05
5.50664e-05
5.64693e-05
2.86239e-05
0.000144542
4.66688e-06
0.000189543
9.49793e-06
0.000135206
2.38248e-05
3.54878e-05
0.000454449
0.00108914
0.00079059
0.00106721
0.000937847
0.000795326
0.000941836
0.000510117
0.000856197
0.00024412
0.00070157
2.50571e-05
0.000540825
-0.000162784
0.000394223
-0.000281009
0.000280465
-0.000352772
0.000198978
-0.000400442
0.000136479
-0.000434543
8.41395e-05
-0.000446064
4.38091e-05
-0.000420025
1.55027e-05
-0.000351813
-7.16172e-06
-0.000261254
-3.21861e-05
-0.000178738
-5.62245e-05
-0.00012587
-6.80281e-05
-0.000105645
-6.41556e-05
-0.000103829
-5.22594e-05
-9.75514e-05
-3.39494e-05
-7.225e-05
-9.48561e-06
-3.21035e-05
1.96929e-05
2.84117e-06
4.73397e-05
1.12346e-05
6.50364e-05
-7.23707e-06
7.55685e-05
-3.21533e-05
7.92067e-05
-4.02542e-05
7.53589e-05
-1.99959e-05
6.16281e-05
1.35448e-05
3.14219e-05
3.43585e-05
-8.95928e-06
3.21213e-05
-3.98554e-05
6.71423e-06
-5.37416e-05
-2.57122e-05
-6.0429e-05
-4.51244e-05
-5.828e-05
-3.86185e-05
-4.91846e-05
-9.17819e-06
-2.70842e-05
2.09551e-05
1.29692e-06
3.37772e-05
3.16797e-05
2.46848e-05
5.34289e-05
6.87749e-06
5.93632e-05
-1.26548e-06
5.24762e-05
1.63841e-05
2.93624e-05
4.69391e-05
6.485e-05
0.000336521
0.000752618
0.000620158
0.000783572
0.000774043
0.000641445
0.000816192
0.000467969
0.000773993
0.000286316
0.000683386
0.000115664
0.000546384
-2.57808e-05
0.000418667
-0.000153293
0.000309437
-0.000243542
0.000218709
-0.000309713
0.000137551
-0.000353382
6.12676e-05
-0.000369782
-5.21115e-06
-0.000353546
-5.05244e-05
-0.000306495
-6.90108e-05
-0.000242763
-6.55952e-05
-0.000182152
-5.19225e-05
-0.000139543
-3.94446e-05
-0.000118124
-3.46843e-05
-0.000108591
-3.44776e-05
-9.77604e-05
-3.03624e-05
-7.6367e-05
-1.3844e-05
-4.86226e-05
1.50931e-05
-2.60958e-05
4.3809e-05
-1.74812e-05
5.959e-05
-2.30193e-05
5.91277e-05
-3.16933e-05
4.69424e-05
-2.80701e-05
3.72966e-05
-1.0349e-05
3.65731e-05
1.42697e-05
3.90153e-05
3.19169e-05
4.00094e-05
3.11282e-05
3.24398e-05
1.42839e-05
1.5427e-05
-8.70114e-06
-6.0149e-06
-2.3683e-05
-2.14538e-05
-2.31797e-05
-2.01254e-05
-1.05077e-05
-3.81854e-06
4.65058e-06
1.75529e-05
1.24078e-05
3.10182e-05
1.12197e-05
2.99539e-05
7.94102e-06
1.68117e-05
1.18789e-05
4.18174e-06
2.90139e-05
-1.94104e-06
5.30601e-05
6.29095e-05
0.000239513
0.00051311
0.000468369
0.000554716
0.000625812
0.000484
0.000706069
0.000387711
0.000716547
0.000275838
0.000672414
0.000159796
0.000597393
4.924e-05
0.000492495
-4.83936e-05
0.000384486
-0.000135534
0.000277881
-0.000203109
0.000174889
-0.00025039
7.93879e-05
-0.000274279
-6.78593e-07
-0.000273476
-5.53915e-05
-0.000251776
-8.10076e-05
-0.000217142
-8.26564e-05
-0.000180506
-7.15254e-05
-0.000150678
-5.96777e-05
-0.000129971
-5.34985e-05
-0.00011477
-5.16887e-05
-9.95731e-05
-4.6634e-05
-8.1423e-05
-3.31131e-05
-6.21412e-05
-1.29695e-05
-4.62392e-05
6.64357e-06
-3.70977e-05
1.73545e-05
-3.37323e-05
1.63465e-05
-3.06849e-05
1.07185e-05
-2.24418e-05
8.61012e-06
-8.23955e-06
1.59163e-05
6.96481e-06
3.00169e-05
1.78157e-05
4.21327e-05
1.90117e-05
4.5642e-05
1.0775e-05
3.6886e-05
5.43089e-08
2.14837e-05
-8.28079e-06
7.29853e-06
-8.99326e-06
1.57625e-06
-4.78634e-06
4.3866e-06
1.83818e-06
9.92738e-06
6.8674e-06
1.08946e-05
1.02558e-05
4.51224e-06
1.4323e-05
-6.13101e-06
2.25225e-05
-1.29496e-05
3.58342e-05
-1.01064e-05
5.02158e-05
5.28021e-05
0.000166974
0.000346137
0.00033963
0.000382058
0.000477349
0.000346278
0.000570726
0.000294334
0.000616705
0.00022986
0.000618612
0.000157888
0.000584147
8.37031e-05
0.000524395
1.13579e-05
0.000441649
-5.27872e-05
0.000347499
-0.00010896
0.000249055
-0.000151944
0.000154293
-0.000179513
7.18793e-05
-0.000191058
8.69018e-06
-0.000188586
-3.21044e-05
-0.000176349
-5.28701e-05
-0.000159742
-6.07939e-05
-0.000142756
-6.33595e-05
-0.000127406
-6.48506e-05
-0.00011328
-6.54133e-05
-9.90117e-05
-6.27356e-05
-8.41001e-05
-5.5361e-05
-6.95146e-05
-4.46844e-05
-5.69182e-05
-3.45066e-05
-4.72793e-05
-2.84524e-05
-3.97865e-05
-2.66067e-05
-3.25289e-05
-2.5445e-05
-2.36039e-05
-2.06158e-05
-1.30691e-05
-1.06785e-05
-2.97162e-06
3.17485e-06
3.96157e-06
1.6017e-05
6.1685e-06
2.18647e-05
4.92874e-06
2.01201e-05
1.80005e-06
1.24789e-05
-6.40983e-07
4.21415e-06
-7.3088e-07
-2.04483e-06
1.47215e-06
-5.17124e-06
4.96245e-06
-7.24994e-06
8.94301e-06
-1.03779e-05
1.33882e-05
-1.51007e-05
1.90508e-05
-1.90188e-05
2.64409e-05
-1.82633e-05
3.50785e-05
-1.11099e-05
4.3062e-05
4.16915e-05
0.000115493
0.000230643
0.000240021
0.000257528
0.000347654
0.000238644
0.000431656
0.000210332
0.000487639
0.000173876
0.000514061
0.000131465
0.000512251
8.55103e-05
0.000485021
3.85864e-05
0.000436588
-4.35133e-06
0.000373808
-4.61767e-05
0.000301548
-7.96823e-05
0.000226821
-0.000104783
0.000156539
-0.000120774
9.61895e-05
-0.000128238
4.86862e-05
-0.000128848
1.36857e-05
-0.000124741
-1.11927e-05
-0.000117875
-2.90858e-05
-0.000109514
-4.22748e-05
-0.000100094
-5.15278e-05
-8.97573e-05
-5.67422e-05
-7.88831e-05
-5.81385e-05
-6.81199e-05
-5.68904e-05
-5.817e-05
-5.47932e-05
-4.93768e-05
-5.30859e-05
-4.14916e-05
-5.17431e-05
-3.38713e-05
-4.92039e-05
-2.61446e-05
-4.38984e-05
-1.83746e-05
-3.55809e-05
-1.1288e-05
-2.58369e-05
-5.78181e-06
-1.73893e-05
-2.27879e-06
-1.19844e-05
-4.75947e-07
-1.04327e-05
2.49276e-07
-1.23844e-05
1.31005e-06
-1.5957e-05
2.83636e-06
-1.95706e-05
5.08369e-06
-2.25118e-05
7.90625e-06
-2.47975e-05
1.12275e-05
-2.64947e-05
1.50852e-05
-2.69987e-05
1.95588e-05
-2.51274e-05
2.45719e-05
-1.96582e-05
2.96084e-05
-1.03755e-05
3.3778e-05
3.13157e-05
8.01411e-05
0.000150502
0.000168447
0.00016922
0.000248179
0.000158911
0.000315225
0.000143283
0.000366271
0.000122827
0.000399219
9.85134e-05
0.000413209
7.15184e-05
0.000408638
4.31578e-05
0.000389465
1.48228e-05
0.000354738
-1.14479e-05
0.000310377
-3.53218e-05
0.000260456
-5.48646e-05
0.000209373
-6.96918e-05
0.000160879
-7.97447e-05
0.000117475
-8.54448e-05
8.02388e-05
-8.75058e-05
4.90728e-05
-8.67092e-05
2.32594e-05
-8.37023e-05
2.12539e-06
-7.89615e-05
-1.46481e-05
-7.29824e-05
-2.73744e-05
-6.61566e-05
-3.65424e-05
-5.8956e-05
-4.29382e-05
-5.17766e-05
-4.74181e-05
-4.48947e-05
-5.05501e-05
-3.83593e-05
-5.23399e-05
-3.20849e-05
-5.24657e-05
-2.60193e-05
-5.06011e-05
-2.02373e-05
-4.69334e-05
-1.49562e-05
-4.22991e-05
-1.04155e-05
-3.78565e-05
-6.71889e-06
-3.45657e-05
-3.76868e-06
-3.30265e-05
-1.2924e-06
-3.2733e-05
1.01829e-06
-3.3242e-05
3.34283e-06
-3.39375e-05
5.77502e-06
-3.43574e-05
8.32847e-06
-3.41364e-05
1.1009e-05
-3.28877e-05
1.38351e-05
-3.01271e-05
1.6797e-05
-2.53165e-05
1.97614e-05
-1.8195e-05
2.2487e-05
-9.02228e-06
2.46053e-05
2.22943e-05
5.6587e-05
9.39142e-05
0.000119773
0.000106032
0.000178331
0.000100353
0.000229849
9.17642e-05
0.000272186
8.04871e-05
0.00030374
6.6957e-05
0.000323538
5.17222e-05
0.000331278
3.54209e-05
0.000327379
1.87237e-05
0.000312902
3.03084e-06
0.000290101
-1.25201e-05
0.000261001
-2.57659e-05
0.000228119
-3.68102e-05
0.000193802
-4.54256e-05
0.000159948
-5.159e-05
0.000127885
-5.54425e-05
9.83953e-05
-5.72188e-05
7.18891e-05
-5.7196e-05
4.86021e-05
-5.56738e-05
2.85591e-05
-5.29384e-05
1.17116e-05
-4.93103e-05
-2.16488e-06
-4.50822e-05
-1.33891e-05
-4.05515e-05
-2.23818e-05
-3.58991e-05
-2.94823e-05
-3.12605e-05
-3.48665e-05
-2.67039e-05
-3.85833e-05
-2.23e-05
-4.07183e-05
-1.80987e-05
-4.14976e-05
-1.41786e-05
-4.13101e-05
-1.06028e-05
-4.06284e-05
-7.39583e-06
-3.98716e-05
-4.52606e-06
-3.92357e-05
-1.93233e-06
-3.86818e-05
4.66014e-07
-3.80584e-05
2.72137e-06
-3.71749e-05
4.88907e-06
-3.5821e-05
6.97389e-06
-3.37901e-05
8.9803e-06
-3.08621e-05
1.09079e-05
-2.6804e-05
1.27381e-05
-2.14595e-05
1.44162e-05
-1.48244e-05
1.58522e-05
-7.13233e-06
1.6914e-05
1.51628e-05
3.69473e-05
5.69642e-05
7.8579e-05
6.43959e-05
0.000117758
6.1172e-05
0.000153186
5.63341e-05
0.000183665
5.00024e-05
0.000208226
4.23931e-05
0.000226171
3.3778e-05
0.000237111
2.44819e-05
0.000240979
1.48541e-05
0.000238838
5.16975e-06
0.000230218
-3.90025e-06
0.000216702
-1.22508e-05
0.000199451
-1.956e-05
0.000179659
-2.56341e-05
0.000158442
-3.03737e-05
0.000136761
-3.37628e-05
0.000115394
-3.58523e-05
9.49399e-05
-3.67425e-05
7.58359e-05
-3.657e-05
5.83917e-05
-3.54952e-05
4.27748e-05
-3.36958e-05
2.90446e-05
-3.13538e-05
1.71253e-05
-2.8631e-05
6.90789e-06
-2.56805e-05
-1.74316e-06
-2.26122e-05
-8.92852e-06
-1.9521e-05
-1.47584e-05
-1.64673e-05
-1.93337e-05
-1.35204e-05
-2.28073e-05
-1.0707e-05
-2.53436e-05
-8.06701e-06
-2.71192e-05
-5.61621e-06
-2.83229e-05
-3.32103e-06
-2.89925e-05
-1.26554e-06
-2.91672e-05
6.4066e-07
-2.88465e-05
2.40295e-06
-2.80035e-05
4.04577e-06
-2.65982e-05
5.56719e-06
-2.45855e-05
6.96782e-06
-2.1921e-05
8.2445e-06
-1.85694e-05
9.38707e-06
-1.45279e-05
1.0375e-05
-9.85281e-06
1.11773e-05
-4.68612e-06
1.17474e-05
1.04759e-05
2.3242e-05
3.37204e-05
4.95846e-05
3.80535e-05
7.46117e-05
3.61466e-05
9.7632e-05
3.33139e-05
0.00011801
2.96234e-05
0.000135214
2.519e-05
0.000148835
2.01609e-05
0.000158602
1.47165e-05
0.00016441
9.0463e-06
0.000166315
3.26421e-06
0.000164585
-2.16945e-06
0.000159618
-7.28134e-06
0.00015191
-1.18514e-05
0.000142024
-1.57476e-05
0.000130536
-1.88857e-05
0.000117999
-2.12261e-05
0.000104917
-2.27696e-05
9.17278e-05
-2.35518e-05
7.87954e-05
-2.36365e-05
6.64088e-05
-2.31089e-05
5.47802e-05
-2.20683e-05
4.40474e-05
-2.06209e-05
3.42891e-05
-1.88707e-05
2.55247e-05
-1.69149e-05
1.77498e-05
-1.48388e-05
1.09378e-05
-1.271e-05
5.06184e-06
-1.05886e-05
5.45578e-08
-8.51041e-06
-4.12927e-06
-6.52397e-06
-7.55096e-06
-4.64559e-06
-1.02827e-05
-2.88145e-06
-1.23799e-05
-1.22159e-06
-1.38868e-05
2.40595e-07
-1.48467e-05
1.60026e-06
-1.52941e-05
2.85168e-06
-1.52401e-05
3.99238e-06
-1.46997e-05
5.02624e-06
-1.36877e-05
5.95534e-06
-1.22225e-05
6.77939e-06
-1.033e-05
7.49502e-06
-8.05004e-06
8.09506e-06
-5.44175e-06
8.56858e-06
-2.59219e-06
8.89693e-06
7.88193e-06
1.59328e-05
1.77851e-05
3.4051e-05
1.99342e-05
5.13758e-05
1.88207e-05
6.74927e-05
1.71948e-05
8.202e-05
1.50942e-05
9.46305e-05
1.25802e-05
0.000105059
9.73363e-06
0.000113139
6.63607e-06
0.000118763
3.4208e-06
0.000121833
1.92933e-07
0.000122619
-2.95558e-06
0.000121218
-5.87963e-06
0.000117852
-8.48475e-06
0.000112801
-1.06974e-05
0.000106377
-1.24636e-05
9.89032e-05
-1.37532e-05
9.06937e-05
-1.45599e-05
8.20415e-05
-1.48983e-05
7.32077e-05
-1.48016e-05
6.44165e-05
-1.43178e-05
5.58527e-05
-1.35053e-05
4.76613e-05
-1.24293e-05
3.99476e-05
-1.11555e-05
3.27803e-05
-9.747e-06
2.6203e-05
-8.26292e-06
2.02548e-05
-6.763e-06
1.49402e-05
-5.2726e-06
1.02628e-05
-3.8314e-06
6.18662e-06
-2.44839e-06
2.69796e-06
-1.15764e-06
-1.96512e-07
1.45404e-08
-2.5248e-06
1.1084e-06
-4.39867e-06
2.11441e-06
-5.80133e-06
3.00253e-06
-6.74679e-06
3.7977e-06
-7.25956e-06
4.50579e-06
-7.36649e-06
5.13297e-06
-7.09658e-06
5.68458e-06
-6.48239e-06
6.16418e-06
-5.56173e-06
6.57315e-06
-4.37864e-06
6.91042e-06
-2.98445e-06
7.17243e-06
-1.44217e-06
7.3524e-06
6.43828e-06
1.11442e-05
6.64111e-06
2.37928e-05
7.28777e-06
3.59326e-05
6.68104e-06
4.73033e-05
5.8237e-06
5.76638e-05
4.73437e-06
6.67859e-05
3.46019e-06
7.44413e-05
2.07909e-06
8.06449e-05
4.32415e-07
8.50999e-05
-1.03392e-06
8.80373e-05
-2.74413e-06
8.93878e-05
-4.30562e-06
8.91965e-05
-5.68754e-06
8.75797e-05
-6.86715e-06
8.46914e-05
-7.80896e-06
8.07144e-05
-8.48692e-06
7.58494e-05
-8.8884e-06
7.03025e-05
-9.01202e-06
6.42747e-05
-8.86835e-06
5.79525e-05
-8.47745e-06
5.15066e-05
-7.87114e-06
4.50846e-05
-7.0835e-06
3.88128e-05
-6.15723e-06
3.27939e-05
-5.1355e-06
2.71048e-05
-4.05746e-06
2.18013e-05
-2.96059e-06
1.69224e-05
-1.88528e-06
1.25593e-05
-9.08858e-07
8.72157e-06
7.42644e-09
5.30404e-06
9.68711e-07
2.36517e-06
1.78037e-06
-1.351e-07
2.51526e-06
-2.18576e-06
3.16008e-06
-3.78485e-06
3.71369e-06
-4.96426e-06
4.18168e-06
-5.74243e-06
4.57603e-06
-6.14324e-06
4.90698e-06
-6.19461e-06
5.18429e-06
-5.92762e-06
5.41683e-06
-5.3766e-06
5.61178e-06
-4.58015e-06
5.77482e-06
-3.58059e-06
5.90859e-06
-2.42327e-06
6.01256e-06
-1.15885e-06
6.08544e-06
5.27864e-06
7.26018e-06
-6.1963e-07
1.54192e-05
-8.69703e-07
2.32584e-05
-1.15896e-06
3.0593e-05
-1.51141e-06
3.72667e-05
-1.93849e-06
4.31488e-05
-2.42111e-06
4.81813e-05
-2.95407e-06
5.21068e-05
-3.49337e-06
5.50597e-05
-3.98658e-06
5.67731e-05
-4.45778e-06
5.7313e-05
-4.84598e-06
5.67575e-05
-5.13185e-06
5.51894e-05
-5.29836e-06
5.27129e-05
-5.33196e-06
4.94517e-05
-5.22577e-06
4.55448e-05
-4.98165e-06
4.11365e-05
-4.60317e-06
3.63691e-05
-4.09946e-06
3.13883e-05
-3.49517e-06
2.63493e-05
-2.83184e-06
2.13649e-05
-2.09978e-06
1.65292e-05
-1.32203e-06
1.19371e-05
-5.43036e-07
7.66257e-06
2.17171e-07
3.75153e-06
9.49463e-07
2.25331e-07
1.63993e-06
-2.93104e-06
2.24779e-06
-5.69973e-06
2.77681e-06
-7.96899e-06
3.23759e-06
-9.80287e-06
3.61317e-06
-1.11931e-05
3.90493e-06
-1.21494e-05
4.11645e-06
-1.26927e-05
4.25676e-06
-1.28521e-05
4.34069e-06
-1.26505e-05
4.37418e-06
-1.21134e-05
4.3701e-06
-1.12703e-05
4.3413e-06
-1.01528e-05
4.2992e-06
-8.79434e-06
4.25259e-06
-7.23115e-06
4.21044e-06
-5.50177e-06
4.17759e-06
-3.64632e-06
4.15521e-06
-1.70629e-06
4.14348e-06
3.57192e-06
3.77375e-06
-4.39313e-06
8.04221e-06
-5.13583e-06
1.21019e-05
-5.2186e-06
1.58275e-05
-5.23641e-06
1.90971e-05
-5.20666e-06
2.18053e-05
-5.12906e-06
2.38465e-05
-4.99593e-06
2.51353e-05
-4.78169e-06
2.56611e-05
-4.51174e-06
2.53832e-05
-4.18032e-06
2.43188e-05
-3.7822e-06
2.25116e-05
-3.32435e-06
2.00307e-05
-2.81656e-06
1.69763e-05
-2.27691e-06
1.34599e-05
-1.70951e-06
9.57923e-06
-1.10156e-06
5.43744e-06
-4.61733e-07
1.12956e-06
2.08742e-07
-3.2477e-06
8.82573e-07
-7.44352e-06
1.36368e-06
-1.14434e-05
1.89904e-06
-1.51845e-05
2.41823e-06
-1.86086e-05
2.88117e-06
-2.16602e-05
3.26915e-06
-2.42857e-05
3.57491e-06
-2.64418e-05
3.79592e-06
-2.81227e-05
3.92941e-06
-2.93201e-05
3.97513e-06
-3.00253e-05
3.94293e-06
-3.02512e-05
3.83831e-06
-3.00149e-05
3.66801e-06
-2.93397e-05
3.44105e-06
-2.82543e-05
3.17117e-06
-2.67838e-05
2.86997e-06
-2.49763e-05
2.56667e-06