/*--------------------------------*- C++ -*----------------------------------*\
  =========                 |
  \\      /  F ield         | OpenFOAM: The Open Source CFD Toolbox
   \\    /   O peration     | Website:  https://openfoam.org
    \\  /    A nd           | Version:  7
     \\/     M anipulation  |
\*---------------------------------------------------------------------------*/
FoamFile
{
    version     2.0;
    format      ascii;
    class       volScalarField;
    location    "0.95";
    object      p;
}
// * * * * * * * * * * * * * * * * * * * * * * * * * * * * * * * * * * * * * //

dimensions      [0 2 -2 0 0 0 0];

internalField   nonuniform List<scalar> 
1936
(
9.94528e-05
-3245.07
-6772.85
-6273.39
-5574.72
-5473.31
-4980.84
-4408.97
-4069.08
-4149.73
-4770.83
-6246.64
-7158.39
-5679.11
-3749.64
-3326.97
-3652.77
-5551.34
-7605.56
-6295.1
-3895.54
-3194.28
-3253.84
-4225
-6477.61
-7204.22
-5070.93
-3373.35
-3206.94
-3853.41
-6285.23
-7648.88
-5542.62
-3490.09
-3128.9
-3372.32
-5161.99
-7438.87
-6527.65
-3924.83
-3071.85
-3156.51
-4434.81
-7204.75
-99.8176
-3226.52
-6710.23
-6241.25
-5560.98
-5459.9
-4977.66
-4423.42
-4101.5
-4180.69
-4780.98
-6224.76
-7108.32
-5650.01
-3783.27
-3392.4
-3682.38
-5505.56
-7529.13
-6254.21
-3906.13
-3246.87
-3310.45
-4244.23
-6449.72
-7147.66
-5052.38
-3422.42
-3270.88
-3863.71
-6225.29
-7578.47
-5516.66
-3521.52
-3190.6
-3415.6
-5147.64
-7377.86
-6473.26
-3932.03
-3133.51
-3213.16
-4433.96
-7150.48
-410.29
-3181.96
-6483.49
-6160.61
-5533.19
-5415.33
-4970.41
-4463.21
-4181.84
-4261.43
-4826.16
-6167.9
-6947.05
-5574.73
-3887.45
-3547.54
-3770.68
-5399.17
-7288.32
-6146.33
-3964.53
-3372.93
-3454.78
-4324.29
-6365.21
-6964.77
-5018.62
-3557.47
-3421.55
-3914
-6065.5
-7352.7
-5465.12
-3622.72
-3333.74
-3541.59
-5131.09
-7180.92
-6318.72
-3979.53
-3281.17
-3357.76
-4464.91
-6979.22
-837.898
-3153.22
-6151.53
-6027.22
-5493.54
-5355.78
-4962.28
-4523.07
-4294.85
-4375.26
-4890.07
-6071.38
-6699.25
-5470.74
-4036.19
-3756.06
-3910.61
-5272.13
-6932.68
-5985.64
-4067.82
-3556.78
-3651.53
-4431.12
-6219.47
-6685.59
-4977.83
-3745.78
-3627.51
-4008.27
-5850.53
-7011.48
-5391.41
-3777.9
-3534.7
-3721.6
-5105.54
-6877.29
-6095.48
-4064.88
-3489
-3560.87
-4516.08
-6714.04
-1324.93
-3160.42
-5772.31
-5847.08
-5435.4
-5288.83
-4956.44
-4596.96
-4422.59
-4501.5
-4956.02
-5944.05
-6404.31
-5355.61
-4200.17
-3979.35
-4079.62
-5151.87
-6526.25
-5796.63
-4201.61
-3772.83
-3866.23
-4538.86
-6031.04
-6357.76
-4934.53
-3950.22
-3851.83
-4132.82
-5622.67
-6613.44
-5304.39
-3962.32
-3762.29
-3922.78
-5069.46
-6517.71
-5843.24
-4174.39
-3722.42
-3786.17
-4574.29
-6399.7
-1833.89
-3214.51
-5390.85
-5631.35
-5354.95
-5219.06
-4953.53
-4677.16
-4551.16
-4625.02
-5011.18
-5792.96
-6095.82
-5242.15
-4361.21
-4193.94
-4257.35
-5054.36
-6121.7
-5597.25
-4348.99
-3998.96
-4076.87
-4634.08
-5815.95
-6019.96
-4893.15
-4147.34
-4070.72
-4273.64
-5410.98
-6207.07
-5211.22
-4153.59
-3993.68
-4122.18
-5024.84
-6142.82
-5591.81
-4296.64
-3956.06
-4008.11
-4632.67
-6071.19
-2337.84
-3319.26
-5043.12
-5394.75
-5252.8
-5147.36
-4952.59
-4754.35
-4669.18
-4734.03
-5048.8
-5627.46
-5801
-5142.39
-4507.12
-4386.38
-4425.76
-4985.73
-5756.58
-5403.48
-4492.48
-4215.86
-4270.69
-4711.6
-5591.72
-5702.33
-4860.03
-4323.63
-4269.2
-4414.8
-5233.16
-5828.77
-5118.82
-4333.5
-4210.14
-4304.55
-4977.2
-5786.02
-5363.45
-4419.58
-4172.28
-4211.45
-4687.4
-5755.3
-2815.91
-3470.53
-4755.53
-5156.7
-5133.47
-5073.93
-4948.6
-4820.46
-4767.89
-4822.56
-5064.39
-5459.21
-5539.61
-5064.76
-4632.47
-4548.51
-4572.16
-4943.35
-5453.22
-5229.67
-4616.62
-4408.2
-4440.43
-4770.66
-5377.04
-5425.87
-4840.01
-4473.02
-4438.82
-4543.01
-5094.36
-5503.68
-5033.37
-4489.09
-4397.67
-4461.43
-4933.18
-5472.52
-5171.23
-4533.04
-4360.12
-4387.89
-4734.88
-5473
-3246.84
-3656.57
-4546.76
-4939.13
-5005.91
-4998.25
-4937.24
-4868.74
-4842.45
-4886.48
-5057.28
-5301
-5324.13
-5010.55
-4734.29
-4676.95
-4689.83
-4918.75
-5221.11
-5087.49
-4712.93
-4566
-4582.74
-4810.25
-5189.15
-5203.96
-4831.35
-4594.44
-4575.31
-4649.47
-4991.81
-5245.43
-4960.17
-4613.72
-4548.5
-4590.04
-4894.5
-5219.56
-5022.39
-4628.77
-4513.54
-4533.1
-4772.16
-5238.16
-3610.16
-3856.58
-4426.02
-4763.54
-4883.11
-4922.3
-4915.91
-4895.33
-4890.27
-4924.28
-5031.96
-5164.29
-5159.91
-4973.77
-4810.53
-4771.34
-4777.24
-4903.39
-5058.9
-4983.79
-4779.43
-4685.53
-4693.27
-4832.05
-5041.2
-5040.99
-4828.63
-4688.22
-4677.61
-4729.39
-4920.49
-5058.41
-4903.31
-4705.58
-4661.22
-4687.51
-4862.84
-5034.25
-4918.08
-4701.21
-4631.44
-4646.11
-4795.85
-5058.48
-3895.9
-4045.56
-4385.29
-4644.78
-4779.62
-4851.29
-4885.75
-4900.38
-4911.9
-4937.56
-4995.94
-5056.31
-5044.01
-4947.19
-4860.14
-4833.66
-4835.08
-4892.62
-4957.41
-4917.93
-4820.17
-4767.29
-4769.35
-4840.7
-4938.68
-4933.57
-4827.82
-4754.22
-4748.77
-4781.54
-4874.49
-4937.53
-4864.28
-4765.95
-4738.82
-4753.56
-4839.35
-4914.01
-4853.93
-4750.29
-4714.67
-4725.87
-4807.5
-4935.11
-4109.39
-4204.9
-4399.85
-4583.12
-4706.82
-4792.55
-4851.04
-4888.29
-4911.1
-4930.78
-4956.9
-4977.89
-4967.9
-4925.42
-4885.29
-4868.93
-4866.49
-4884.37
-4902.02
-4882.3
-4841.64
-4815.75
-4813.84
-4841.82
-4877.54
-4871.83
-4827.27
-4794.93
-4793.02
-4810.38
-4847.61
-4870.09
-4841.3
-4800.45
-4786.13
-4792.05
-4824.42
-4847.86
-4820.98
-4780.29
-4766.89
-4774.73
-4811.28
-4861.63
-4263.13
-4329.06
-4443.77
-4564.6
-4666.78
-4751.23
-4818.02
-4865.59
-4894.74
-4910.34
-4920.32
-4925.01
-4920.16
-4906.16
-4891.79
-4883.29
-4878.46
-4877.77
-4876.08
-4865.93
-4850.82
-4839.28
-4834.83
-4839.77
-4846.95
-4842.14
-4826.81
-4816.35
-4816.5
-4823.31
-4833.95
-4838.97
-4830.05
-4816.93
-4810.62
-4810.68
-4817.06
-4819.15
-4808.55
-4797.03
-4795.16
-4799.68
-4811.48
-4825.3
-4377.38
-4421.49
-4492.66
-4573.38
-4652.86
-4726.6
-4790.22
-4838.15
-4868.3
-4883.18
-4888.87
-4890.45
-4890.51
-4889.42
-4887.28
-4883.91
-4878.68
-4872.11
-4865.28
-4858.9
-4852.99
-4847.3
-4841.77
-4837.58
-4834.76
-4831.15
-4827.34
-4825.74
-4826.48
-4827.74
-4828.34
-4827.85
-4825.79
-4823.14
-4820.73
-4818.05
-4815.14
-4811.24
-4807.05
-4805.91
-4807.98
-4809.82
-4811.01
-4811.62
-4466.35
-4493.47
-4538.61
-4593.5
-4653.72
-4713.73
-4767.95
-4810.87
-4839.59
-4855.42
-4862.83
-4866.9
-4870.83
-4874.88
-4877.48
-4877.1
-4872.93
-4866.53
-4860.05
-4855.16
-4851.56
-4847.52
-4842.13
-4836.17
-4831.25
-4828.63
-4828.27
-4829
-4829.52
-4828.66
-4826.82
-4825.35
-4824.89
-4824.8
-4823.7
-4820.62
-4816.06
-4811.72
-4809.71
-4810.69
-4812.73
-4813.01
-4811.11
-4808.85
-4537.64
-4553.02
-4581.11
-4618.22
-4661.64
-4707.71
-4750.89
-4786.87
-4813.2
-4830.36
-4841.08
-4848.7
-4855.42
-4861.43
-4865.58
-4866.68
-4864.52
-4860.28
-4855.66
-4851.81
-4848.59
-4844.98
-4840.39
-4835.43
-4831.45
-4829.47
-4829.31
-4829.85
-4829.76
-4828.5
-4826.72
-4825.4
-4825.04
-4824.98
-4824
-4821.43
-4817.87
-4814.74
-4813.25
-4813.52
-4814.22
-4813.64
-4811.73
-4809.83
-4594.39
-4602.91
-4619.95
-4644.21
-4674.1
-4706.97
-4739.63
-4768.5
-4791.75
-4809.26
-4822.29
-4832.51
-4841.03
-4847.99
-4852.88
-4855.18
-4854.99
-4853.07
-4850.42
-4847.69
-4844.95
-4841.88
-4838.38
-4834.88
-4832.12
-4830.54
-4829.98
-4829.77
-4829.22
-4828.14
-4826.87
-4825.87
-4825.3
-4824.77
-4823.69
-4821.83
-4819.5
-4817.37
-4816.01
-4815.42
-4815.02
-4814.14
-4812.86
-4811.82
-4638.75
-4643.66
-4654.01
-4669.46
-4689.23
-4711.75
-4735.02
-4757.09
-4776.5
-4792.8
-4806.27
-4817.47
-4826.81
-4834.32
-4839.85
-4843.27
-4844.78
-4844.83
-4843.96
-4842.54
-4840.75
-4838.63
-4836.31
-4834.07
-4832.24
-4830.98
-4830.17
-4829.52
-4828.77
-4827.86
-4826.92
-4826.1
-4825.39
-4824.63
-4823.59
-4822.2
-4820.65
-4819.15
-4817.9
-4816.94
-4816.09
-4815.2
-4814.36
-4813.77
-4672.96
-4675.98
-4682.42
-4692.24
-4705.06
-4720.06
-4736.17
-4752.3
-4767.53
-4781.37
-4793.65
-4804.37
-4813.55
-4821.16
-4827.11
-4831.42
-4834.24
-4835.82
-4836.47
-4836.41
-4835.83
-4834.87
-4833.7
-4832.49
-4831.41
-4830.51
-4829.76
-4829.06
-4828.33
-4827.56
-4826.8
-4826.08
-4825.36
-4824.59
-4823.67
-4822.62
-4821.5
-4820.37
-4819.32
-4818.37
-4817.5
-4816.73
-4816.12
-4815.74
-4699.06
-4701.03
-4705.17
-4711.5
-4719.83
-4729.76
-4740.74
-4752.19
-4763.63
-4774.58
-4784.81
-4794.14
-4802.44
-4809.61
-4815.58
-4820.36
-4824.02
-4826.68
-4828.51
-4829.65
-4830.24
-4830.41
-4830.28
-4829.97
-4829.58
-4829.16
-4828.71
-4828.22
-4827.69
-4827.12
-4826.53
-4825.94
-4825.32
-4824.65
-4823.92
-4823.12
-4822.29
-4821.44
-4820.62
-4819.85
-4819.15
-4818.55
-4818.1
-4817.84
-4718.72
-4720.05
-4722.79
-4726.96
-4732.47
-4739.11
-4746.61
-4754.66
-4762.97
-4771.29
-4779.36
-4787
-4794.07
-4800.44
-4806.05
-4810.86
-4814.89
-4818.18
-4820.8
-4822.83
-4824.35
-4825.44
-4826.2
-4826.68
-4826.96
-4827.08
-4827.07
-4826.95
-4826.74
-4826.46
-4826.12
-4825.73
-4825.3
-4824.82
-4824.29
-4823.73
-4823.14
-4822.54
-4821.96
-4821.41
-4820.91
-4820.49
-4820.19
-4820.01
-4733.21
-4734.13
-4736
-4738.84
-4742.58
-4747.12
-4752.33
-4758.03
-4764.06
-4770.26
-4776.47
-4782.54
-4788.35
-4793.81
-4798.84
-4803.38
-4807.42
-4810.95
-4813.99
-4816.57
-4818.72
-4820.49
-4821.92
-4823.05
-4823.93
-4824.59
-4825.07
-4825.38
-4825.55
-4825.61
-4825.57
-4825.46
-4825.27
-4825.02
-4824.73
-4824.39
-4824.03
-4823.67
-4823.3
-4822.95
-4822.64
-4822.38
-4822.2
-4822.09
-4742.8
-4743.48
-4744.83
-4746.89
-4749.61
-4752.93
-4756.76
-4761.02
-4765.59
-4770.38
-4775.29
-4780.21
-4785.04
-4789.72
-4794.18
-4798.35
-4802.22
-4805.75
-4808.93
-4811.76
-4814.25
-4816.42
-4818.29
-4819.87
-4821.19
-4822.28
-4823.16
-4823.85
-4824.37
-4824.75
-4825.01
-4825.15
-4825.21
-4825.19
-4825.11
-4824.97
-4824.81
-4824.62
-4824.42
-4824.23
-4824.06
-4823.91
-4823.8
-4823.75
-4748.28
-4748.83
-4749.91
-4751.55
-4753.73
-4756.41
-4759.51
-4762.99
-4766.76
-4770.76
-4774.9
-4779.13
-4783.36
-4787.53
-4791.59
-4795.48
-4799.16
-4802.62
-4805.81
-4808.74
-4811.39
-4813.76
-4815.86
-4817.71
-4819.3
-4820.66
-4821.81
-4822.75
-4823.52
-4824.13
-4824.6
-4824.94
-4825.17
-4825.32
-4825.39
-4825.39
-4825.36
-4825.29
-4825.2
-4825.11
-4825.01
-4824.93
-4824.87
-4824.84
-4751.15
-4751.63
-4752.56
-4754
-4755.9
-4758.24
-4760.97
-4764.04
-4767.39
-4770.97
-4774.71
-4778.56
-4782.46
-4786.34
-4790.17
-4793.89
-4797.46
-4800.86
-4804.05
-4807.01
-4809.74
-4812.22
-4814.46
-4816.45
-4818.2
-4819.73
-4821.04
-4822.14
-4823.06
-4823.81
-4824.41
-4824.88
-4825.22
-4825.47
-4825.63
-4825.72
-4825.76
-4825.76
-4825.73
-4825.69
-4825.64
-4825.59
-4825.55
-4825.53
-4752.5
-4752.94
-4753.8
-4755.13
-4756.89
-4759.07
-4761.61
-4764.47
-4767.61
-4770.98
-4774.52
-4778.18
-4781.9
-4785.65
-4789.36
-4792.99
-4796.51
-4799.88
-4803.08
-4806.08
-4808.86
-4811.41
-4813.73
-4815.81
-4817.66
-4819.29
-4820.7
-4821.9
-4822.91
-4823.74
-4824.42
-4824.95
-4825.36
-4825.67
-4825.88
-4826.01
-4826.09
-4826.13
-4826.13
-4826.11
-4826.08
-4826.05
-4826.02
-4826.01
-4752.96
-4753.38
-4754.2
-4755.48
-4757.18
-4759.28
-4761.74
-4764.51
-4767.55
-4770.83
-4774.28
-4777.86
-4781.52
-4785.21
-4788.88
-4792.49
-4796
-4799.38
-4802.6
-4805.63
-4808.45
-4811.05
-4813.43
-4815.57
-4817.49
-4819.17
-4820.64
-4821.9
-4822.96
-4823.84
-4824.56
-4825.13
-4825.57
-4825.9
-4826.13
-4826.28
-4826.38
-4826.42
-4826.43
-4826.42
-4826.4
-4826.37
-4826.35
-4826.34
-4752.93
-4753.34
-4754.16
-4755.41
-4757.09
-4759.17
-4761.6
-4764.34
-4767.36
-4770.61
-4774.04
-4777.61
-4781.26
-4784.94
-4788.62
-4792.24
-4795.77
-4799.18
-4802.42
-4805.48
-4808.34
-4810.99
-4813.4
-4815.58
-4817.53
-4819.25
-4820.75
-4822.04
-4823.12
-4824.02
-4824.75
-4825.33
-4825.78
-4826.11
-4826.34
-4826.5
-4826.59
-4826.63
-4826.64
-4826.63
-4826.6
-4826.57
-4826.55
-4826.53
-4752.7
-4753.11
-4753.92
-4755.18
-4756.86
-4758.94
-4761.37
-4764.13
-4767.16
-4770.42
-4773.88
-4777.46
-4781.13
-4784.84
-4788.54
-4792.19
-4795.75
-4799.18
-4802.46
-4805.55
-4808.43
-4811.1
-4813.53
-4815.73
-4817.7
-4819.43
-4820.93
-4822.22
-4823.3
-4824.19
-4824.92
-4825.49
-4825.92
-4826.24
-4826.46
-4826.6
-4826.68
-4826.71
-4826.71
-4826.68
-4826.65
-4826.62
-4826.59
-4826.57
-4752.44
-4752.86
-4753.67
-4754.93
-4756.63
-4758.73
-4761.19
-4763.98
-4767.04
-4770.34
-4773.83
-4777.45
-4781.16
-4784.9
-4788.64
-4792.32
-4795.9
-4799.36
-4802.65
-4805.76
-4808.65
-4811.33
-4813.76
-4815.96
-4817.91
-4819.63
-4821.11
-4822.38
-4823.44
-4824.3
-4825
-4825.54
-4825.94
-4826.23
-4826.43
-4826.54
-4826.6
-4826.61
-4826.59
-4826.56
-4826.51
-4826.47
-4826.44
-4826.42
-4752.29
-4752.7
-4753.52
-4754.8
-4756.52
-4758.65
-4761.15
-4763.97
-4767.07
-4770.42
-4773.94
-4777.6
-4781.34
-4785.12
-4788.88
-4792.59
-4796.19
-4799.66
-4802.96
-4806.07
-4808.96
-4811.62
-4814.04
-4816.22
-4818.14
-4819.83
-4821.27
-4822.5
-4823.51
-4824.33
-4824.97
-4825.46
-4825.82
-4826.06
-4826.21
-4826.29
-4826.31
-4826.3
-4826.26
-4826.2
-4826.15
-4826.1
-4826.06
-4826.04
-4752.31
-4752.72
-4753.54
-4754.84
-4756.59
-4758.75
-4761.28
-4764.14
-4767.28
-4770.65
-4774.21
-4777.89
-4781.66
-4785.46
-4789.24
-4792.95
-4796.57
-4800.04
-4803.34
-4806.44
-4809.31
-4811.95
-4814.34
-4816.48
-4818.37
-4820
-4821.4
-4822.56
-4823.51
-4824.27
-4824.85
-4825.27
-4825.56
-4825.73
-4825.82
-4825.84
-4825.81
-4825.76
-4825.69
-4825.61
-4825.55
-4825.49
-4825.45
-4825.43
-4752.57
-4752.98
-4753.8
-4755.12
-4756.89
-4759.07
-4761.61
-4764.49
-4767.64
-4771.02
-4774.59
-4778.29
-4782.07
-4785.87
-4789.66
-4793.38
-4796.99
-4800.46
-4803.75
-4806.83
-4809.68
-4812.3
-4814.65
-4816.75
-4818.58
-4820.16
-4821.5
-4822.6
-4823.48
-4824.15
-4824.65
-4824.99
-4825.2
-4825.29
-4825.29
-4825.24
-4825.14
-4825.02
-4824.89
-4824.78
-4824.7
-4824.63
-4824.59
-4824.58
-4753.1
-4753.51
-4754.33
-4755.65
-4757.41
-4759.58
-4762.11
-4764.97
-4768.11
-4771.48
-4775.04
-4778.74
-4782.52
-4786.32
-4790.11
-4793.82
-4797.43
-4800.88
-4804.16
-4807.22
-4810.05
-4812.63
-4814.95
-4817
-4818.79
-4820.31
-4821.58
-4822.61
-4823.41
-4824.01
-4824.42
-4824.67
-4824.78
-4824.78
-4824.69
-4824.53
-4824.33
-4824.11
-4823.91
-4823.73
-4823.6
-4823.51
-4823.47
-4823.47
-4753.96
-4754.35
-4755.16
-4756.42
-4758.14
-4760.25
-4762.73
-4765.54
-4768.64
-4771.98
-4775.52
-4779.2
-4782.96
-4786.76
-4790.54
-4794.25
-4797.84
-4801.29
-4804.55
-4807.6
-4810.4
-4812.95
-4815.24
-4817.25
-4818.98
-4820.45
-4821.66
-4822.62
-4823.35
-4823.87
-4824.2
-4824.35
-4824.37
-4824.26
-4824.05
-4823.78
-4823.46
-4823.12
-4822.79
-4822.5
-4822.27
-4822.11
-4822.05
-4822.07
-4755.21
-4755.55
-4756.28
-4757.41
-4759.01
-4761.01
-4763.4
-4766.13
-4769.16
-4772.46
-4775.96
-4779.62
-4783.37
-4787.16
-4790.93
-4794.63
-4798.22
-4801.66
-4804.91
-4807.94
-4810.72
-4813.25
-4815.5
-4817.47
-4819.17
-4820.59
-4821.74
-4822.64
-4823.31
-4823.75
-4823.99
-4824.06
-4823.98
-4823.77
-4823.45
-4823.05
-4822.59
-4822.1
-4821.61
-4821.15
-4820.77
-4820.45
-4820.34
-4820.32
-4756.96
-4757.09
-4757.66
-4758.53
-4759.95
-4761.79
-4764.05
-4766.68
-4769.64
-4772.89
-4776.35
-4779.99
-4783.72
-4787.5
-4791.26
-4794.96
-4798.55
-4801.98
-4805.22
-4808.24
-4811.01
-4813.51
-4815.74
-4817.68
-4819.34
-4820.72
-4821.83
-4822.67
-4823.28
-4823.65
-4823.83
-4823.82
-4823.65
-4823.34
-4822.91
-4822.39
-4821.79
-4821.14
-4820.46
-4819.78
-4819.17
-4818.57
-4818.31
-4818.12
-4759.35
-4758.96
-4759.23
-4759.71
-4760.88
-4762.52
-4764.64
-4767.17
-4770.05
-4773.24
-4776.68
-4780.29
-4784.01
-4787.78
-4791.54
-4795.24
-4798.82
-4802.25
-4805.48
-4808.49
-4811.25
-4813.74
-4815.95
-4817.87
-4819.49
-4820.84
-4821.91
-4822.71
-4823.27
-4823.59
-4823.7
-4823.63
-4823.38
-4822.99
-4822.46
-4821.82
-4821.09
-4820.28
-4819.41
-4818.48
-4817.58
-4816.56
-4816.03
-4815.34
-4762.51
-4761.04
-4760.87
-4760.82
-4761.71
-4763.15
-4765.13
-4767.55
-4770.37
-4773.51
-4776.92
-4780.52
-4784.23
-4788
-4791.76
-4795.45
-4799.04
-4802.46
-4805.7
-4808.7
-4811.45
-4813.93
-4816.12
-4818.02
-4819.63
-4820.95
-4821.99
-4822.75
-4823.27
-4823.55
-4823.62
-4823.49
-4823.18
-4822.72
-4822.11
-4821.38
-4820.53
-4819.57
-4818.52
-4817.34
-4816.12
-4814.56
-4813.61
-4811.83
-4766.53
-4763.17
-4762.41
-4761.78
-4762.4
-4763.63
-4765.5
-4767.84
-4770.6
-4773.71
-4777.09
-4780.68
-4784.39
-4788.15
-4791.91
-4795.61
-4799.2
-4802.63
-4805.86
-4808.86
-4811.61
-4814.08
-4816.26
-4818.15
-4819.74
-4821.04
-4822.05
-4822.8
-4823.28
-4823.53
-4823.56
-4823.39
-4823.04
-4822.53
-4821.86
-4821.05
-4820.11
-4819.03
-4817.83
-4816.41
-4814.89
-4812.73
-4811.22
-4807.53
-4771.33
-4765.12
-4763.7
-4762.52
-4762.9
-4763.98
-4765.75
-4768.03
-4770.75
-4773.83
-4777.2
-4780.78
-4784.49
-4788.26
-4792.02
-4795.72
-4799.31
-4802.74
-4805.97
-4808.97
-4811.72
-4814.18
-4816.36
-4818.24
-4819.82
-4821.1
-4822.11
-4822.83
-4823.3
-4823.53
-4823.53
-4823.33
-4822.95
-4822.4
-4821.69
-4820.83
-4819.82
-4818.65
-4817.34
-4815.74
-4813.97
-4811.24
-4809.09
-4802.51
-4776.55
-4766.67
-4764.61
-4763
-4763.21
-4764.19
-4765.9
-4768.14
-4770.84
-4773.9
-4777.27
-4780.84
-4784.55
-4788.32
-4792.08
-4795.78
-4799.37
-4802.81
-4806.04
-4809.04
-4811.78
-4814.25
-4816.42
-4818.29
-4819.87
-4821.15
-4822.14
-4822.86
-4823.31
-4823.53
-4823.52
-4823.3
-4822.9
-4822.33
-4821.59
-4820.7
-4819.65
-4818.43
-4817.04
-4815.32
-4813.37
-4810.21
-4807.43
-4797.15
-4781.49
-4767.65
-4765.09
-4763.25
-4763.37
-4764.29
-4765.97
-4768.19
-4770.88
-4773.94
-4777.3
-4780.87
-4784.57
-4788.34
-4792.11
-4795.81
-4799.4
-4802.84
-4806.07
-4809.07
-4811.81
-4814.28
-4816.45
-4818.32
-4819.89
-4821.17
-4822.16
-4822.87
-4823.32
-4823.53
-4823.51
-4823.29
-4822.88
-4822.3
-4821.55
-4820.64
-4819.57
-4818.32
-4816.89
-4815.12
-4813.07
-4809.67
-4806.4
-4792.14
-4785.44
-4768.08
-4765.26
-4763.34
-4763.42
-4764.32
-4765.99
-4768.21
-4770.89
-4773.95
-4777.3
-4780.88
-4784.58
-4788.35
-4792.12
-4795.82
-4799.41
-4802.85
-4806.08
-4809.08
-4811.82
-4814.29
-4816.46
-4818.33
-4819.9
-4821.17
-4822.16
-4822.87
-4823.32
-4823.53
-4823.51
-4823.28
-4822.87
-4822.28
-4821.53
-4820.62
-4819.54
-4818.29
-4816.85
-4815.05
-4812.97
-4809.49
-4805.96
-4788.17
)
;

boundaryField
{
    movingWall
    {
        type            zeroGradient;
    }
    fixedWalls
    {
        type            zeroGradient;
    }
    frontAndBack
    {
        type            empty;
    }
    defaultFaces
    {
        type            empty;
    }
}


// ************************************************************************* //
