/*--------------------------------*- C++ -*----------------------------------*\
  =========                 |
  \\      /  F ield         | OpenFOAM: The Open Source CFD Toolbox
   \\    /   O peration     | Website:  https://openfoam.org
    \\  /    A nd           | Version:  7
     \\/     M anipulation  |
\*---------------------------------------------------------------------------*/
FoamFile
{
    version     2.0;
    format      ascii;
    class       surfaceScalarField;
    location    "4.7";
    object      phi;
}
// * * * * * * * * * * * * * * * * * * * * * * * * * * * * * * * * * * * * * //

dimensions      [0 3 -1 0 0 0 0];

internalField   nonuniform List<scalar> 
1740
(
3.51294e-07
-3.52158e-07
-6.60604e-07
1.0119e-06
-3.09626e-06
2.43566e-06
-6.61999e-06
3.52372e-06
-1.08558e-05
4.23583e-06
-1.54834e-05
4.62761e-06
-2.02591e-05
4.77563e-06
-2.50043e-05
4.7452e-06
-2.95848e-05
4.58055e-06
-3.38908e-05
4.30597e-06
-3.7821e-05
3.93021e-06
-4.12726e-05
3.45161e-06
-4.41358e-05
2.86321e-06
-4.62935e-05
2.15768e-06
-4.76254e-05
1.33194e-06
-4.80168e-05
3.91351e-07
-4.73702e-05
-6.46553e-07
-4.56213e-05
-1.74891e-06
-4.27555e-05
-2.86585e-06
-3.8824e-05
-3.93143e-06
-3.39572e-05
-4.86681e-06
-2.83707e-05
-5.58654e-06
-2.23632e-05
-6.00745e-06
-1.63046e-05
-6.0586e-06
-1.06136e-05
-5.69107e-06
-5.72687e-06
-4.88668e-06
-2.05699e-06
-3.66989e-06
8.21459e-08
-2.13913e-06
6.38427e-07
-5.56282e-07
6.38426e-07
-1.01064e-06
6.58489e-07
-5.00283e-06
5.00409e-06
-1.18637e-05
9.29654e-06
-2.09874e-05
1.26474e-05
-3.16818e-05
1.49302e-05
-4.32991e-05
1.62449e-05
-5.52918e-05
1.67684e-05
-6.72175e-05
1.66709e-05
-7.87173e-05
1.60803e-05
-8.94867e-05
1.50754e-05
-9.92486e-05
1.36921e-05
-0.000107733
1.19364e-05
-0.000114668
9.79812e-06
-0.000119777
7.26656e-06
-0.00012279
4.34446e-06
-0.000123459
1.06024e-06
-0.00012159
-2.51503e-06
-0.000117068
-6.27066e-06
-0.000109897
-1.00372e-05
-0.000100228
-1.36001e-05
-8.83882e-05
-1.6707e-05
-7.48866e-05
-1.90881e-05
-6.04093e-05
-2.04848e-05
-4.57859e-05
-2.0682e-05
-3.19341e-05
-1.95428e-05
-1.97802e-05
-1.70406e-05
-1.01518e-05
-1.32983e-05
-3.64073e-06
-8.65019e-06
-4.74773e-07
-3.72224e-06
1.63651e-07
-2.54645e-06
3.20494e-06
-9.66491e-06
1.21225e-05
-2.06315e-05
2.02631e-05
-3.45766e-05
2.65925e-05
-5.05851e-05
3.09386e-05
-6.78048e-05
3.34646e-05
-8.54958e-05
3.44594e-05
-0.000103038
3.42127e-05
-0.00011991
3.29524e-05
-0.000135661
3.08265e-05
-0.000149879
2.79103e-05
-0.000162168
2.42256e-05
-0.000172136
1.97659e-05
-0.000179393
1.4524e-05
-0.000183568
8.51877e-06
-0.00018433
1.82212e-06
-0.000181418
-5.42669e-06
-0.000174697
-1.29919e-05
-0.00016419
-2.05435e-05
-0.000150129
-2.7661e-05
-0.000132982
-3.38547e-05
-0.000113465
-3.86051e-05
-9.25315e-05
-4.14179e-05
-7.13242e-05
-4.18893e-05
-5.10929e-05
-3.97742e-05
-3.30833e-05
-3.50501e-05
-1.83988e-05
-2.79828e-05
-7.84951e-06
-1.91995e-05
-1.78503e-06
-9.78672e-06
-1.62139e-06
-3.90112e-06
7.10606e-06
-1.38764e-05
2.20978e-05
-2.85685e-05
3.49552e-05
-4.67485e-05
4.47725e-05
-6.7282e-05
5.14722e-05
-8.91577e-05
5.53402e-05
-0.000111503
5.68051e-05
-0.000133581
5.629e-05
-0.00015476
5.4132e-05
-0.00017449
5.05562e-05
-0.000192262
4.56824e-05
-0.000207589
3.95521e-05
-0.000219988
3.21655e-05
-0.000228987
2.35226e-05
-0.000234132
1.36641e-05
-0.000235023
2.71244e-06
-0.000231345
-9.10468e-06
-0.00022293
-2.14067e-05
-0.000209805
-3.3668e-05
-0.000192247
-4.52191e-05
-0.00017082
-5.52814e-05
-0.000146396
-6.30294e-05
-0.000120134
-6.76798e-05
-9.34257e-05
-6.85978e-05
-6.77916e-05
-6.54083e-05
-4.47453e-05
-5.80964e-05
-2.56343e-05
-4.70939e-05
-1.14851e-05
-3.33487e-05
-2.88644e-06
-1.83854e-05
-4.50783e-06
-5.02552e-06
1.21316e-05
-1.75033e-05
3.45756e-05
-3.5494e-05
5.29459e-05
-5.73995e-05
6.6678e-05
-8.18587e-05
7.59314e-05
-0.000107715
8.11969e-05
-0.000133996
8.30857e-05
-0.000159882
8.2176e-05
-0.000184675
7.89251e-05
-0.000207758
7.36394e-05
-0.00022856
6.64844e-05
-0.000246528
5.75202e-05
-0.000261113
4.67506e-05
-0.000271769
3.41785e-05
-0.000277968
1.98628e-05
-0.000279232
3.97605e-06
-0.000275176
-1.31601e-05
-0.000265573
-3.10099e-05
-0.000250414
-4.88265e-05
-0.00022998
-6.56532e-05
-0.000204892
-8.03702e-05
-0.000176138
-9.1783e-05
-0.000145065
-9.87528e-05
-0.000113307
-0.000100356
-8.26679e-05
-9.60477e-05
-5.49513e-05
-8.5813e-05
-3.17782e-05
-7.02669e-05
-1.44187e-05
-5.07082e-05
-3.69044e-06
-2.91137e-05
-8.19827e-06
-5.94982e-06
1.80814e-05
-2.05872e-05
4.9213e-05
-4.14775e-05
7.38363e-05
-6.66769e-05
9.18773e-05
-9.46027e-05
0.000103857
-0.000123962
0.000110556
-0.000153698
0.000112821
-0.000182936
0.000111414
-0.000210938
0.000106927
-0.000237051
9.97527e-05
-0.000260667
9.01002e-05
-0.000281188
7.80416e-05
-0.000298011
6.35737e-05
-0.000310522
4.6689e-05
-0.000318109
2.74502e-05
-0.000320199
6.06567e-06
-0.000316301
-1.7058e-05
-0.000306081
-4.12299e-05
-0.000289442
-6.5465e-05
-0.000266612
-8.84833e-05
-0.00023822
-0.000108763
-0.000205344
-0.000124658
-0.000169518
-0.000134579
-0.000132654
-0.00013722
-9.69013e-05
-0.0001318
-6.44374e-05
-0.000118277
-3.7231e-05
-9.74733e-05
-1.68341e-05
-7.1105e-05
-4.25975e-06
-4.16881e-05
-1.2458e-05
-6.7252e-06
2.48066e-05
-2.32401e-05
6.57279e-05
-4.66993e-05
9.72954e-05
-7.48497e-05
0.000120028
-0.000105902
0.00013491
-0.000138438
0.000143092
-0.00017133
0.000145713
-0.000203669
0.000143753
-0.000234698
0.000137957
-0.000263754
0.000128808
-0.000290212
0.000116558
-0.000313449
0.000101279
-0.000332816
8.2941e-05
-0.000347631
6.15039e-05
-0.000357186
3.70049e-05
-0.00036078
9.65936e-06
-0.00035777
-2.00674e-05
-0.000347653
-5.13474e-05
-0.000330166
-8.29513e-05
-0.000305408
-0.000113242
-0.000273948
-0.000140223
-0.000236916
-0.00016169
-0.000196037
-0.000175459
-0.000153559
-0.000179697
-0.000112088
-0.000173271
-7.43101e-05
-0.000156055
-4.2669e-05
-0.000129114
-1.90722e-05
-9.47018e-05
-4.70593e-06
-5.60543e-05
-1.71639e-05
-7.40061e-06
3.22072e-05
-2.55878e-05
8.3915e-05
-5.13698e-05
0.000123078
-8.22216e-05
0.00015088
-0.000116167
0.000168855
-0.000151674
0.0001786
-0.00018756
0.000181599
-0.000222899
0.000179092
-0.000256939
0.000171997
-0.000289027
0.000160896
-0.000318546
0.000146077
-0.000344864
0.000127597
-0.000367299
0.000105376
-0.000385101
7.93055e-05
-0.00039745
4.93539e-05
-0.000403485
1.56943e-05
-0.000402356
-2.11961e-05
-0.000393306
-6.03973e-05
-0.00037581
-0.000100447
-0.000349725
-0.000139327
-0.000315456
-0.000174492
-0.000274115
-0.00020303
-0.000227603
-0.00022197
-0.000178577
-0.000228724
-0.000130245
-0.000221603
-8.60051e-05
-0.000200295
-4.89786e-05
-0.000166141
-2.15666e-05
-0.000122114
-5.15436e-06
-7.24665e-05
-2.23183e-05
-8.01543e-06
4.02226e-05
-2.77425e-05
0.000103642
-5.5686e-05
0.000151021
-8.90766e-05
0.00018427
-0.000125769
0.000205548
-0.000164136
0.000216966
-0.000202953
0.000220416
-0.000241297
0.000217436
-0.000278444
0.000209143
-0.000313776
0.000196229
-0.00034671
0.000179011
-0.000376631
0.000157517
-0.00040284
0.000131586
-0.000424528
0.000100993
-0.000440755
6.55812e-05
-0.000450469
2.54078e-05
-0.000452554
-1.91112e-05
-0.0004459
-6.70513e-05
-0.000429589
-0.000116757
-0.000403081
-0.000165836
-0.000366458
-0.000211115
-0.000320682
-0.000248806
-0.000267776
-0.000274876
-0.000210856
-0.000285644
-0.000153918
-0.000278541
-0.000101357
-0.000252856
-5.72882e-05
-0.00021021
-2.48541e-05
-0.000154548
-5.7474e-06
-9.15732e-05
-2.80657e-05
-8.59932e-06
4.8822e-05
-2.97956e-05
0.000124838
-5.98121e-05
0.000181038
-9.56525e-05
0.000220111
-0.000135017
0.000244912
-0.000176194
0.000258143
-0.000217939
0.000262161
-0.000259352
0.000258849
-0.000299761
0.000249552
-0.000338617
0.000235085
-0.000375403
0.000215797
-0.000409551
0.000191665
-0.000440382
0.000162417
-0.000467046
0.000127658
-0.000488492
8.70268e-05
-0.000503452
4.03681e-05
-0.000510502
-1.20614e-05
-0.000508051
-6.95024e-05
-0.000494637
-0.000130171
-0.000469112
-0.000191361
-0.000430999
-0.000249228
-0.000380889
-0.000298917
-0.000320785
-0.000334979
-0.000254271
-0.000352158
-0.000186328
-0.000346484
-0.000122732
-0.000316452
-6.9062e-05
-0.00026388
-2.9625e-05
-0.000193985
-6.6624e-06
-0.000114536
-3.47281e-05
-9.17384e-06
5.79958e-05
-3.18171e-05
0.000147482
-6.38763e-05
0.000213097
-0.000102133
0.000258367
-0.000144138
0.000286918
-0.000188111
0.000302115
-0.000232801
0.000306851
-0.000277356
0.000303404
-0.000321188
0.000293384
-0.000363851
0.000277749
-0.000404938
0.000256883
-0.000443977
0.000230705
-0.000480353
0.000198792
-0.000513222
0.000160527
-0.000541448
0.000115252
-0.000563539
6.24596e-05
-0.000577757
2.15633e-06
-0.000581867
-6.53925e-05
-0.000573718
-0.00013832
-0.00055128
-0.000213799
-0.000513192
-0.000287316
-0.000459336
-0.000352772
-0.00039143
-0.000402886
-0.000313423
-0.000430165
-0.000231453
-0.000428454
-0.000153139
-0.000394766
-8.6203e-05
-0.000330816
-3.67861e-05
-0.000243402
-8.13283e-06
-0.000143189
-4.28609e-05
-9.75471e-06
6.77505e-05
-3.38604e-05
0.000171587
-6.79756e-05
0.000247212
-0.00010865
0.000299041
-0.000153286
0.000331555
-0.000200038
0.000348867
-0.000247669
0.000354481
-0.000295398
0.000351133
-0.000342755
0.000340741
-0.000389442
0.000324436
-0.00043521
0.000302651
-0.000479745
0.00027524
-0.000522564
0.000241611
-0.000562897
0.00020086
-0.000599583
0.000151938
-0.000630976
9.38532e-05
-0.000654794
2.59743e-05
-0.00066842
-5.17668e-05
-0.000668607
-0.000138133
-0.000652186
-0.00023022
-0.000616519
-0.000322983
-0.00056032
-0.000408971
-0.000484577
-0.000478628
-0.000393326
-0.000521416
-0.0002939
-0.00052788
-0.000196246
-0.000492421
-0.000111116
-0.000415947
-4.75113e-05
-0.000307006
-1.04662e-05
-0.000180234
-5.33272e-05
-1.0355e-05
7.81055e-05
-3.59703e-05
0.000197203
-7.21881e-05
0.00028343
-0.000115302
0.000342155
-0.000162555
0.000378808
-0.000212038
0.00039835
-0.000262541
0.000404984
-0.00031338
0.000401973
-0.000364238
0.000391599
-0.000415007
0.000375205
-0.000465656
0.000353299
-0.0005161
0.000325684
-0.000566068
0.000291579
-0.000614955
0.000249748
-0.000661662
0.000198645
-0.000704423
0.000136614
-0.00074064
6.21907e-05
-0.000766954
-2.54522e-05
-0.000779068
-0.00012602
-0.000772376
-0.000236912
-0.000742537
-0.000352823
-0.000686541
-0.000464967
-0.000604022
-0.000561147
-0.000498546
-0.000626892
-0.00037839
-0.000648036
-0.000256161
-0.000614649
-0.000146675
-0.000525433
-6.3265e-05
-0.000390416
-1.40566e-05
-0.000229443
-6.73837e-05
-1.09891e-05
8.90946e-05
-3.81946e-05
0.000224408
-7.65927e-05
0.000321828
-0.000122179
0.000387742
-0.000172012
0.00042864
-0.000224114
0.000450453
-0.000277312
0.000458182
-0.000331043
0.000455704
-0.00038517
0.000445726
-0.000439821
0.000429855
-0.000495237
0.000408716
-0.000551633
0.000382081
-0.000609039
0.000348985
-0.000667119
0.000307827
-0.000724946
0.000256472
-0.000780757
0.000192426
-0.000831693
0.000113126
-0.000873712
1.65671e-05
-0.00090144
-9.82918e-05
-0.000908655
-0.000229697
-0.000888979
-0.000372498
-0.000837132
-0.000516814
-0.000750623
-0.000647656
-0.000631648
-0.000745866
-0.000488686
-0.000790998
-0.00033688
-0.000766456
-0.000196048
-0.000666265
-8.57889e-05
-0.000500675
-1.93947e-05
-0.000295837
-8.67784e-05
-1.16786e-05
0.000100773
-4.06001e-05
0.00025333
-8.12947e-05
0.000362522
-0.000129394
0.00043584
-0.000181731
0.000480977
-0.000236251
0.000504973
-0.000291819
0.00051375
-0.000348006
0.000511891
-0.000404884
0.000502604
-0.000462844
0.000487816
-0.000522444
0.000468316
-0.000584253
0.000443889
-0.000648677
0.00041341
-0.000715746
0.000374895
-0.000784827
0.000325554
-0.000854303
0.000261901
-0.00092122
0.000180043
-0.000980929
7.62758e-05
-0.00102725
-5.19707e-05
-0.00105232
-0.00020463
-0.00104764
-0.000377175
-0.00100529
-0.000559168
-0.00091986
-0.000733083
-0.000790977
-0.000874749
-0.00062589
-0.000956085
-0.000441274
-0.000951072
-0.000262305
-0.000845234
-0.000117043
-0.000645936
-2.70831e-05
-0.000385796
-0.000113862
-1.24593e-05
0.000113232
-4.32936e-05
0.000284164
-8.64599e-05
0.000405689
-0.000137126
0.000486507
-0.000191849
0.0005357
-0.000248469
0.000561594
-0.000305893
0.000571174
-0.000363834
0.000569831
-0.000422578
0.000561348
-0.000482793
0.000548031
-0.000545364
0.000530887
-0.000611238
0.000509763
-0.000681238
0.00048341
-0.000755822
0.000449479
-0.000834756
0.000404489
-0.00091672
0.000343865
-0.000998863
0.000262186
-0.0010764
0.000153808
-0.00114241
1.40457e-05
-0.00118799
-0.000159052
-0.00120279
-0.000362379
-0.00117622
-0.000585731
-0.00109944
-0.00080987
-0.000968111
-0.00100607
-0.000786158
-0.00113804
-0.000569509
-0.00116772
-0.000347692
-0.00106705
-0.000159063
-0.000834565
-3.78601e-05
-0.000506999
-0.000151722
-1.33918e-05
0.000126624
-4.64492e-05
0.000317221
-9.23566e-05
0.000451596
-0.000145677
0.000539828
-0.000202615
0.000592638
-0.000260886
0.000619864
-0.000319431
0.000629719
-0.000378105
0.000628505
-0.000437401
0.000620644
-0.000498244
0.000608874
-0.000561822
0.000594465
-0.000629431
0.000577372
-0.000702291
0.00055627
-0.000781298
0.000528485
-0.000866678
0.000489869
-0.000957554
0.000434742
-0.00105146
0.000356091
-0.00114387
0.000246222
-0.00122787
9.80413e-05
-0.00129406
-9.28627e-05
-0.00133123
-0.000325205
-0.00132666
-0.0005903
-0.00126797
-0.000868562
-0.00114581
-0.00112823
-0.000958273
-0.00132558
-0.000716912
-0.00140908
-0.000452409
-0.00133155
-0.000213637
-0.00107334
-5.26168e-05
-0.000668019
-0.000204338
-1.45765e-05
0.000141201
-5.03472e-05
0.000352992
-9.94108e-05
0.00050066
-0.000155526
0.000595942
-0.000214457
0.000651569
-0.000273772
0.00067918
-0.000332452
0.000688399
-0.000390487
0.00068654
-0.000448557
0.000678714
-0.000507794
0.00066811
-0.000569615
0.000656287
-0.000635583
0.000643339
-0.000707229
0.000627917
-0.000785829
0.000607085
-0.000872069
0.000576108
-0.000965635
0.000528308
-0.00106473
0.00045519
-0.00116563
0.000347118
-0.00126232
0.00019473
-0.00134558
-9.59924e-06
-0.00140516
-0.000265623
-0.00142705
-0.000568412
-0.00139616
-0.000899457
-0.00129779
-0.0012266
-0.00112204
-0.00150133
-0.000871689
-0.00165944
-0.000572827
-0.00163042
-0.000281645
-0.00136452
-7.23787e-05
-0.000877286
-0.000276717
-1.61781e-05
0.000157379
-5.54295e-05
0.000392243
-0.000108277
0.000553507
-0.000167399
0.000655065
-0.000228032
0.000712202
-0.000287597
0.000738745
-0.000345139
0.000745941
-0.000400795
0.000742195
-0.000455395
0.000733314
-0.000510211
0.000722926
-0.000566785
0.000712861
-0.000626812
0.000703366
-0.000691999
0.000693104
-0.000763877
0.000678964
-0.000843542
0.000655773
-0.000931306
0.000616072
-0.00102631
0.000550196
-0.00112612
0.000446925
-0.00122626
0.000294875
-0.00132028
8.4414e-05
-0.00139795
-0.000187953
-0.00144718
-0.000519185
-0.0014515
-0.000895133
-0.00139173
-0.00128636
-0.00124914
-0.00164392
-0.00101374
-0.00189484
-0.00069949
-0.00194466
-0.000361962
-0.00170205
-9.82075e-05
-0.00114104
-0.000374925
-1.84677e-05
0.000175846
-6.23853e-05
0.000436161
-0.000119931
0.000611053
-0.000182346
0.000717479
-0.000244265
0.000774121
-0.000303027
0.000797508
-0.000357817
0.000800731
-0.000408952
0.000793331
-0.000457402
0.000781764
-0.000504505
0.000770028
-0.000551813
0.000760169
-0.000601006
0.00075256
-0.000653806
0.000745904
-0.00071186
0.000737018
-0.000776583
0.000720496
-0.00084894
0.000688429
-0.000929193
0.000630449
-0.00101661
0.000534339
-0.00110911
0.000387383
-0.00120301
0.000178309
-0.00129108
-9.9878e-05
-0.00136396
-0.00044631
-0.00140613
-0.00085296
-0.00139618
-0.00129632
-0.00130772
-0.00173238
-0.00111618
-0.00208637
-0.000816095
-0.00224475
-0.000450096
-0.00206805
-0.000131004
-0.00146013
-0.000505929
-2.19017e-05
0.000197748
-7.22899e-05
0.000486549
-0.000135803
0.000674566
-0.000201799
0.000783475
-0.000264331
0.000836654
-0.000320829
0.000854005
-0.000370783
0.000850685
-0.000414795
0.000837342
-0.000453993
0.000820962
-0.00048974
0.000805775
-0.000523512
0.000793941
-0.000556853
0.000785901
-0.000591366
0.000780416
-0.000628689
0.000774341
-0.000670465
0.000762272
-0.000718284
0.000736248
-0.000773593
0.000685757
-0.000837548
0.000598294
-0.000910765
0.0004606
-0.000992947
0.000260491
-0.00108062
-1.22097e-05
-0.0011689
-0.000358027
-0.00124518
-0.000776677
-0.00128912
-0.00125238
-0.00127012
-0.00175139
-0.00115046
-0.00220603
-0.000900868
-0.00249434
-0.000537183
-0.00243173
-0.000171174
-0.00182614
-0.000677103
-2.72768e-05
0.000225025
-8.68348e-05
0.000546107
-0.000157935
0.000745666
-0.000227594
0.000853134
-0.0002895
0.00089856
-0.000341552
0.000906057
-0.000383861
0.000892994
-0.0004175
0.000870982
-0.000443849
0.000847311
-0.000464318
0.000826245
-0.000480277
0.0008099
-0.000493082
0.000798706
-0.000504143
0.000791478
-0.000515014
0.000785212
-0.000527489
0.000774748
-0.000543708
0.000752467
-0.000566215
0.000708264
-0.000597976
0.000630056
-0.000642208
0.000504832
-0.000701632
0.000319916
-0.000778696
6.4854e-05
-0.000870551
-0.000266172
-0.000971195
-0.000676033
-0.00106442
-0.00115916
-0.00112033
-0.00169547
-0.00109315
-0.00223321
-0.000930427
-0.00265707
-0.000610063
-0.00275209
-0.00021806
-0.00221814
-0.000895163
-3.60403e-05
0.000261065
-0.000108705
0.000618772
-0.00018916
0.000826121
-0.000261815
0.00092579
-0.000320647
0.000957392
-0.000364734
0.000950144
-0.000395322
0.000923582
-0.000414273
0.000889933
-0.000423397
0.000856435
-0.000424251
0.000827099
-0.000418157
0.000803806
-0.00040631
0.000786858
-0.00038993
0.000775098
-0.00037046
0.000765741
-0.000349783
0.000754071
-0.000330465
0.000733149
-0.000315943
0.000693742
-0.000310602
0.000624715
-0.000320012
0.000514242
-0.00034967
0.000349574
-0.000404967
0.000120151
-0.000489207
-0.000181933
-0.000601097
-0.000564143
-0.000731536
-0.00102872
-0.000856789
-0.00157022
-0.000930789
-0.00215921
-0.000884232
-0.00270363
-0.000652492
-0.00298383
-0.000269004
-0.00260163
-0.00116417
-5.09017e-05
0.000311967
-0.000142132
0.000710002
-0.00023308
0.000917069
-0.000306075
0.000998785
-0.000356865
0.00100818
-0.000386932
0.000980211
-0.000399428
0.000936077
-0.000397455
0.00088796
-0.00038353
0.00084251
-0.000359538
0.000803107
-0.00032688
0.000771147
-0.000286676
0.000746654
-0.000240009
0.000728431
-0.000188198
0.00071393
-0.000133131
0.000699005
-7.76205e-05
0.000677638
-2.5766e-05
0.000641887
1.68774e-05
0.000582072
4.4174e-05
0.000486946
4.77917e-05
0.000345956
1.95578e-05
0.000148385
-4.64465e-05
-0.000115928
-0.000155673
-0.000454917
-0.000307191
-0.000877198
-0.000487605
-0.00138981
-0.000658866
-0.00198795
-0.000746309
-0.00261618
-0.000646213
-0.00308393
-0.000317818
-0.00293003
-0.00148199
-7.69771e-05
0.000388944
-0.000193426
0.000826451
-0.000293077
0.00101672
-0.000358947
0.00106465
-0.000391565
0.0010408
-0.00039675
0.000985396
-0.000380623
0.000919951
-0.000348109
0.000855446
-0.000302751
0.000797152
-0.000246962
0.000747318
-0.000182344
0.00070653
-0.000110015
0.000674325
-3.09331e-05
0.000649349
5.37467e-05
0.000629251
0.000142304
0.000610448
0.000232024
0.000587917
0.000318827
0.000555084
0.000397011
0.000503888
0.000458843
0.000425114
0.000495574
0.000309226
0.000497346
0.000146613
0.000453656
-7.22384e-05
0.000356058
-0.000357319
0.000198156
-0.000719296
-1.87173e-05
-0.00117293
-0.000274286
-0.00173238
-0.000501834
-0.00238864
-0.000569928
-0.00301584
-0.000352572
-0.00314738
-0.00183456
-0.00012371
0.000512654
-0.000270191
0.000972932
-0.000367288
0.00111382
-0.000407394
0.00110476
-0.000401328
0.00103473
-0.000362043
0.000946111
-0.000299885
0.000857793
-0.000222095
0.000777655
-0.000133385
0.000708443
-3.66707e-05
0.000650603
6.63305e-05
0.000603529
0.000174622
0.000566034
0.00028752
0.000536451
0.000404245
0.000512526
0.000523479
0.000491213
0.000642927
0.00046847
0.000758881
0.00043913
0.000865858
0.00039691
0.000956395
0.000334577
0.00102122
0.000244405
0.00104938
0.000118446
0.00102873
-5.15839e-05
0.000947108
-0.000275699
0.000791832
-0.00056402
0.000552561
-0.000933661
0.000232342
-0.00141216
-0.000125356
-0.00203094
-0.000394448
-0.00274674
-0.00035684
-0.00318499
-0.0021914
-0.000207416
0.000720071
-0.000371975
0.00113749
-0.000427775
0.00116962
-0.000398762
0.00107575
-0.000314652
0.000950624
-0.000198364
0.000829823
-6.47036e-05
0.000724132
7.73973e-05
0.000635554
0.000222917
0.000562923
0.000369294
0.000504226
0.000515442
0.000457381
0.000661091
0.000420386
0.000806298
0.000391244
0.000951031
0.000367793
0.00109474
0.000347507
0.0012359
0.000327304
0.00137162
0.000303416
0.00149718
0.000271342
0.00160584
0.00022592
0.00168867
0.00016158
0.00173435
7.27666e-05
0.00172973
-4.69695e-05
0.00166018
-0.000206148
0.00150865
-0.000412489
0.00125644
-0.000681451
0.000887419
-0.00104314
0.000409958
-0.00155348
-6.92973e-05
-0.00226749
-0.000291256
-0.00296303
-0.00248265
-0.00034053
0.0010606
-0.00042948
0.00122644
-0.000339752
0.00107989
-0.000156518
0.000892515
6.50298e-05
0.000729076
0.000296611
0.000598242
0.000524136
0.000496607
0.000741491
0.000418199
0.000946744
0.000357671
0.00114008
0.000310894
0.00132268
0.000274777
0.00149614
0.000246927
0.00166202
0.000225362
0.00182155
0.000208268
0.00197525
0.000193798
0.00212265
0.000179907
0.00226183
0.000164242
0.00238907
0.000144095
0.0024986
0.000116392
0.00258242
7.77613e-05
0.00262983
2.5356e-05
0.00262803
-4.5164e-05
0.0025603
-0.000138423
0.00240761
-0.000259795
0.00214612
-0.000419963
0.0017467
-0.000643716
0.00118071
-0.000987493
0.000495782
-0.00158256
-3.5831e-05
-0.00243142
-0.00251848
-0.00030053
0.00136113
-4.50002e-05
0.00097091
0.000387048
0.00064784
0.000809364
0.000470199
0.00119102
0.00034742
0.00152793
0.00026133
0.00182273
0.000201807
0.00208069
0.00016024
0.00230777
0.000130592
0.00250957
0.000109095
0.00269099
9.33594e-05
0.00285615
8.17645e-05
0.00300839
7.31184e-05
0.0031502
6.64594e-05
0.00328308
6.09151e-05
0.00340739
5.56037e-05
0.00352206
4.95732e-05
0.00362437
4.17831e-05
0.00370964
3.1124e-05
0.00377081
1.65841e-05
0.0037991
-2.92784e-06
0.00378449
-3.05576e-05
0.00371025
-6.41849e-05
0.00355868
-0.000108227
0.0033051
-0.00016638
0.00291315
-0.000251766
0.00232492
-0.000399261
0.00148744
-0.000745081
0.000504876
-0.00144886
-0.00201361
0.00136113
0.00233204
0.00297988
0.00345008
0.0037975
0.00405883
0.00426064
0.00442088
0.00455147
0.00466056
0.00475392
0.00483569
0.00490881
0.00497526
0.00503618
0.00509178
0.00514136
0.00518314
0.00521426
0.00523085
0.00522792
0.00519736
0.00513318
0.00502495
0.00485857
0.00460681
0.00420754
0.00346246
0.00201361
)
;

boundaryField
{
    movingWall
    {
        type            calculated;
        value           uniform 0;
    }
    fixedWalls
    {
        type            calculated;
        value           uniform 0;
    }
    frontAndBack
    {
        type            empty;
        value           nonuniform 0();
    }
}


// ************************************************************************* //
