/*--------------------------------*- C++ -*----------------------------------*\
  =========                 |
  \\      /  F ield         | OpenFOAM: The Open Source CFD Toolbox
   \\    /   O peration     | Website:  https://openfoam.org
    \\  /    A nd           | Version:  7
     \\/     M anipulation  |
\*---------------------------------------------------------------------------*/
FoamFile
{
    version     2.0;
    format      ascii;
    class       volScalarField;
    location    "8.4";
    object      p;
}
// * * * * * * * * * * * * * * * * * * * * * * * * * * * * * * * * * * * * * //

dimensions      [0 2 -2 0 0 0 0];

internalField   nonuniform List<scalar> 
900
(
7.66253e-07
-0.000147536
-0.000334875
-0.000502078
-0.000615881
-0.000657143
-0.000618799
-0.000499349
-0.000298944
-1.79152e-05
0.00034324
0.000782954
0.00129719
0.00187788
0.00251147
0.00317796
0.00385073
0.00449741
0.00508226
0.00556972
0.0059289
0.0061385
0.00619108
0.00609571
0.00587921
0.00558483
0.00524471
0.00495243
0.00474653
0.0046894
0.00014792
-4.19228e-06
-0.000136517
-0.000245009
-0.000309823
-0.000316677
-0.000259447
-0.000135651
5.58629e-05
0.000315592
0.000643304
0.0010374
0.00149391
0.00200533
0.00255954
0.0031388
0.00372126
0.00427922
0.004783
0.00520341
0.00551554
0.00570284
0.00576055
0.00569764
0.00553689
0.00531275
0.00506457
0.00483912
0.00468017
0.00462956
0.00034458
0.000123268
-1.25291e-05
-0.000106273
-0.000154162
-0.000147222
-8.24679e-05
4.11578e-05
0.000224557
0.000468553
0.000773537
0.00113875
0.00156132
0.00203505
0.0025494
0.0030892
0.00363354
0.00415679
0.00463081
0.00502751
0.00532262
0.00549984
0.00555433
0.00549464
0.00534252
0.00513015
0.00489565
0.00467924
0.00451633
0.00443507
0.000524415
0.000220875
6.26213e-05
-3.32906e-05
-7.70618e-05
-6.53035e-05
1.01727e-06
0.000120747
0.000294066
0.000522049
0.00080599
0.00114652
0.0015425
0.00198971
0.00247964
0.00299853
0.00352697
0.0040397
0.00450808
0.00490258
0.00519686
0.00537237
0.0054224
0.00535441
0.0051899
0.00496128
0.00470708
0.00446747
0.00427497
0.00413963
0.000640399
0.000253453
6.71513e-05
-3.83419e-05
-8.52142e-05
-7.4944e-05
-1.22802e-05
9.94211e-05
0.00025963
0.000469778
0.000732317
0.00104965
0.00142284
0.00185015
0.00232531
0.00283619
0.00336499
0.00388576
0.00436817
0.00477949
0.00508915
0.00527411
0.00532385
0.00524363
0.0050547
0.00479106
0.00449419
0.00420805
0.00396565
0.00376283
0.000652011
0.000186138
-3.0061e-05
-0.000149616
-0.000205026
-0.000201886
-0.000148244
-4.93515e-05
9.3752e-05
0.000283055
0.000522423
0.000816378
0.00116866
0.00158047
0.00204833
0.00256195
0.00310628
0.00365352
0.00417094
0.00462115
0.00496713
0.00517871
0.00523897
0.00514894
0.0049289
0.00461533
0.00425516
0.00390026
0.00358846
0.00330484
0.000527279
-1.05418e-05
-0.000256195
-0.000392264
-0.000460278
-0.000469362
-0.000430367
-0.000350067
-0.000229761
-6.67031e-05
0.00014461
0.00041115
0.000739793
0.00113536
0.00159786
0.00211935
0.00269117
0.00328141
0.00385537
0.00437008
0.00477984
0.00504403
0.00513552
0.0050477
0.00479779
0.00442472
0.00398319
0.00353743
0.00313485
0.00275065
0.000239424
-0.000362611
-0.000636177
-0.000790201
-0.000874346
-0.000900889
-0.000883094
-0.000828978
-0.000739937
-0.000612374
-0.000439018
-0.000210177
8.4677e-05
0.000454884
0.000906464
0.00143948
0.00203653
0.00268033
0.00333155
0.00394041
0.00445031
0.00480602
0.00496462
0.00490605
0.00464002
0.00420612
0.00366863
0.00310923
0.00259012
0.00207525
-0.000234919
-0.000893247
-0.00119295
-0.00136633
-0.00147052
-0.00152077
-0.00153256
-0.00151506
-0.00146984
-0.00139256
-0.00127431
-0.00110258
-0.000862696
-0.000539658
-0.000120508
0.000401859
0.00102065
0.00172185
0.00246747
0.00320333
0.00386056
0.00436456
0.00464873
0.00467015
0.00442243
0.0039408
0.00329936
0.00260322
0.00193608
0.00124737
-0.000916038
-0.00162251
-0.00194674
-0.00214142
-0.0022706
-0.00235252
-0.00240492
-0.00243831
-0.00245481
-0.00244989
-0.00241346
-0.00233047
-0.00218179
-0.00194558
-0.00159942
-0.00112484
-0.000515236
0.000228887
0.0010752
0.00196949
0.00283134
0.00356222
0.00406169
0.00424961
0.00408851
0.003598
0.00285872
0.00200562
0.00115315
0.000231853
-0.00182074
-0.00256679
-0.00291422
-0.00313295
-0.00329343
-0.00341706
-0.00352415
-0.00362714
-0.0037295
-0.00382754
-0.00391106
-0.00396336
-0.0039611
-0.00387471
-0.00366969
-0.0033107
-0.00276965
-0.00202716
-0.00109667
-2.39526e-05
0.00110382
0.00216188
0.0030047
0.00349527
0.00354087
0.00312404
0.00232087
0.00130098
0.000222372
-0.00100743
-0.00296149
-0.00373806
-0.00410765
-0.00435391
-0.0045532
-0.00473049
-0.00490924
-0.00510475
-0.00532322
-0.00556342
-0.00581692
-0.00606705
-0.00628739
-0.00644039
-0.00647716
-0.00633909
-0.0059645
-0.00531291
-0.00435332
-0.00310969
-0.00166492
-0.000166561
0.00118587
0.00217535
0.00261936
0.00242645
0.00164281
0.000470749
-0.000872509
-0.00250465
-0.00434538
-0.005143
-0.00553381
-0.00581142
-0.0060576
-0.00630145
-0.0065705
-0.00688428
-0.00725352
-0.00768182
-0.00816515
-0.00868959
-0.00922783
-0.00973518
-0.0101467
-0.0103769
-0.0103254
-0.0098957
-0.0090132
-0.00765368
-0.00587433
-0.003832
-0.00178064
-3.80274e-05
0.00108124
0.00135592
0.00075382
-0.000508805
-0.00214174
-0.00428721
-0.0059731
-0.00678233
-0.00719324
-0.00750549
-0.00780582
-0.00812823
-0.00850551
-0.00896311
-0.00951856
-0.0101831
-0.0109604
-0.011843
-0.0128057
-0.0137991
-0.0147417
-0.0155174
-0.0159784
-0.0159612
-0.015325
-0.0139705
-0.0119012
-0.00925726
-0.00633173
-0.00355068
-0.00140104
-0.000305501
-0.000454584
-0.00166804
-0.00358362
-0.00636706
-0.0078382
-0.00865048
-0.00907977
-0.00942814
-0.00978695
-0.0101961
-0.0106951
-0.0113173
-0.0120893
-0.0130332
-0.0141639
-0.0154841
-0.0169752
-0.0185857
-0.0202195
-0.0217282
-0.022912
-0.0235343
-0.0233554
-0.0221949
-0.0199648
-0.0167502
-0.012847
-0.00877089
-0.00520103
-0.00283404
-0.00213022
-0.00304167
-0.00517385
-0.0087257
-0.00992711
-0.010736
-0.0111809
-0.0115632
-0.011979
-0.0124754
-0.0131004
-0.013897
-0.0149036
-0.0161555
-0.0176823
-0.0195004
-0.0216014
-0.0239354
-0.0263943
-0.0287991
-0.0308973
-0.0323737
-0.0328826
-0.0321547
-0.0299755
-0.0263351
-0.0214802
-0.0159645
-0.0106364
-0.00650988
-0.00443881
-0.00465736
-0.00684772
-0.0112901
-0.0122201
-0.0130234
-0.013479
-0.0138871
-0.014349
-0.0149209
-0.0156612
-0.0166249
-0.0178638
-0.0194283
-0.0213649
-0.0237062
-0.0264562
-0.0295697
-0.0329297
-0.0363299
-0.039469
-0.0419591
-0.0433533
-0.0432967
-0.0414263
-0.0376091
-0.0319872
-0.0250725
-0.0178075
-0.0115046
-0.00750235
-0.00650682
-0.00847293
-0.0138973
-0.0146934
-0.0154955
-0.0159544
-0.0163713
-0.0168547
-0.0174729
-0.0182977
-0.0193977
-0.0208395
-0.0226898
-0.0250119
-0.0278553
-0.0312369
-0.0351173
-0.0393734
-0.043776
-0.0479826
-0.0515541
-0.0539938
-0.0547336
-0.0534002
-0.0497029
-0.04363
-0.0355653
-0.0264269
-0.0177258
-0.0112945
-0.00848859
-0.00980999
-0.0162475
-0.0173237
-0.0181392
-0.0185892
-0.0189848
-0.0194466
-0.0200597
-0.0209131
-0.0220914
-0.0236767
-0.0257511
-0.0283939
-0.0316693
-0.0356056
-0.0401682
-0.0452288
-0.0505409
-0.05573
-0.0603108
-0.0637247
-0.0653676
-0.0647319
-0.0614165
-0.0552505
-0.0464302
-0.0357233
-0.0246753
-0.0155091
-0.0103181
-0.0104586
-0.0178405
-0.0200942
-0.0209523
-0.0213739
-0.0216993
-0.0220719
-0.0226014
-0.0233997
-0.0245702
-0.0262102
-0.0284159
-0.0312796
-0.0348762
-0.0392419
-0.044344
-0.0500489
-0.0560964
-0.0620901
-0.0675137
-0.0717704
-0.0742293
-0.0743028
-0.0715052
-0.0655233
-0.0563476
-0.0445064
-0.0314018
-0.0194463
-0.0114209
-0.00979028
-0.0178955
-0.0230058
-0.0239548
-0.0243143
-0.0244934
-0.0246774
-0.0250138
-0.0256453
-0.0266965
-0.02828
-0.0305029
-0.0334659
-0.0372501
-0.0418939
-0.0473625
-0.0535154
-0.0600812
-0.0666486
-0.0726826
-0.0775649
-0.0806481
-0.0813023
-0.0789878
-0.0732835
-0.0639986
-0.0513956
-0.0366025
-0.0219872
-0.0108367
-0.00686854
-0.0152449
-0.0260953
-0.0272055
-0.0274422
-0.0273567
-0.027212
-0.027212
-0.0275395
-0.0283428
-0.0297471
-0.0318665
-0.0348048
-0.0386426
-0.0434146
-0.0490792
-0.0554864
-0.0623541
-0.0692609
-0.0756599
-0.0809178
-0.0843723
-0.0853758
-0.083343
-0.0777846
-0.0683655
-0.0551175
-0.0388461
-0.0216894
-0.00719457
-0.000365141
-0.00820556
-0.0294721
-0.0308286
-0.0308275
-0.0302936
-0.0296276
-0.0291136
-0.0289815
-0.029402
-0.0305083
-0.0324149
-0.0352213
-0.039001
-0.0437788
-0.0495021
-0.0560065
-0.0629972
-0.0700401
-0.0765781
-0.0819678
-0.0855287
-0.0865914
-0.0845202
-0.0787774
-0.0688919
-0.0547368
-0.0368195
-0.0169725
0.00121913
0.0115257
0.00557279
-0.0333958
-0.0350578
-0.0345935
-0.0333246
-0.0318789
-0.0306414
-0.0298871
-0.0297998
-0.0305098
-0.0321222
-0.0347237
-0.0383731
-0.0430779
-0.0487669
-0.0552595
-0.0622451
-0.0692759
-0.0757812
-0.0810988
-0.0845188
-0.0853296
-0.0828272
-0.0763849
-0.0654586
-0.0497493
-0.0295321
-0.00633841
0.0163776
0.0312082
0.0292613
-0.0384464
-0.0403063
-0.0389319
-0.0364832
-0.0339212
-0.0317276
-0.030198
-0.029505
-0.0297571
-0.0310353
-0.0334035
-0.0368956
-0.0414955
-0.0471079
-0.0535307
-0.0604334
-0.0673508
-0.0736922
-0.0787665
-0.0818178
-0.0820677
-0.0787069
-0.0709964
-0.0582598
-0.0400513
-0.0164822
0.0113088
0.0404597
0.0617726
0.066835
-0.0459258
-0.0472784
-0.0440955
-0.0397944
-0.0356946
-0.0323037
-0.0298736
-0.0285212
-0.0283034
-0.0292582
-0.0314113
-0.0347635
-0.0392672
-0.0447978
-0.0511263
-0.0578988
-0.0646277
-0.0706966
-0.0753772
-0.0778522
-0.0772476
-0.0726242
-0.0630723
-0.0477199
-0.0259072
0.00244464
0.0363316
0.0751962
0.10639
0.122843
-0.0590164
-0.0571695
-0.0503504
-0.0432046
-0.0370543
-0.0322307
-0.0288225
-0.0268218
-0.0261896
-0.0268926
-0.0289015
-0.0321727
-0.0366201
-0.0420853
-0.04831
-0.0549145
-0.0613868
-0.0670818
-0.0712311
-0.0729601
-0.0713145
-0.0650807
-0.0532292
-0.0345924
-0.00816458
0.0266121
0.0694743
0.11954
0.166235
0.204079
-0.0858001
-0.0714633
-0.0579208
-0.0464801
-0.0376276
-0.0311768
-0.0268168
-0.0242931
-0.0234052
-0.0240116
-0.0260092
-0.0293009
-0.0337596
-0.039194
-0.0453192
-0.0517335
-0.0579038
-0.0631576
-0.0666811
-0.067525
-0.06462
-0.0568364
-0.0426285
-0.0205081
0.0110343
0.0534163
0.107416
0.173397
0.241879
0.324204
-0.137977
-0.0868325
-0.0647032
-0.047376
-0.0354011
-0.0276024
-0.0227869
-0.0202173
-0.0194685
-0.0202868
-0.022505
-0.0259848
-0.0305723
-0.0360581
-0.0421461
-0.0484278
-0.0543657
-0.0592821
-0.0623478
-0.062569
-0.0587543
-0.0497436
-0.0338425
-0.0091297
0.0265979
0.076233
0.142889
0.231709
0.339431
0.509115
-0.310784
-0.0966604
-0.0476111
-0.0288484
-0.0182412
-0.0126129
-0.0101987
-0.00973333
-0.0106411
-0.0127245
-0.0159009
-0.0200985
-0.0252136
-0.0310791
-0.0374347
-0.0439042
-0.0499787
-0.0550075
-0.0581933
-0.0585983
-0.0551321
-0.0462724
-0.0304721
-0.0057546
0.0305188
0.0827043
0.157455
0.272506
0.447499
0.791253
)
;

boundaryField
{
    movingWall
    {
        type            zeroGradient;
    }
    fixedWalls
    {
        type            zeroGradient;
    }
    frontAndBack
    {
        type            empty;
    }
}


// ************************************************************************* //
