/*--------------------------------*- C++ -*----------------------------------*\
  =========                 |
  \\      /  F ield         | OpenFOAM: The Open Source CFD Toolbox
   \\    /   O peration     | Website:  https://openfoam.org
    \\  /    A nd           | Version:  7
     \\/     M anipulation  |
\*---------------------------------------------------------------------------*/
FoamFile
{
    version     2.0;
    format      ascii;
    class       surfaceScalarField;
    location    "8.4";
    object      phi;
}
// * * * * * * * * * * * * * * * * * * * * * * * * * * * * * * * * * * * * * //

dimensions      [0 3 -1 0 0 0 0];

internalField   nonuniform List<scalar> 
1740
(
6.07894e-07
-6.0862e-07
-4.40983e-07
1.04888e-06
-3.29637e-06
2.85539e-06
-7.58963e-06
4.29326e-06
-1.28619e-05
5.27229e-06
-1.87165e-05
5.85459e-06
-2.48512e-05
6.13466e-06
-3.10397e-05
6.18848e-06
-3.70989e-05
6.05922e-06
-4.28586e-05
5.75973e-06
-4.81392e-05
5.28062e-06
-5.27394e-05
4.60021e-06
-5.64345e-05
3.6951e-06
-5.89855e-05
2.55101e-06
-6.01587e-05
1.17314e-06
-5.97533e-05
-4.05315e-07
-5.76347e-05
-2.11863e-06
-5.3773e-05
-3.86174e-06
-4.82732e-05
-5.49982e-06
-4.13937e-05
-6.87941e-06
-3.35464e-05
-7.84734e-06
-2.52716e-05
-8.27477e-06
-1.719e-05
-8.08157e-06
-9.93416e-06
-7.25588e-06
-4.07134e-06
-5.86282e-06
-2.04803e-08
-4.05085e-06
2.08543e-06
-2.10591e-06
2.30505e-06
-2.19613e-07
1.18137e-06
1.12369e-06
1.18137e-06
-1.05024e-06
4.41623e-07
-5.79673e-06
5.79537e-06
-1.42979e-05
1.13566e-05
-2.58374e-05
1.58327e-05
-3.95714e-05
1.90063e-05
-5.46985e-05
2.09817e-05
-7.05292e-05
2.19654e-05
-8.64838e-05
2.21431e-05
-0.000102054
2.16295e-05
-0.000116758
2.04638e-05
-0.000130105
1.8627e-05
-0.000141573
1.60682e-05
-0.000150614
1.27364e-05
-0.000156676
8.61314e-06
-0.000159243
3.7404e-06
-0.000157912
-1.7371e-06
-0.000152423
-7.60686e-06
-0.000142779
-1.35065e-05
-0.000129271
-1.90069e-05
-0.000112526
-2.36253e-05
-9.34867e-05
-2.68862e-05
-7.33677e-05
-2.83937e-05
-5.35444e-05
-2.79049e-05
-3.54096e-05
-2.53906e-05
-2.02029e-05
-2.10695e-05
-8.83525e-06
-1.54185e-05
-1.77648e-06
-9.16469e-06
1.23288e-06
-3.22898e-06
1.18605e-06
1.17051e-06
2.36743e-06
-3.07657e-06
3.51819e-06
-1.20656e-05
1.47844e-05
-2.61747e-05
2.54657e-05
-4.4354e-05
3.4012e-05
-6.54718e-05
4.01241e-05
-8.84649e-05
4.39748e-05
-0.000112391
4.58913e-05
-0.000136421
4.61735e-05
-0.000159803
4.50107e-05
-0.000181808
4.24695e-05
-0.000201701
3.85197e-05
-0.000218714
3.30811e-05
-0.000232058
2.60803e-05
-0.000240955
1.75102e-05
-0.000244702
7.4876e-06
-0.000242737
-3.70188e-06
-0.00023474
-1.56043e-05
-0.000220725
-2.75215e-05
-0.00020111
-3.86211e-05
-0.000176762
-4.79742e-05
-0.000148981
-5.46669e-05
-0.00011944
-5.79343e-05
-9.0045e-05
-5.73001e-05
-6.27408e-05
-5.26948e-05
-3.92811e-05
-4.45292e-05
-2.09899e-05
-3.37097e-05
-8.54817e-06
-2.16064e-05
-1.7954e-06
-9.98176e-06
3.65822e-07
-9.90717e-07
2.73325e-06
-5.02319e-06
8.54138e-06
-1.81408e-05
2.7902e-05
-3.76654e-05
4.49903e-05
-6.2041e-05
5.83875e-05
-8.98387e-05
6.79219e-05
-0.000119785
7.39209e-05
-0.00015076
7.68669e-05
-0.000181769
7.7182e-05
-0.000211887
7.51286e-05
-0.000240212
7.07951e-05
-0.000265827
6.41342e-05
-0.000287778
5.50318e-05
-0.000305088
4.33909e-05
-0.000316799
2.92212e-05
-0.000322037
1.27253e-05
-0.000320101
-5.63823e-06
-0.000310562
-2.51425e-05
-0.000293392
-4.46916e-05
-0.000269039
-6.29742e-05
-0.000238494
-7.85198e-05
-0.000203294
-8.9867e-05
-0.000165458
-9.57702e-05
-0.000127335
-9.54228e-05
-9.1374e-05
-8.86558e-05
-5.98352e-05
-7.6068e-05
-3.44854e-05
-5.90595e-05
-1.63247e-05
-3.97671e-05
-5.37582e-06
-2.09306e-05
-6.20318e-07
-5.74622e-06
2.11293e-06
-6.76901e-06
1.53104e-05
-2.37399e-05
4.48729e-05
-4.83443e-05
6.95947e-05
-7.84871e-05
8.85303e-05
-0.000112424
0.000101858
-0.000148689
0.000110186
-0.000186033
0.000114211
-0.000223351
0.0001145
-0.000259613
0.000111391
-0.000293805
0.000104987
-0.000324883
9.52124e-05
-0.000351756
8.19047e-05
-0.000373293
6.49277e-05
-0.000388363
4.42919e-05
-0.00039591
2.02719e-05
-0.000395051
-6.49753e-06
-0.000385165
-3.50282e-05
-0.000366074
-6.37822e-05
-0.000338136
-9.09128e-05
-0.000302342
-0.000114313
-0.000260365
-0.000131844
-0.000214508
-0.000141627
-0.000167559
-0.000142372
-0.000122525
-0.000133689
-8.2281e-05
-0.000116312
-4.91739e-05
-9.21666e-05
-2.46675e-05
-6.42735e-05
-9.08847e-06
-3.65097e-05
-1.54096e-06
-1.32937e-05
5.71975e-07
-8.31073e-06
2.36211e-05
-2.87968e-05
6.5359e-05
-5.80899e-05
9.88878e-05
-9.35752e-05
0.000124016
-0.0001332
0.000141483
-0.000175326
0.000152313
-0.000218609
0.000157494
-0.000261882
0.000157773
-0.000304066
0.000153575
-0.00034409
0.000145011
-0.000380838
0.00013196
-0.000413116
0.000114183
-0.000439657
9.14691e-05
-0.000459153
6.37873e-05
-0.000470317
3.14366e-05
-0.000472018
-4.79639e-06
-0.000463312
-4.37346e-05
-0.000443737
-8.33572e-05
-0.000413401
-0.000121249
-0.000373151
-0.000154563
-0.000324677
-0.000180319
-0.000270517
-0.000195786
-0.000213934
-0.000198956
-0.000158616
-0.000189007
-0.00010825
-0.000166678
-6.59994e-05
-0.000134417
-3.40106e-05
-9.62624e-05
-1.30601e-05
-5.74601e-05
-2.43e-06
-2.39238e-05
-1.85802e-06
-9.67356e-06
3.32947e-05
-3.333e-05
8.90154e-05
-6.69039e-05
0.000132462
-0.000107313
0.000164425
-0.000152225
0.000186395
-0.00019986
0.000199948
-0.00024881
0.000206445
-0.000297897
0.00020686
-0.000346043
0.00020172
-0.000392173
0.000191142
-0.000435146
0.000174933
-0.000473702
0.000152739
-0.000506451
0.000124217
-0.000531884
8.92208e-05
-0.000548429
4.79811e-05
-0.000554626
1.40096e-06
-0.000549039
-4.93214e-05
-0.000530773
-0.000101623
-0.000499486
-0.000152536
-0.000455689
-0.00019836
-0.000400938
-0.000235069
-0.000337929
-0.000258796
-0.000270419
-0.000266465
-0.000202938
-0.000256488
-0.000140253
-0.000229363
-8.66787e-05
-0.000187992
-4.53659e-05
-0.000137575
-1.77668e-05
-8.50592e-05
-3.41671e-06
-3.82739e-05
-5.27474e-06
-1.08777e-05
4.41724e-05
-3.73663e-05
0.000115504
-7.48081e-05
0.000169903
-0.000119721
0.000209337
-0.000169539
0.000236213
-0.000222376
0.000252784
-0.000276805
0.000260874
-0.000331678
0.000261733
-0.000385971
0.000256014
-0.000438663
0.000243833
-0.000488632
0.000224902
-0.000534591
0.000198697
-0.000575038
0.000164665
-0.000608255
0.000122438
-0.000632351
7.20769e-05
-0.000645284
1.43336e-05
-0.000645239
-4.93664e-05
-0.000630533
-0.000116329
-0.00060018
-0.000182889
-0.000554123
-0.000244417
-0.000493568
-0.000295624
-0.000421214
-0.00033115
-0.000341289
-0.000346391
-0.00025929
-0.000338487
-0.000181375
-0.000307278
-0.000113447
-0.000255919
-6.0124e-05
-0.000190899
-2.38884e-05
-0.000121295
-4.69631e-06
-5.7466e-05
-9.97105e-06
-1.19289e-05
5.61012e-05
-4.09091e-05
0.000144484
-8.17924e-05
0.000210787
-0.00013077
0.000258315
-0.000185096
0.000290539
-0.00024282
0.000310507
-0.000302537
0.000320591
-0.000363179
0.000322375
-0.000423828
0.000316663
-0.000483565
0.000303571
-0.000541345
0.000282682
-0.00059589
0.000253241
-0.000645612
0.000214387
-0.000688578
0.000165404
-0.000722512
0.000106012
-0.00074486
3.66813e-05
-0.000753064
-4.11629e-05
-0.000744613
-0.00012478
-0.000717625
-0.000209878
-0.000671198
-0.000290844
-0.000605897
-0.000360925
-0.000524164
-0.000412883
-0.000430539
-0.000440016
-0.000331524
-0.000437502
-0.000234955
-0.000403846
-0.000148847
-0.000342028
-7.99153e-05
-0.00025983
-3.22309e-05
-0.000168979
-6.49638e-06
-8.32005e-05
-1.64674e-05
-1.28192e-05
6.89205e-05
-4.39308e-05
0.000175596
-8.77973e-05
0.000254653
-0.000140357
0.000310875
-0.000198735
0.000348918
-0.00026096
0.000372732
-0.000325691
0.000385322
-0.000391981
0.000388665
-0.000459067
0.000383749
-0.000526187
0.000370691
-0.000592421
0.000348916
-0.000656549
0.000317369
-0.000716936
0.000274774
-0.00077145
0.000219918
-0.000817437
0.000151999
-0.000851764
7.10091e-05
-0.000871099
-2.18283e-05
-0.000871928
-0.00012395
-0.000851292
-0.000230514
-0.000807161
-0.000334975
-0.000739101
-0.000428986
-0.000648903
-0.00050308
-0.000541073
-0.000547846
-0.000422952
-0.000555623
-0.00030421
-0.000522588
-0.000195516
-0.000450721
-0.000106511
-0.000348835
-4.36854e-05
-0.000231805
-9.0644e-06
-0.000117822
-2.55318e-05
-1.35308e-05
8.24513e-05
-4.63781e-05
0.000208443
-9.27178e-05
0.000300993
-0.000148304
0.000366461
-0.000210181
0.000410794
-0.000276388
0.00043894
-0.000345683
0.000454617
-0.000417275
0.000460257
-0.000490594
0.000457068
-0.000565081
0.000445177
-0.000639989
0.000423824
-0.000714209
0.00039159
-0.000786108
0.000346673
-0.000853409
0.000287218
-0.000913125
0.000211715
-0.000961579
0.000119463
-0.000994636
1.12284e-05
-0.00100781
-0.000110775
-0.000996919
-0.000241405
-0.000958571
-0.000373323
-0.000890955
-0.000496602
-0.000794688
-0.000599347
-0.000673651
-0.000668883
-0.000535538
-0.000693736
-0.000391717
-0.00066641
-0.000255935
-0.000586502
-0.000141731
-0.00046304
-5.92099e-05
-0.000314326
-1.26699e-05
-0.000164362
-3.82017e-05
-1.40407e-05
9.6492e-05
-4.8184e-05
0.000242586
-9.64221e-05
0.000349231
-0.000154385
0.000424425
-0.000219069
0.000475478
-0.000288551
0.000508421
-0.000361699
0.000527765
-0.000437899
0.000536457
-0.000516801
0.000535969
-0.000598074
0.000526451
-0.000681187
0.000506937
-0.000765189
0.000475592
-0.000848515
0.000429999
-0.000928824
0.000367527
-0.00100291
0.000285796
-0.00106669
0.000183243
-0.00111524
5.9784e-05
-0.0011434
-8.26136e-05
-0.00114569
-0.000239115
-0.00111727
-0.000401742
-0.00105463
-0.000559247
-0.000956611
-0.000697366
-0.00082564
-0.000799854
-0.000668861
-0.000850515
-0.000498704
-0.000836567
-0.000332053
-0.000753153
-0.000187315
-0.000607777
-7.98138e-05
-0.000421828
-1.76124e-05
-0.000226563
-5.5814e-05
-1.43279e-05
0.00011082
-4.9287e-05
0.000277546
-9.87836e-05
0.000398728
-0.000158369
0.00048401
-0.000225009
0.000542118
-0.000296819
0.000580231
-0.000372779
0.000603725
-0.000452449
0.000616128
-0.000535695
0.000619215
-0.000622427
0.000613183
-0.000712347
0.000596857
-0.000804703
0.000567948
-0.000898069
0.000523365
-0.000990158
0.000459616
-0.0010777
0.000373337
-0.00115641
0.000261953
-0.00122105
0.000124427
-0.00126572
-3.79498e-05
-0.00128409
-0.000220736
-0.00126996
-0.000415877
-0.00121793
-0.00061128
-0.00112453
-0.000790758
-0.000989768
-0.00093462
-0.00081889
-0.00102139
-0.000624083
-0.00103137
-0.000424712
-0.000952525
-0.000244703
-0.000787786
-0.00010652
-0.000560011
-2.42303e-05
-0.000308852
-8.00444e-05
-1.43816e-05
0.000125202
-4.96558e-05
0.00031282
-9.97242e-05
0.000448796
-0.000160083
0.000544369
-0.000227663
0.000609698
-0.000300601
0.000653168
-0.000377962
0.000681087
-0.000459455
0.00069762
-0.000545135
0.000704896
-0.000635134
0.000703182
-0.000729385
0.000691107
-0.000827365
0.000665928
-0.000927858
0.000623859
-0.00102877
0.000560525
-0.00112698
0.000471549
-0.00121832
0.000353296
-0.0012976
0.00020371
-0.00135867
2.3114e-05
-0.00139481
-0.00018459
-0.00139879
-0.000411898
-0.00136347
-0.000646605
-0.00128276
-0.000871468
-0.00115328
-0.0010641
-0.000976824
-0.00119785
-0.00076329
-0.00124491
-0.00053282
-0.00118299
-0.000314637
-0.00100597
-0.000140266
-0.000734382
-3.28999e-05
-0.000416218
-0.000112944
-1.42124e-05
0.000139414
-4.93203e-05
0.000347928
-9.92694e-05
0.000498745
-0.000159494
0.000604594
-0.000226859
0.000677062
-0.000299481
0.000725791
-0.000376471
0.000758076
-0.00045763
0.000778779
-0.000543159
0.000790425
-0.000633368
0.000793391
-0.000728397
0.000786137
-0.000827965
0.000765495
-0.000931138
0.000727032
-0.00103615
0.00066554
-0.0011403
0.000575695
-0.00123987
0.000452864
-0.00133015
0.000293994
-0.00140546
9.84186e-05
-0.00145906
-0.000130983
-0.00148353
-0.000387429
-0.0014704
-0.000659739
-0.00141104
-0.00093082
-0.00129816
-0.00117699
-0.00112852
-0.00136749
-0.000907243
-0.00146619
-0.000652338
-0.0014379
-0.000396567
-0.00126174
-0.000181714
-0.000949235
-4.40143e-05
-0.000553918
-0.000156959
-1.38629e-05
0.000153277
-4.84065e-05
0.000382471
-9.76101e-05
0.000547949
-0.000156795
0.000663778
-0.000222704
0.000742972
-0.000293381
0.000796468
-0.000367917
0.000832612
-0.000446154
0.000857015
-0.000528372
0.000872644
-0.000615004
0.000880023
-0.000706366
0.000877499
-0.000802419
0.000861549
-0.000902576
0.000827188
-0.00100555
0.000768513
-0.00110927
0.000679414
-0.00121083
0.000554429
-0.00130649
0.000389654
-0.0013916
0.000183523
-0.00146004
-6.25439e-05
-0.00150512
-0.000342345
-0.00151777
-0.000647088
-0.00148746
-0.000961127
-0.00140302
-0.00126143
-0.00125525
-0.00151525
-0.00104203
-0.00167941
-0.000775398
-0.00170453
-0.000487904
-0.00154923
-0.000230959
-0.00120618
-5.79415e-05
-0.000726935
-0.0002149
-1.34224e-05
0.000166699
-4.71765e-05
0.000416225
-9.51706e-05
0.000595943
-0.000152503
0.000721111
-0.000215714
0.000806182
-0.000282709
0.000863463
-0.000352511
0.000902415
-0.000424945
0.000929448
-0.000500315
0.000948014
-0.000579129
0.000958837
-0.000661845
0.000960215
-0.000748676
0.00094838
-0.000839438
0.00091795
-0.000933445
0.00086252
-0.00102946
0.000775432
-0.00112569
0.00065065
-0.00121968
0.000483651
-0.00130835
0.000272187
-0.00138686
1.59711e-05
-0.00145001
-0.0002792
-0.00148909
-0.000608009
-0.00149279
-0.000957426
-0.00144692
-0.0013073
-0.00133634
-0.00162583
-0.00115004
-0.00186571
-0.000890131
-0.00196444
-0.000583386
-0.00185598
-0.00028718
-0.00150239
-7.49742e-05
-0.000939141
-0.000289874
-1.30431e-05
0.000179742
-4.60755e-05
0.000449258
-9.26819e-05
0.000642549
-0.000147551
0.000775979
-0.000206914
0.000865546
-0.000268493
0.000925042
-0.000331214
0.000965135
-0.000394857
0.000993092
-0.000459728
0.00101289
-0.000526384
0.00102549
-0.00059542
0.00102925
-0.00066732
0.00102028
-0.000742362
0.000992991
-0.00082056
0.000940718
-0.000901655
0.000856527
-0.000985101
0.000734096
-0.00107
0.00056855
-0.00115486
0.000357048
-0.00123778
9.88911e-05
-0.00131374
-0.000203244
-0.00137651
-0.000545232
-0.00141519
-0.00091875
-0.00141408
-0.00130841
-0.00135332
-0.00168659
-0.00121279
-0.00200624
-0.000981789
-0.00219544
-0.000674915
-0.00216285
-0.000348336
-0.00182896
-9.5302e-05
-0.00119218
-0.000385176
-1.29654e-05
0.000192708
-4.57921e-05
0.000482085
-9.12638e-05
0.000688021
-0.00014337
0.000828086
-0.000197925
0.000920101
-0.000252451
0.000979568
-0.000305804
0.00101849
-0.000357753
0.00104504
-0.000408629
0.00106376
-0.000459059
0.00107592
-0.000509806
0.00108
-0.000561669
0.00107214
-0.000615444
0.00104677
-0.00067192
0.000997195
-0.000731889
0.000916496
-0.000796131
0.000798338
-0.000865333
0.000637752
-0.000939881
0.000431596
-0.0010196
0.000178606
-0.00110216
-0.000120683
-0.00118313
-0.000464261
-0.00125346
-0.000848415
-0.00129795
-0.00126392
-0.00129425
-0.0016903
-0.00121481
-0.00208567
-0.00103516
-0.0023751
-0.00075217
-0.00244584
-0.00041101
-0.00217012
-0.000119043
-0.00148414
-0.00050422
-1.35616e-05
0.000206269
-4.73494e-05
0.000515872
-9.25288e-05
0.0007332
-0.00014198
0.000877537
-0.000191002
0.000969123
-0.000236984
0.00102555
-0.000278828
0.00106033
-0.000316402
0.00108262
-0.000350153
0.00109751
-0.000380858
0.00110663
-0.000409509
0.00110865
-0.000437282
0.00109992
-0.000465548
0.00107503
-0.000495904
0.00102755
-0.000530196
0.000950788
-0.000570482
0.000838625
-0.000618927
0.000686198
-0.00067757
0.000490238
-0.000747938
0.000248974
-0.000830142
-3.84791e-05
-0.000921942
-0.000372461
-0.00101702
-0.00075334
-0.00110248
-0.00117846
-0.00115636
-0.00163641
-0.0011469
-0.00209514
-0.00103749
-0.00248451
-0.000804148
-0.00267918
-0.000470548
-0.00250373
-0.000146347
-0.00180834
-0.000650567
-1.54196e-05
0.000221689
-5.22549e-05
0.000552708
-9.8723e-05
0.000779668
-0.000146056
0.00092487
-0.000189022
0.00101209
-0.000225076
0.0010616
-0.000253404
0.00108866
-0.000274187
0.0011034
-0.000288148
0.00111147
-0.000296339
0.00111482
-0.000300078
0.00111239
-0.000300978
0.00110082
-0.000301014
0.00107507
-0.000302583
0.00102912
-0.00030851
0.000956714
-0.000321993
0.000852108
-0.000346456
0.00071066
-0.000385284
0.000529066
-0.000441426
0.000305117
-0.00051691
3.70049e-05
-0.00061164
-0.000277731
-0.000722367
-0.000642613
-0.00083986
-0.00106097
-0.000945374
-0.0015309
-0.0010071
-0.00203341
-0.000980418
-0.00251119
-0.000820715
-0.00283888
-0.000521393
-0.00280305
-0.000177475
-0.00215226
-0.000828041
-1.95123e-05
0.000241201
-6.27555e-05
0.000595951
-0.00011292
0.000829833
-0.000158984
0.000970934
-0.000195364
0.00104847
-0.000220006
0.00108625
-0.000232788
0.00110144
-0.000234518
0.00110513
-0.000226427
0.00110338
-0.000209992
0.00109838
-0.000186951
0.00108935
-0.000159397
0.00107326
-0.0001299
0.00104557
-0.00010159
0.00100081
-7.81382e-05
0.000933263
-6.36606e-05
0.00083763
-6.25123e-05
0.000709512
-7.9039e-05
0.000545593
-0.000117272
0.00034335
-0.000180527
0.00010026
-0.000270679
-0.00018758
-0.000387246
-0.000526045
-0.000525382
-0.000922832
-0.000671701
-0.00138458
-0.000798752
-0.00190636
-0.000859706
-0.00245024
-0.000793189
-0.0029054
-0.0005572
-0.00303904
-0.00021264
-0.00249682
-0.00104068
-2.7532e-05
0.000268733
-8.22542e-05
0.000650673
-0.000139235
0.000886813
-0.00018475
0.00101645
-0.000213484
0.0010772
-0.000224645
0.00109741
-0.00021942
0.00109622
-0.000199661
0.00108537
-0.000167367
0.00107109
-0.000124593
0.00105561
-7.35615e-05
0.00103832
-1.68449e-05
0.00101655
4.24792e-05
0.000986246
0.000100754
0.000942535
0.000153688
0.000880329
0.000196502
0.000794816
0.000224143
0.000681871
0.000231575
0.00053816
0.000214091
0.000360835
0.000167568
0.000146783
8.86396e-05
-0.000108651
-2.45043e-05
-0.000412901
-0.000171102
-0.000776234
-0.000344804
-0.00121087
-0.000526121
-0.00172504
-0.000672638
-0.00230372
-0.000713188
-0.00286485
-0.000570105
-0.00318212
-0.000251219
-0.00281571
-0.0012919
-4.25321e-05
0.000311265
-0.000115892
0.000724033
-0.00018283
0.000953752
-0.00022725
0.00106087
-0.000245579
0.00109553
-0.000239574
0.0010914
-0.000212573
0.00106922
-0.000167965
0.00104076
-0.000108774
0.0010119
-3.77389e-05
0.000984575
4.24238e-05
0.000958153
0.000128767
0.000930204
0.000217877
0.000897136
0.000305741
0.000854671
0.000387755
0.000798315
0.000458819
0.000723753
0.000513557
0.000627133
0.000546591
0.000505126
0.000552788
0.000354638
0.000527408
0.000172163
0.000465943
-4.71858e-05
0.000364645
-0.000311603
0.00022025
-0.000631839
3.27328e-05
-0.00102336
-0.000189029
-0.00150328
-0.00041393
-0.00207882
-0.000570002
-0.00270878
-0.00054863
-0.00320349
-0.000289818
-0.00307452
-0.00158172
-7.00595e-05
0.000381325
-0.000171006
0.000824979
-0.000248782
0.00103153
-0.000287537
0.00109962
-0.000288451
0.00109645
-0.000257803
0.00106075
-0.000202148
0.00101356
-0.000126915
0.000965528
-3.63457e-05
0.000921327
6.6112e-05
0.000882117
0.000177372
0.000846893
0.000294291
0.000813285
0.000413383
0.000778043
0.000530643
0.000737411
0.000641498
0.00068746
0.000740889
0.000624362
0.00082344
0.000544582
0.000883674
0.000444892
0.000916181
0.000322132
0.000915672
0.000172671
0.000876503
-8.01678e-06
0.000793391
-0.000228491
0.000659792
-0.000498241
0.00046962
-0.000833185
0.000221226
-0.00125488
-6.96918e-05
-0.00178791
-0.000346471
-0.002432
-0.000474011
-0.00307595
-0.000319246
-0.00322928
-0.00190097
-0.000119896
0.000501221
-0.000255926
0.000961009
-0.000336404
0.00111201
-0.000354328
0.00111755
-0.00032113
0.00106325
-0.000250348
0.000989973
-0.000152897
0.00091611
-3.65851e-05
0.000849216
9.31727e-05
0.000791569
0.00023248
0.000742809
0.0003782
0.000701173
0.000527395
0.00066409
0.000676936
0.000628503
0.000823253
0.000591094
0.000962238
0.000548475
0.00108926
0.000497343
0.00119925
0.000434586
0.00128688
0.000357268
0.00134655
0.000262457
0.00137235
0.000146877
0.00135775
6.57923e-06
0.00129563
-0.00016637
0.00117692
-0.00037953
0.000990778
-0.000647045
0.000726173
-0.00099028
0.000382094
-0.00144383
-9.58177e-07
-0.00204894
-0.000314941
-0.00276197
-0.000326078
-0.00321815
-0.00222704
-0.000207961
0.000709182
-0.000369482
0.00112253
-0.000416626
0.00115915
-0.00037351
0.00107443
-0.000270329
0.000960068
-0.000130526
0.00085017
3.05368e-05
0.000755047
0.000203461
0.000676292
0.000382677
0.000612353
0.000564817
0.000560669
0.000747587
0.000518403
0.000929024
0.000482652
0.00110702
0.000450512
0.001279
0.00041911
0.00144182
0.000385659
0.00159166
0.0003475
0.00172411
0.000302134
0.0018342
0.000247175
0.00191644
0.00018022
0.00196462
9.86963e-05
0.00197027
9.27069e-07
0.00192636
-0.000122457
0.0018207
-0.000273873
0.00163922
-0.000465563
0.00136412
-0.00071518
0.000977394
-0.0010571
0.000481505
-0.00155306
-1.68519e-05
-0.00226361
-0.000267977
-0.00296702
-0.00249502
-0.000345112
0.00105429
-0.000438429
0.00121585
-0.000348214
0.00106893
-0.000160031
0.000886248
7.10518e-05
0.000728985
0.00031646
0.000604761
0.000561896
0.000509611
0.000800918
0.000437271
0.00103116
0.000382108
0.00125217
0.000339665
0.00146413
0.000306437
0.00166723
0.000279553
0.00186119
0.000256551
0.00204506
0.000235247
0.00221705
0.000213666
0.00237454
0.000190011
0.00251403
0.000162646
0.00263116
0.000130042
0.00272072
9.066e-05
0.00277646
4.29515e-05
0.0027917
-1.43134e-05
0.00275512
-8.58736e-05
0.00265524
-0.000173993
0.00247577
-0.000286097
0.00219481
-0.000434211
0.00178326
-0.000645553
0.00121014
-0.000979933
0.000519026
-0.0015725
-2.17171e-05
-0.00242628
-0.00251674
-0.000305437
0.00135973
-5.59657e-05
0.000966376
0.000370078
0.00064289
0.000789904
0.000466423
0.00117305
0.00034584
0.00151549
0.00026232
0.00181975
0.00020535
0.00209089
0.000166134
0.00233449
0.000138502
0.0025556
0.000118563
0.00275825
0.000103788
0.0029454
9.23988e-05
0.0031189
8.30538e-05
0.00327946
7.46842e-05
0.00342672
6.64049e-05
0.00355927
5.74625e-05
0.0036747
4.72098e-05
0.00376967
3.50782e-05
0.0038397
2.06305e-05
0.003879
3.64866e-06
0.00388311
-1.84262e-05
0.0038411
-4.38587e-05
0.00374222
-7.51154e-05
0.00357117
-0.00011505
0.00330515
-0.000168191
0.00290838
-0.000248774
0.0023213
-0.000392857
0.00148716
-0.00073836
0.000505413
-0.00144453
-0.00201132
0.00135973
0.00232611
0.002969
0.00343542
0.00378126
0.00404358
0.00424893
0.00441506
0.00455357
0.00467213
0.00477592
0.00486832
0.00495137
0.00502605
0.00509246
0.00514992
0.00519713
0.00523221
0.00525284
0.00525649
0.00523806
0.0051942
0.00511909
0.00500404
0.00483585
0.00458707
0.00419421
0.00345585
0.00201132
)
;

boundaryField
{
    movingWall
    {
        type            calculated;
        value           uniform 0;
    }
    fixedWalls
    {
        type            calculated;
        value           uniform 0;
    }
    frontAndBack
    {
        type            empty;
        value           nonuniform 0();
    }
}


// ************************************************************************* //
