/*--------------------------------*- C++ -*----------------------------------*\
  =========                 |
  \\      /  F ield         | OpenFOAM: The Open Source CFD Toolbox
   \\    /   O peration     | Website:  https://openfoam.org
    \\  /    A nd           | Version:  7
     \\/     M anipulation  |
\*---------------------------------------------------------------------------*/
FoamFile
{
    version     2.0;
    format      ascii;
    class       volVectorField;
    location    "9.1";
    object      U;
}
// * * * * * * * * * * * * * * * * * * * * * * * * * * * * * * * * * * * * * //

dimensions      [0 1 -1 0 0 0 0];

internalField   nonuniform List<vector> 
900
(
(9.55862e-05 -9.42462e-05 0)
(0.000103723 -8.74343e-06 0)
(-0.000236093 0.000101066 0)
(-0.000862865 0.000186574 0)
(-0.0016963 0.000241134 0)
(-0.00266475 0.000271102 0)
(-0.00370795 0.000284748 0)
(-0.00478081 0.000288077 0)
(-0.00584888 0.000284123 0)
(-0.00688216 0.000273491 0)
(-0.00785014 0.000255115 0)
(-0.00871865 0.000227011 0)
(-0.00944878 0.000186996 0)
(-0.00999762 0.000133402 0)
(-0.0103212 6.58024e-05 0)
(-0.0103793 -1.43839e-05 0)
(-0.0101408 -0.000104033 0)
(-0.00959087 -0.000196887 0)
(-0.00873759 -0.000284761 0)
(-0.00761603 -0.000358191 0)
(-0.0062898 -0.000407679 0)
(-0.00484825 -0.000425317 0)
(-0.00339895 -0.000406393 0)
(-0.00205624 -0.000350626 0)
(-0.000926652 -0.000262748 0)
(-9.42753e-05 -0.000153004 0)
(0.000386721 -3.64479e-05 0)
(0.000512344 7.3333e-05 0)
(0.000351024 0.000138475 0)
(0.000105941 0.000106345 0)
(1.22374e-05 -0.000107465 0)
(-0.000393793 0.000387917 0)
(-0.00155938 0.00094288 0)
(-0.00331644 0.00139279 0)
(-0.00552796 0.00170733 0)
(-0.00805322 0.00190046 0)
(-0.0107616 0.00199785 0)
(-0.0135438 0.00202116 0)
(-0.0163067 0.00198279 0)
(-0.018965 0.00188604 0)
(-0.021433 0.0017274 0)
(-0.0236198 0.00149972 0)
(-0.0254277 0.00119579 0)
(-0.0267551 0.000811864 0)
(-0.0275029 0.000351019 0)
(-0.0275859 -0.000174409 0)
(-0.0269432 -0.000740132 0)
(-0.0255519 -0.00131015 0)
(-0.0234415 -0.00183915 0)
(-0.0206997 -0.00227663 0)
(-0.0174746 -0.00257345 0)
(-0.013968 -0.00268975 0)
(-0.0104195 -0.00260278 0)
(-0.00708276 -0.00231297 0)
(-0.00419532 -0.00184704 0)
(-0.00194678 -0.00125851 0)
(-0.000448687 -0.000625662 0)
(0.000283049 -4.46267e-05 0)
(0.000371613 0.000345666 0)
(0.000140836 0.000347273 0)
(-0.000109489 0.000240947 0)
(-0.00102455 0.00157208 0)
(-0.00308186 0.0029159 0)
(-0.00593158 0.00400937 0)
(-0.00938455 0.00479582 0)
(-0.0132594 0.00529477 0)
(-0.0173811 0.00555078 0)
(-0.0215962 0.00560477 0)
(-0.0257686 0.00548159 0)
(-0.0297696 0.00518839 0)
(-0.0334696 0.00471864 0)
(-0.036733 0.00405888 0)
(-0.0394175 0.00319684 0)
(-0.0413788 0.00212975 0)
(-0.0424797 0.000871953 0)
(-0.0426031 -0.000539098 0)
(-0.041668 -0.00203849 0)
(-0.0396475 -0.00353481 0)
(-0.0365844 -0.00491562 0)
(-0.0326006 -0.00605767 0)
(-0.0278996 -0.00684222 0)
(-0.0227584 -0.00717335 0)
(-0.0175076 -0.00699635 0)
(-0.0125002 -0.00631242 0)
(-0.00807123 -0.00518663 0)
(-0.00449428 -0.00374826 0)
(-0.00193938 -0.00218574 0)
(-0.000440485 -0.000741189 0)
(0.000134279 0.000295188 0)
(0.000109247 0.000546069 0)
(-0.000225512 0.00094515 0)
(-0.00164452 0.00349331 0)
(-0.00458435 0.00585186 0)
(-0.00848382 0.00773727 0)
(-0.0130883 0.00909389 0)
(-0.0181803 0.00995831 0)
(-0.0235527 0.0103978 0)
(-0.0290221 0.0104727 0)
(-0.034423 0.0102197 0)
(-0.039596 0.00964855 0)
(-0.0443793 0.00874883 0)
(-0.048604 0.00750041 0)
(-0.0520933 0.00588676 0)
(-0.0546688 0.00390854 0)
(-0.056161 0.00159634 0)
(-0.0564244 -0.000979594 0)
(-0.0553549 -0.00370542 0)
(-0.0529115 -0.00642086 0)
(-0.0491354 -0.00893089 0)
(-0.0441623 -0.0110222 0)
(-0.0382282 -0.0124884 0)
(-0.0316631 -0.0131603 0)
(-0.0248702 -0.0129382 0)
(-0.0182896 -0.0118179 0)
(-0.0123501 -0.0099063 0)
(-0.00741354 -0.00742337 0)
(-0.00372107 -0.00469099 0)
(-0.00134748 -0.00211621 0)
(-0.000177247 -0.000172136 0)
(6.67735e-05 0.000586994 0)
(-0.000326291 0.00197484 0)
(-0.0022145 0.00612442 0)
(-0.00599284 0.00971487 0)
(-0.0108844 0.0125151 0)
(-0.0165637 0.0145108 0)
(-0.0227773 0.0157759 0)
(-0.029292 0.0164089 0)
(-0.0359046 0.016492 0)
(-0.0424312 0.0160729 0)
(-0.0486932 0.0151628 0)
(-0.0545076 0.0137452 0)
(-0.0596809 0.0117917 0)
(-0.0640097 0.00928033 0)
(-0.0672849 0.00621473 0)
(-0.0693044 0.00264223 0)
(-0.0698889 -0.00133272 0)
(-0.0688993 -0.00554368 0)
(-0.0662617 -0.00975272 0)
(-0.0619947 -0.0136709 0)
(-0.0562244 -0.0169789 0)
(-0.0491975 -0.0193623 0)
(-0.0412815 -0.0205567 0)
(-0.0329455 -0.0203958 0)
(-0.0247222 -0.0188549 0)
(-0.01715 -0.0160782 0)
(-0.0107034 -0.0123842 0)
(-0.005722 -0.00824788 0)
(-0.00234743 -0.00426633 0)
(-0.000500281 -0.00111605 0)
(3.2343e-05 0.000457825 0)
(-0.00041297 0.00329997 0)
(-0.00272757 0.00941915 0)
(-0.00728339 0.0144566 0)
(-0.0131001 0.0182903 0)
(-0.0197823 0.0209875 0)
(-0.0270424 0.0226838 0)
(-0.0346261 0.0235212 0)
(-0.0423179 0.023609 0)
(-0.0499256 0.0230068 0)
(-0.0572615 0.0217253 0)
(-0.0641308 0.0197394 0)
(-0.0703242 0.0170085 0)
(-0.0756159 0.0135003 0)
(-0.0797672 0.00921646 0)
(-0.0825382 0.00421591 0)
(-0.0837064 -0.0013661 0)
(-0.0830781 -0.00731401 0)
(-0.0805215 -0.0133068 0)
(-0.076006 -0.0189526 0)
(-0.0696197 -0.0238085 0)
(-0.0615954 -0.0274257 0)
(-0.0523219 -0.0294116 0)
(-0.0423323 -0.0294994 0)
(-0.0322659 -0.0276151 0)
(-0.0228009 -0.0239245 0)
(-0.0145656 -0.0188479 0)
(-0.00804183 -0.0130352 0)
(-0.0034736 -0.00730861 0)
(-0.00083793 -0.0025857 0)
(7.60147e-06 0.000163987 0)
(-0.0004885 0.00488859 0)
(-0.00318648 0.013319 0)
(-0.00845163 0.0200091 0)
(-0.0151208 0.0249926 0)
(-0.0227351 0.0284547 0)
(-0.0309767 0.0306177 0)
(-0.039576 0.0316819 0)
(-0.0483129 0.0317906 0)
(-0.0569955 0.0310174 0)
(-0.0654369 0.0293711 0)
(-0.0734398 0.0268137 0)
(-0.0807859 0.0232859 0)
(-0.0872314 0.0187367 0)
(-0.0925071 0.0131545 0)
(-0.096328 0.00659618 0)
(-0.0984173 -0.000784824 0)
(-0.0985036 -0.00870908 0)
(-0.0963668 -0.0167991 0)
(-0.0918979 -0.0245494 0)
(-0.0851114 -0.0313715 0)
(-0.0761947 -0.0366489 0)
(-0.0655352 -0.0398155 0)
(-0.0537234 -0.0404526 0)
(-0.0415199 -0.0383889 0)
(-0.0297808 -0.0337799 0)
(-0.0193447 -0.0271425 0)
(-0.0108977 -0.0193267 0)
(-0.00483887 -0.0114295 0)
(-0.00123137 -0.00466949 0)
(-1.45663e-05 -0.000301343 0)
(-0.000554737 0.00671147 0)
(-0.00359368 0.0177639 0)
(-0.00949619 0.0263 0)
(-0.0169404 0.032548 0)
(-0.0254132 0.0368445 0)
(-0.0345731 0.0395219 0)
(-0.0441418 0.0408542 0)
(-0.0539025 0.0410273 0)
(-0.0636723 0.0401316 0)
(-0.0732744 0.0381728 0)
(-0.0825179 0.0350947 0)
(-0.0911831 0.0308104 0)
(-0.0990128 0.0252375 0)
(-0.105709 0.0183358 0)
(-0.110937 0.0101437 0)
(-0.114328 0.000815838 0)
(-0.115534 -0.00933769 0)
(-0.114236 -0.0198739 0)
(-0.110187 -0.0301721 0)
(-0.10329 -0.0394813 0)
(-0.0936482 -0.0469794 0)
(-0.0816139 -0.0518696 0)
(-0.0678146 -0.0535096 0)
(-0.0531372 -0.0515573 0)
(-0.0386521 -0.046101 0)
(-0.0254757 -0.0377319 0)
(-0.0145829 -0.0275254 0)
(-0.0066039 -0.0169205 0)
(-0.00173746 -0.0075259 0)
(-4.1277e-05 -0.000974871 0)
(-0.000612001 0.00874056 0)
(-0.003948 0.0226925 0)
(-0.0104109 0.0332529 0)
(-0.0185456 0.0408789 0)
(-0.027796 0.0460867 0)
(-0.0378043 0.0493412 0)
(-0.048291 0.0510057 0)
(-0.0590497 0.0513174 0)
(-0.0699154 0.0503876 0)
(-0.08073 0.0482173 0)
(-0.091318 0.0447261 0)
(-0.101466 0.0397885 0)
(-0.110909 0.0332748 0)
(-0.119319 0.0250958 0)
(-0.126307 0.0152492 0)
(-0.131428 0.00386563 0)
(-0.134219 -0.00875659 0)
(-0.134222 -0.0221043 0)
(-0.131041 -0.0354489 0)
(-0.124424 -0.0478649 0)
(-0.11434 -0.0582868 0)
(-0.101052 -0.0656221 0)
(-0.085183 -0.068914 0)
(-0.0677271 -0.067545 0)
(-0.0499906 -0.0614407 0)
(-0.0334365 -0.0512137 0)
(-0.0194357 -0.0381787 0)
(-0.00896027 -0.0242002 0)
(-0.00242739 -0.0114025 0)
(-8.33972e-05 -0.00193067 0)
(-0.000659413 0.0109462 0)
(-0.0042444 0.0280383 0)
(-0.0111827 0.0407842 0)
(-0.019913 0.049898 0)
(-0.0298468 0.0561004 0)
(-0.0406178 0.0600092 0)
(-0.0519518 0.0620911 0)
(-0.0636602 0.062645 0)
(-0.0756025 0.0618067 0)
(-0.087648 0.0595719 0)
(-0.0996447 0.0558297 0)
(-0.111394 0.0504034 0)
(-0.122628 0.0430973 0)
(-0.132998 0.0337486 0)
(-0.142062 0.0222831 0)
(-0.149294 0.00877429 0)
(-0.154113 -0.00650104 0)
(-0.155912 -0.0230048 0)
(-0.154116 -0.0399145 0)
(-0.148286 -0.0561253 0)
(-0.138199 -0.0702998 0)
(-0.123965 -0.0809855 0)
(-0.106127 -0.086808 0)
(-0.0857286 -0.086737 0)
(-0.0642977 -0.0803895 0)
(-0.0436968 -0.0682911 0)
(-0.0258144 -0.0519765 0)
(-0.012119 -0.0338257 0)
(-0.00337901 -0.0166463 0)
(-0.000151587 -0.00327913 0)
(-0.000695322 0.0132951 0)
(-0.00447497 0.0337275 0)
(-0.0117928 0.0487992 0)
(-0.0210091 0.0595037 0)
(-0.0315132 0.0667866 0)
(-0.0429365 0.0714359 0)
(-0.055015 0.0740364 0)
(-0.0675826 0.0749575 0)
(-0.0805293 0.0743652 0)
(-0.0937576 0.0722494 0)
(-0.107146 0.0684624 0)
(-0.120519 0.062764 0)
(-0.133615 0.0548736 0)
(-0.146072 0.0445296 0)
(-0.157407 0.0315555 0)
(-0.167024 0.015933 0)
(-0.174232 -0.00211983 0)
(-0.178278 -0.0220647 0)
(-0.17841 -0.0430222 0)
(-0.173973 -0.0637234 0)
(-0.164506 -0.0825505 0)
(-0.149885 -0.0976458 0)
(-0.130472 -0.107117 0)
(-0.107249 -0.109359 0)
(-0.0818862 -0.103474 0)
(-0.0566521 -0.0897087 0)
(-0.0340702 -0.0697262 0)
(-0.0163037 -0.0464935 0)
(-0.00467749 -0.0237126 0)
(-0.000257398 -0.00517385 0)
(-0.000717761 0.0157486 0)
(-0.00463066 0.0396758 0)
(-0.0122199 0.057189 0)
(-0.0217955 0.0695755 0)
(-0.0327333 0.0780207 0)
(-0.0446654 0.0834977 0)
(-0.0573412 0.0867221 0)
(-0.0706188 0.088144 0)
(-0.0844206 0.087965 0)
(-0.0986857 0.08617 0)
(-0.113328 0.0825694 0)
(-0.1282 0.0768487 0)
(-0.14306 0.0686259 0)
(-0.157544 0.0575178 0)
(-0.17115 0.0432185 0)
(-0.183233 0.025588 0)
(-0.193013 0.00474846 0)
(-0.199631 -0.0188146 0)
(-0.202183 -0.0441902 0)
(-0.199793 -0.0699891 0)
(-0.191736 -0.0943422 0)
(-0.177579 -0.114979 0)
(-0.157371 -0.129419 0)
(-0.13187 -0.135318 0)
(-0.102727 -0.131003 0)
(-0.07253 -0.116139 0)
(-0.0445062 -0.0922944 0)
(-0.0217424 -0.0630248 0)
(-0.00641702 -0.0331694 0)
(-0.000414644 -0.00781547 0)
(-0.00072497 0.0182633 0)
(-0.00470354 0.0457891 0)
(-0.0124449 0.06583 0)
(-0.0222361 0.0799714 0)
(-0.0334451 0.0896475 0)
(-0.0457054 0.0960281 0)
(-0.0587783 0.099971 0)
(-0.0725443 0.102017 0)
(-0.0869568 0.102408 0)
(-0.10199 0.101128 0)
(-0.117595 0.0979416 0)
(-0.133659 0.0924532 0)
(-0.149965 0.084167 0)
(-0.166169 0.0725626 0)
(-0.181774 0.0571851 0)
(-0.196124 0.037749 0)
(-0.208414 0.0142497 0)
(-0.217713 -0.0129269 0)
(-0.223015 -0.0428819 0)
(-0.223279 -0.0741765 0)
(-0.217515 -0.104762 0)
(-0.204929 -0.132006 0)
(-0.185134 -0.152832 0)
(-0.158452 -0.164031 0)
(-0.126262 -0.16287 0)
(-0.0912545 -0.148006 0)
(-0.0573108 -0.120499 0)
(-0.0286495 -0.0843262 0)
(-0.00870134 -0.0456957 0)
(-0.000640945 -0.0114571 0)
(-0.000716007 0.0207916 0)
(-0.0046898 0.0519654 0)
(-0.0124575 0.0745857 0)
(-0.0223075 0.0905286 0)
(-0.0336016 0.10148 0)
(-0.0459716 0.108813 0)
(-0.0591857 0.113539 0)
(-0.0731412 0.116298 0)
(-0.0878163 0.117381 0)
(-0.103216 0.11677 0)
(-0.119326 0.114188 0)
(-0.136068 0.109156 0)
(-0.153264 0.101059 0)
(-0.170607 0.089235 0)
(-0.187636 0.0730714 0)
(-0.203738 0.0521262 0)
(-0.218138 0.0262509 0)
(-0.229914 -0.00428964 0)
(-0.238039 -0.0387059 0)
(-0.241391 -0.0755639 0)
(-0.238762 -0.112757 0)
(-0.228996 -0.147421 0)
(-0.211181 -0.175964 0)
(-0.184997 -0.194281 0)
(-0.151219 -0.198332 0)
(-0.112274 -0.185254 0)
(-0.072451 -0.154932 0)
(-0.0371886 -0.11131 0)
(-0.0116401 -0.0620675 0)
(-0.000959111 -0.0164102 0)
(-0.000691418 0.0232855 0)
(-0.00459306 0.0581013 0)
(-0.0122639 0.0833132 0)
(-0.0220109 0.101069 0)
(-0.0331873 0.113301 0)
(-0.0454162 0.121594 0)
(-0.0584648 0.127118 0)
(-0.0722382 0.13062 0)
(-0.08673 0.132449 0)
(-0.101968 0.132592 0)
(-0.117967 0.130733 0)
(-0.134685 0.126314 0)
(-0.151991 0.118608 0)
(-0.169633 0.106816 0)
(-0.187224 0.0901792 0)
(-0.204237 0.0681027 0)
(-0.220004 0.0402911 0)
(-0.233717 0.0068644 0)
(-0.244407 -0.0315366 0)
(-0.25096 -0.0735903 0)
(-0.252089 -0.117286 0)
(-0.246332 -0.159716 0)
(-0.232233 -0.196975 0)
(-0.208678 -0.22417 0)
(-0.17551 -0.235834 0)
(-0.134393 -0.22708 0)
(-0.0895315 -0.195721 0)
(-0.0474096 -0.144755 0)
(-0.0153385 -0.0831202 0)
(-0.00139807 -0.0230473 0)
(-0.000653951 0.0257014 0)
(-0.0044281 0.0641013 0)
(-0.0118952 0.0918738 0)
(-0.021386 0.111408 0)
(-0.0322373 0.124875 0)
(-0.0440537 0.134073 0)
(-0.0565918 0.140339 0)
(-0.0697542 0.144537 0)
(-0.0835401 0.147076 0)
(-0.0979911 0.14796 0)
(-0.113145 0.146842 0)
(-0.128996 0.143096 0)
(-0.145466 0.1359 0)
(-0.162381 0.124341 0)
(-0.179458 0.107532 0)
(-0.196307 0.0847514 0)
(-0.212427 0.0555709 0)
(-0.227194 0.0199647 0)
(-0.239806 -0.0215891 0)
(-0.2493 -0.0680065 0)
(-0.254427 -0.117522 0)
(-0.253557 -0.167426 0)
(-0.244778 -0.213798 0)
(-0.226145 -0.251245 0)
(-0.196325 -0.272972 0)
(-0.155696 -0.271722 0)
(-0.107655 -0.24223 0)
(-0.0591622 -0.185101 0)
(-0.0198799 -0.109677 0)
(-0.00199387 -0.0317991 0)
(-0.000609341 0.0280073 0)
(-0.00422494 0.0698926 0)
(-0.0114164 0.100149 0)
(-0.0205242 0.121371 0)
(-0.0308549 0.135962 0)
(-0.0419834 0.145933 0)
(-0.0536468 0.152799 0)
(-0.0657373 0.157546 0)
(-0.0782519 0.160655 0)
(-0.0912389 0.162154 0)
(-0.104755 0.16168 0)
(-0.118833 0.158557 0)
(-0.133457 0.151895 0)
(-0.148545 0.140694 0)
(-0.163946 0.123981 0)
(-0.179442 0.100942 0)
(-0.194745 0.0710522 0)
(-0.209476 0.0341655 0)
(-0.22308 -0.00942943 0)
(-0.23486 -0.0589984 0)
(-0.243742 -0.113086 0)
(-0.24811 -0.169442 0)
(-0.245785 -0.224506 0)
(-0.234115 -0.272836 0)
(-0.210516 -0.306686 0)
(-0.173675 -0.316415 0)
(-0.125359 -0.292804 0)
(-0.0720066 -0.232176 0)
(-0.0253058 -0.142432 0)
(-0.00279191 -0.0431435 0)
(-0.000567314 0.0301925 0)
(-0.00403361 0.0754438 0)
(-0.0109364 0.108062 0)
(-0.0195825 0.130813 0)
(-0.0292279 0.146331 0)
(-0.0394076 0.156854 0)
(-0.049835 0.164079 0)
(-0.0603898 0.169125 0)
(-0.0710649 0.172555 0)
(-0.0819146 0.174431 0)
(-0.0930165 0.174391 0)
(-0.104445 0.171737 0)
(-0.116255 0.165537 0)
(-0.128473 0.154747 0)
(-0.141099 0.138348 0)
(-0.154102 0.115478 0)
(-0.167426 0.0855516 0)
(-0.180965 0.0483269 0)
(-0.19453 0.00391579 0)
(-0.207676 -0.0472494 0)
(-0.21958 -0.104186 0)
(-0.2289 -0.165293 0)
(-0.233436 -0.227732 0)
(-0.230094 -0.286557 0)
(-0.215203 -0.333717 0)
(-0.1856 -0.357617 0)
(-0.140709 -0.344671 0)
(-0.0851617 -0.28492 0)
(-0.0316014 -0.181794 0)
(-0.00385265 -0.0575881 0)
(-0.000543308 0.0322805 0)
(-0.00393091 0.0807882 0)
(-0.0106193 0.115599 0)
(-0.0187967 0.139638 0)
(-0.0276409 0.155787 0)
(-0.0366419 0.166532 0)
(-0.045494 0.173772 0)
(-0.0540729 0.178767 0)
(-0.0623758 0.182169 0)
(-0.0704704 0.184089 0)
(-0.0784627 0.184184 0)
(-0.0864785 0.18176 0)
(-0.0946545 0.17588 0)
(-0.103137 0.165496 0)
(-0.112083 0.149585 0)
(-0.121662 0.127277 0)
(-0.13205 0.0979641 0)
(-0.143408 0.0613327 0)
(-0.155846 0.0173545 0)
(-0.169252 -0.0337536 0)
(-0.183171 -0.091586 0)
(-0.196597 -0.155281 0)
(-0.207587 -0.222994 0)
(-0.212983 -0.290815 0)
(-0.208415 -0.351211 0)
(-0.189048 -0.391531 0)
(-0.151575 -0.39412 0)
(-0.0975278 -0.341197 0)
(-0.0386933 -0.227699 0)
(-0.00526515 -0.0756567 0)
(-0.000562103 0.0343465 0)
(-0.00403184 0.0860551 0)
(-0.010702 0.122841 0)
(-0.0184971 0.147818 0)
(-0.0264848 0.16418 0)
(-0.0341159 0.174701 0)
(-0.0410856 0.181505 0)
(-0.0472887 0.186007 0)
(-0.0527478 0.188954 0)
(-0.0575613 0.190517 0)
(-0.0618785 0.190393 0)
(-0.0658889 0.187916 0)
(-0.0698214 0.182181 0)
(-0.0739473 0.172171 0)
(-0.0785831 0.156893 0)
(-0.0840883 0.13551 0)
(-0.0908538 0.107419 0)
(-0.0992765 0.0722702 0)
(-0.109709 0.029925 0)
(-0.122355 -0.0196328 0)
(-0.137118 -0.0764502 0)
(-0.153397 -0.140408 0)
(-0.169717 -0.210793 0)
(-0.183249 -0.285143 0)
(-0.189466 -0.357281 0)
(-0.182372 -0.414751 0)
(-0.155991 -0.436961 0)
(-0.10779 -0.397791 0)
(-0.0464584 -0.279411 0)
(-0.0071709 -0.0978897 0)
(-0.000665994 0.0365452 0)
(-0.00451121 0.0915086 0)
(-0.0115199 0.129987 0)
(-0.0191274 0.155411 0)
(-0.0262613 0.171411 0)
(-0.0323615 0.181127 0)
(-0.0371674 0.186943 0)
(-0.0406349 0.190436 0)
(-0.0428465 0.192453 0)
(-0.0439584 0.193231 0)
(-0.0441823 0.19252 0)
(-0.0437846 0.189707 0)
(-0.0430932 0.183944 0)
(-0.0425033 0.174276 0)
(-0.0424799 0.159771 0)
(-0.04355 0.13964 0)
(-0.0462896 0.11331 0)
(-0.0512876 0.0804074 0)
(-0.0590823 0.0406977 0)
(-0.070115 -0.00602726 0)
(-0.0845829 -0.0601265 0)
(-0.10229 -0.122154 0)
(-0.122342 -0.192464 0)
(-0.142566 -0.270233 0)
(-0.158869 -0.35131 0)
(-0.164856 -0.424825 0)
(-0.15242 -0.469116 0)
(-0.114552 -0.45063 0)
(-0.0547157 -0.335352 0)
(-0.00979154 -0.124869 0)
(-0.000933006 0.0391585 0)
(-0.00564501 0.0976006 0)
(-0.01355 0.137382 0)
(-0.0212678 0.162551 0)
(-0.0275784 0.177415 0)
(-0.0319807 0.185597 0)
(-0.0343346 0.189777 0)
(-0.0347219 0.191697 0)
(-0.0333327 0.192297 0)
(-0.0304132 0.191874 0)
(-0.0262579 0.190237 0)
(-0.0212198 0.18684 0)
(-0.0157253 0.180914 0)
(-0.010283 0.171586 0)
(-0.00548366 0.158001 0)
(-0.00198537 0.139425 0)
(-0.000510169 0.1153 0)
(-0.00180155 0.0852458 0)
(-0.00652388 0.04897 0)
(-0.0152336 0.00611323 0)
(-0.0283698 -0.0439286 0)
(-0.0461025 -0.102183 0)
(-0.0681012 -0.169864 0)
(-0.0930456 -0.247704 0)
(-0.117801 -0.333932 0)
(-0.136459 -0.420526 0)
(-0.13974 -0.487114 0)
(-0.116392 -0.495153 0)
(-0.0631452 -0.392987 0)
(-0.0134353 -0.157249 0)
(-0.00151647 0.0426841 0)
(-0.00788751 0.105041 0)
(-0.0174721 0.145523 0)
(-0.0256499 0.169421 0)
(-0.0311107 0.182112 0)
(-0.0335561 0.187864 0)
(-0.0330894 0.18968 0)
(-0.0300062 0.189448 0)
(-0.0246606 0.18817 0)
(-0.0174219 0.186184 0)
(-0.00868201 0.183348 0)
(0.00111892 0.179186 0)
(0.0114673 0.173015 0)
(0.0217632 0.164054 0)
(0.0313197 0.151532 0)
(0.0393778 0.13477 0)
(0.0451298 0.113224 0)
(0.0477635 0.0864952 0)
(0.0465252 0.0542434 0)
(0.0407472 0.0159999 0)
(0.0298469 -0.0290247 0)
(0.0134048 -0.0821064 0)
(-0.0087857 -0.145038 0)
(-0.0363024 -0.219716 0)
(-0.0673078 -0.30674 0)
(-0.0972442 -0.401802 0)
(-0.116925 -0.488337 0)
(-0.11172 -0.526652 0)
(-0.0710602 -0.448718 0)
(-0.0184197 -0.195715 0)
(-0.00272668 0.048004 0)
(-0.0120045 0.114881 0)
(-0.0242337 0.155013 0)
(-0.0331072 0.176138 0)
(-0.0374367 0.185287 0)
(-0.0373921 0.187542 0)
(-0.0335019 0.186219 0)
(-0.0263824 0.183285 0)
(-0.0166103 0.179742 0)
(-0.00470338 0.175924 0)
(0.00884508 0.171716 0)
(0.0235178 0.166695 0)
(0.0387395 0.160259 0)
(0.0538567 0.151717 0)
(0.0681323 0.14038 0)
(0.0807603 0.125625 0)
(0.0908952 0.10693 0)
(0.0976922 0.0838679 0)
(0.10035 0.0560285 0)
(0.0981295 0.022869 0)
(0.0903337 -0.0164722 0)
(0.0763245 -0.0633734 0)
(0.0554931 -0.119876 0)
(0.027436 -0.188553 0)
(-0.00746537 -0.271888 0)
(-0.046663 -0.369538 0)
(-0.0825285 -0.470993 0)
(-0.0984057 -0.540372 0)
(-0.0769744 -0.497633 0)
(-0.0248038 -0.240675 0)
(-0.00518733 0.0567122 0)
(-0.0192703 0.128564 0)
(-0.0350128 0.166375 0)
(-0.0442536 0.182482 0)
(-0.0464659 0.186317 0)
(-0.0427361 0.183867 0)
(-0.0342624 0.178647 0)
(-0.0221003 0.172564 0)
(-0.00709696 0.166509 0)
(0.0100746 0.160744 0)
(0.0288317 0.155129 0)
(0.0486098 0.149271 0)
(0.0688166 0.142629 0)
(0.0887966 0.134592 0)
(0.10782 0.124548 0)
(0.125091 0.111924 0)
(0.139775 0.096219 0)
(0.151027 0.0769861 0)
(0.158023 0.0537705 0)
(0.159963 0.0259915 0)
(0.156028 -0.0072168 0)
(0.145387 -0.047204 0)
(0.127078 -0.0959499 0)
(0.100029 -0.156244 0)
(0.0633382 -0.231675 0)
(0.017177 -0.325369 0)
(-0.0339818 -0.43411 0)
(-0.0731242 -0.531298 0)
(-0.0780269 -0.53301 0)
(-0.0318687 -0.29172 0)
(-0.0100985 0.0717804 0)
(-0.0316446 0.147811 0)
(-0.0506586 0.179494 0)
(-0.0581854 0.18726 0)
(-0.0555718 0.183592 0)
(-0.045498 0.175207 0)
(-0.0301196 0.165505 0)
(-0.0110264 0.156078 0)
(0.010661 0.147541 0)
(0.0341463 0.139973 0)
(0.058813 0.133143 0)
(0.0841194 0.126647 0)
(0.109524 0.119983 0)
(0.134441 0.112603 0)
(0.158214 0.103961 0)
(0.180124 0.0935416 0)
(0.199394 0.080873 0)
(0.215214 0.0655146 0)
(0.226752 0.0470077 0)
(0.233151 0.0247893 0)
(0.233437 -0.0019375 0)
(0.226596 -0.0343723 0)
(0.211347 -0.0742589 0)
(0.186076 -0.124185 0)
(0.148902 -0.188014 0)
(0.0980078 -0.271245 0)
(0.0334388 -0.377888 0)
(-0.0301635 -0.494343 0)
(-0.0694751 -0.54614 0)
(-0.0375117 -0.347344 0)
(-0.0195074 0.0984168 0)
(-0.0512948 0.173299 0)
(-0.0688292 0.191954 0)
(-0.0678354 0.186783 0)
(-0.0539534 0.173299 0)
(-0.0321997 0.158183 0)
(-0.0058086 0.144033 0)
(0.023206 0.131702 0)
(0.0536219 0.121287 0)
(0.084698 0.112549 0)
(0.115947 0.105101 0)
(0.146987 0.0984854 0)
(0.177445 0.0922146 0)
(0.206904 0.0857975 0)
(0.234868 0.0787582 0)
(0.260758 0.0706508 0)
(0.283909 0.061062 0)
(0.303583 0.0495971 0)
(0.318971 0.0358431 0)
(0.329179 0.0193109 0)
(0.333089 -0.000658868 0)
(0.329531 -0.0249303 0)
(0.316917 -0.0549367 0)
(0.293234 -0.0928201 0)
(0.255857 -0.142006 0)
(0.201532 -0.208759 0)
(0.127027 -0.302797 0)
(0.0403227 -0.426491 0)
(-0.0437373 -0.527701 0)
(-0.0371182 -0.403041 0)
(-0.0349826 0.142651 0)
(-0.0746573 0.197951 0)
(-0.0708788 0.192761 0)
(-0.0448506 0.170349 0)
(-0.00804276 0.146643 0)
(0.0329819 0.126136 0)
(0.0748976 0.109464 0)
(0.116141 0.0961949 0)
(0.156049 0.0856881 0)
(0.194403 0.077322 0)
(0.231172 0.0705377 0)
(0.26636 0.0648336 0)
(0.299926 0.0597544 0)
(0.331735 0.0548847 0)
(0.361533 0.0498461 0)
(0.388943 0.0442953 0)
(0.413463 0.0379203 0)
(0.434468 0.030428 0)
(0.451214 0.0215184 0)
(0.462818 0.0108399 0)
(0.468208 -0.00209844 0)
(0.466103 -0.0177752 0)
(0.454651 -0.0371478 0)
(0.431677 -0.061746 0)
(0.394057 -0.0941104 0)
(0.337941 -0.139649 0)
(0.256916 -0.20991 0)
(0.152752 -0.32436 0)
(0.0152926 -0.465605 0)
(-0.0171587 -0.441629 0)
(-0.0377936 0.235426 0)
(-0.0488177 0.202505 0)
(0.0256368 0.151979 0)
(0.0972627 0.116557 0)
(0.164438 0.0905237 0)
(0.225292 0.071595 0)
(0.279513 0.0580683 0)
(0.327778 0.0483415 0)
(0.371033 0.0412144 0)
(0.410167 0.0358794 0)
(0.44591 0.0317795 0)
(0.478809 0.0285019 0)
(0.50922 0.025721 0)
(0.537321 0.0231701 0)
(0.563112 0.0206247 0)
(0.586427 0.0178928 0)
(0.606949 0.0148078 0)
(0.624211 0.0112196 0)
(0.637614 0.0069905 0)
(0.646329 0.00196213 0)
(0.649552 -0.00398427 0)
(0.646125 -0.0112591 0)
(0.6343 -0.0202612 0)
(0.612099 -0.031704 0)
(0.576195 -0.0469047 0)
(0.522957 -0.0693021 0)
(0.442517 -0.107207 0)
(0.333327 -0.187763 0)
(0.143229 -0.335662 0)
(0.0605795 -0.412662 0)
(0.231215 0.158585 0)
(0.290919 0.116796 0)
(0.4397 0.0755882 0)
(0.537914 0.05031 0)
(0.604564 0.0341041 0)
(0.654043 0.023508 0)
(0.692512 0.0166799 0)
(0.723278 0.0122957 0)
(0.748613 0.00943911 0)
(0.770085 0.00753302 0)
(0.788734 0.00622119 0)
(0.805225 0.00527524 0)
(0.819974 0.00454129 0)
(0.833203 0.00391097 0)
(0.844979 0.003305 0)
(0.855246 0.00266302 0)
(0.863839 0.00193836 0)
(0.870507 0.00109022 0)
(0.87492 9.37159e-05 0)
(0.876683 -0.00109553 0)
(0.875259 -0.00238704 0)
(0.869938 -0.00400578 0)
(0.859908 -0.00603542 0)
(0.844194 -0.00861449 0)
(0.820421 -0.0120156 0)
(0.786856 -0.0172991 0)
(0.731774 -0.0266669 0)
(0.65527 -0.0486947 0)
(0.453894 -0.109858 0)
(0.313133 -0.177402 0)
)
;

boundaryField
{
    movingWall
    {
        type            fixedValue;
        value           uniform (1 0 0);
    }
    fixedWalls
    {
        type            noSlip;
    }
    frontAndBack
    {
        type            empty;
    }
}


// ************************************************************************* //
