/*--------------------------------*- C++ -*----------------------------------*\
  =========                 |
  \\      /  F ield         | OpenFOAM: The Open Source CFD Toolbox
   \\    /   O peration     | Website:  https://openfoam.org
    \\  /    A nd           | Version:  7
     \\/     M anipulation  |
\*---------------------------------------------------------------------------*/
FoamFile
{
    version     2.0;
    format      ascii;
    class       volScalarField;
    location    "0.3";
    object      p;
}
// * * * * * * * * * * * * * * * * * * * * * * * * * * * * * * * * * * * * * //

dimensions      [0 2 -2 0 0 0 0];

internalField   nonuniform List<scalar> 
900
(
1.62147e-08
2.60912e-05
-6.7408e-05
0.00041072
0.000642457
0.00139666
0.00200854
0.00296272
0.00392339
0.00505177
0.00628029
0.00758174
0.00895193
0.0103743
0.0118295
0.0132987
0.0147642
0.0162073
0.0176059
0.0189392
0.0202087
0.021393
0.0223812
0.023416
0.0240269
0.0248811
0.025077
0.0256402
0.0254982
0.025555
5.53682e-05
5.9081e-05
1.302e-05
0.000491407
0.00071008
0.00148981
0.00206765
0.00304354
0.00398074
0.00510702
0.00632917
0.00761823
0.00897701
0.0103885
0.0118324
0.0132904
0.0147454
0.0161786
0.0175667
0.0188868
0.0201498
0.0213375
0.0222975
0.0233624
0.0239307
0.0248146
0.0249943
0.0255571
0.0254728
0.0254988
-6.61698e-05
-7.4479e-05
-0.000108913
0.000376462
0.000588825
0.00138965
0.00195607
0.00295464
0.00388882
0.00502994
0.00626401
0.00756398
0.00893483
0.010359
0.0118166
0.0132889
0.0147584
0.016206
0.0176082
0.0189403
0.0202171
0.0214251
0.0223822
0.0234758
0.0240312
0.0249407
0.0251147
0.025686
0.0256164
0.0256258
-0.000343618
-0.000365079
-0.000395469
9.55589e-05
0.000313339
0.00113352
0.00170762
0.0027314
0.00368187
0.00484914
0.00611069
0.00743866
0.00883922
0.0102949
0.0117853
0.0132912
0.0147943
0.0162754
0.0177103
0.0190742
0.0203827
0.0216222
0.0225989
0.0237239
0.0242895
0.0252227
0.0254058
0.0259841
0.0259228
0.0259185
-0.000787295
-0.000821391
-0.000849655
-0.000349299
-0.000118341
0.000724663
0.00132118
0.00237763
0.0033612
0.00456631
0.00587062
0.00724361
0.00869125
0.0101965
0.0117384
0.0132965
0.014852
0.0163852
0.0178716
0.0192859
0.0206438
0.0219279
0.022944
0.0241084
0.0247022
0.0256643
0.0258655
0.0264554
0.0264006
0.0263853
-0.00140976
-0.00145457
-0.00147852
-0.000966324
-0.0007146
0.000157351
0.000789312
0.00188754
0.00292009
0.00417649
0.0055395
0.00697497
0.00848811
0.010062
0.0116746
0.0133044
0.0149319
0.0165371
0.0180945
0.0195786
0.0210042
0.0223481
0.0234225
0.0246374
0.0252754
0.0262737
0.0265023
0.0271082
0.0270616
0.0270362
-0.00221965
-0.00227413
-0.00229059
-0.00176312
-0.0014826
-0.000575635
0.000104699
0.00125536
0.00235226
0.0036742
0.00511274
0.00662905
0.00822681
0.00988885
0.011592
0.0133138
0.0150341
0.0167321
0.0183808
0.0199549
0.0214676
0.0228879
0.0240398
0.0253179
0.0260161
0.0270586
0.0273249
0.0279509
0.0279159
0.0278806
-0.0032279
-0.00329146
-0.00329727
-0.00275106
-0.00243304
-0.00148349
-0.000741828
0.000472999
0.00165017
0.00305321
0.00458501
0.00620126
0.00790335
0.00967375
0.0114883
0.0133236
0.0151586
0.0169709
0.0187324
0.0204181
0.0220384
0.0235536
0.0248027
0.0261587
0.0269338
0.0280304
0.0283452
0.0289966
0.0289766
0.0289304
-0.00444698
-0.00452025
-0.00451235
-0.00394322
-0.00357887
-0.00257804
-0.00176164
-0.000469478
0.00080494
0.00230605
0.00394957
0.00568565
0.00751283
0.00941305
0.0113611
0.0133326
0.0153051
0.0172546
0.0191517
0.0209719
0.022722
0.0243524
0.0257199
0.0271705
0.0280405
0.0292032
0.0295783
0.0302612
0.0302598
0.0302015
-0.00589158
-0.00597626
-0.0059521
-0.00535528
-0.00493551
-0.00387358
-0.00296794
-0.00158355
-0.000193916
0.00142351
0.00319825
0.00507526
0.00704967
0.00910248
0.0112073
0.0133387
0.0154729
0.0175839
0.0196412
0.0216205
0.0235243
0.0252922
0.0268012
0.028366
0.0293506
0.0305935
0.0310424
0.0317639
0.0317854
0.0317136
-0.00758073
-0.00767889
-0.00763612
-0.00700631
-0.00652114
-0.00538668
-0.00437611
-0.00288298
-0.00135891
0.000394894
0.00232185
0.00436234
0.00650744
0.00873684
0.011023
0.0133393
0.0156607
0.0179593
0.0202034
0.0223686
0.0244517
0.0263823
0.0280584
0.02976
0.0308814
0.0322214
0.0327591
0.0335281
0.0335775
0.0334911
-0.00953798
-0.0096518
-0.0095878
-0.0089187
-0.00835703
-0.00713685
-0.00600433
-0.004384
-0.0027044
-0.000791868
0.00131015
0.00353821
0.0058788
0.00831008
0.0108035
0.0133313
0.0158669
0.0183809
0.0208405
0.0232202
0.0255109
0.0276325
0.0295044
0.0313693
0.0326527
0.0341104
0.0347544
0.0355819
0.0356649
0.0355626
-0.0117913
-0.011923
-0.0118348
-0.0111188
-0.0104682
-0.009147
-0.00787349
-0.00610499
-0.00424637
-0.00215026
0.000151707
0.00259322
0.00515567
0.00781554
0.0105435
0.0133108
0.0160892
0.0188479
0.0215534
0.024179
0.0267083
0.0290533
0.0311535
0.0332125
0.0346875
0.0362878
0.0370589
0.0379586
0.0380817
0.0379622
-0.0143736
-0.0145258
-0.0144099
-0.0136379
-0.0128838
-0.0114434
-0.0100071
-0.00806627
-0.0060022
-0.00369495
-0.00116589
0.00151683
0.00432919
0.00724583
0.0102369
0.0132728
0.016324
0.0193584
0.0223423
0.0252473
0.0280496
0.030655
0.0330209
0.0353102
0.0370116
0.038785
0.0397086
0.040698
0.0408692
0.0407309
-0.017324
-0.0175
-0.0173524
-0.016513
-0.0156377
-0.0140563
-0.0124315
-0.0102904
-0.00799085
-0.00544158
-0.00265571
0.000297933
0.00338993
0.00659293
0.00987669
0.0132114
0.0165663
0.019909
0.0232055
0.0264262
0.0295394
0.0324472
0.0351221
0.0376844
0.039654
0.0416384
0.0427461
0.0438479
0.0440772
0.043918
-0.0206884
-0.0208938
-0.0207088
-0.0197874
-0.0187691
-0.01702
-0.0151765
-0.0128023
-0.0102328
-0.00740669
-0.0043311
-0.00107468
0.00232822
0.00584834
0.00945532
0.0131193
0.0168096
0.020494
0.0241391
0.027714
0.0311799
0.0344375
0.0374715
0.0403576
0.0426465
0.0448898
0.0462224
0.0474666
0.0477674
0.0475835
-0.0245215
-0.0247653
-0.024535
-0.0235124
-0.0223234
-0.0203735
-0.0182745
-0.0156284
-0.0127495
-0.00960702
-0.00620509
-0.00261162
0.00113475
0.0050034
0.00896433
0.0129883
0.0170454
0.0211052
0.0251357
0.0291054
0.0329696
0.0366301
0.040081
0.0433517
0.046023
0.0485862
0.0501976
0.0516254
0.0520169
0.0518
-0.0288909
-0.0291857
-0.028899
-0.0277495
-0.0263538
-0.0241608
-0.0217607
-0.0187961
-0.0155619
-0.0120585
-0.00828966
-0.00432235
-0.000198751
0.0040499
0.00839494
0.0128087
0.0172633
0.0217315
0.0261841
0.03059
0.034901
0.0390234
0.0429577
0.0466858
0.0498181
0.0527807
0.0547431
0.0564115
0.056922
0.0566597
-0.0338814
-0.0342438
-0.0338843
-0.0325727
-0.0309224
-0.0284315
-0.0256727
-0.0223327
-0.0186898
-0.0147749
-0.0105945
-0.00621418
-0.00167872
0.00298095
0.00773874
0.0125699
0.0174504
0.0223576
0.0272671
0.0321503
0.0369587
0.041607
0.0461
0.0503726
0.0540648
0.0575304
0.0599429
0.0619339
0.0626059
0.0622816
-0.0396011
-0.0400534
-0.0395958
-0.0380716
-0.0361013
-0.0332404
-0.0300497
-0.0262646
-0.0221496
-0.0177657
-0.0131249
-0.00829044
-0.00330834
0.00179199
0.00698849
0.012261
0.0175913
0.022964
0.0283612
0.0337599
0.0391158
0.0443576
0.0494926
0.0544126
0.0587885
0.0628941
0.0658948
0.0683293
0.0692304
0.0688234
-0.0461926
-0.0467636
-0.0461674
-0.0443561
-0.0419747
-0.0386472
-0.0349307
-0.0306146
-0.0259522
-0.0210339
-0.0158793
-0.0105481
-0.0050856
0.000482245
0.00613908
0.0118713
0.0176688
0.0235257
0.0294344
0.0353808
0.0413311
0.0472336
0.0530992
0.0587848
0.0639981
0.0689251
0.0727102
0.0757721
0.0770135
0.0765032
-0.0538527
-0.0545766
-0.0537736
-0.0515629
-0.0486408
-0.0447153
-0.0403512
-0.0353978
-0.0300987
-0.024572
-0.0188458
-0.012975
-0.00700074
-0.000943286
0.00518896
0.0113913
0.0176638
0.0240136
0.0304465
0.0369624
0.0435442
0.0501679
0.0568519
0.0634336
0.0696706
0.0756576
0.0805083
0.0844836
0.0862563
0.0856388
-0.0628681
-0.0637758
-0.0626469
-0.0598621
-0.0562127
-0.0515092
-0.0463384
-0.0406157
-0.0345747
-0.0283574
-0.0219989
-0.0155464
-0.00903356
-0.00247149
0.00414206
0.0108139
0.0175572
0.0243945
0.031349
0.0384391
0.0456721
0.0530595
0.0606382
0.0682492
0.0757256
0.0830782
0.089396
0.0947383
0.0973834
0.0967267
-0.0736874
-0.0747732
-0.0731012
-0.0694644
-0.0648163
-0.0590877
-0.0529033
-0.0462477
-0.0393427
-0.0323456
-0.0252937
-0.0182217
-0.0111508
-0.00407916
0.0030096
0.0101369
0.0173317
0.0246339
0.0320866
0.039731
0.0476058
0.0557674
0.0642861
0.0730421
0.0819827
0.09107
0.0994182
0.106852
0.111001
0.110611
-0.0870684
-0.0881859
-0.0855608
-0.0806263
-0.0745832
-0.0674905
-0.0600258
-0.0522379
-0.044331
-0.0364619
-0.0286599
-0.0209399
-0.0133036
-0.00573085
0.00181261
0.009366
0.0169754
0.0246989
0.0326002
0.0407462
0.049213
0.0581084
0.0675515
0.0775102
0.0880982
0.0993151
0.110451
0.121138
0.128033
0.128891
-0.104426
-0.104971
-0.100587
-0.09365
-0.0856329
-0.0767138
-0.0676296
-0.0584743
-0.0494178
-0.0405899
-0.0319947
-0.023615
-0.0154235
-0.00737569
0.000585193
0.00851829
0.0164865
0.0245635
0.0328347
0.0413924
0.0503498
0.0598646
0.0701165
0.0812113
0.0934817
0.107121
0.121934
0.137652
0.149913
0.154756
-0.128923
-0.126737
-0.118935
-0.10887
-0.0980271
-0.0866461
-0.0755209
-0.0647401
-0.0543945
-0.0445456
-0.0351438
-0.0261216
-0.0174113
-0.00893649
-0.000615024
0.00763304
0.015888
0.0242281
0.0327647
0.0416093
0.0509018
0.0608361
0.0716525
0.0836117
0.0972715
0.113212
0.132244
0.155142
0.177346
0.193518
-0.168397
-0.155489
-0.141325
-0.126294
-0.111388
-0.0967391
-0.0831266
-0.0705233
-0.0588325
-0.0479831
-0.0378324
-0.0282419
-0.0190927
-0.0102728
-0.00167388
0.00680364
0.0152631
0.0237638
0.0324548
0.041451
0.0509031
0.0610194
0.0720801
0.084461
0.0988666
0.116371
0.13911
0.17076
0.207627
0.254579
-0.233099
-0.187077
-0.164854
-0.142354
-0.122546
-0.104484
-0.0884982
-0.0743785
-0.0616705
-0.050117
-0.0394731
-0.0295277
-0.0201168
-0.0111014
-0.00235668
0.00622638
0.0147426
0.0233434
0.032091
0.0411194
0.0505849
0.0606962
0.0717496
0.0842164
0.0989791
0.117766
0.144609
0.188162
0.244442
0.381797
-0.415579
-0.209941
-0.163914
-0.139737
-0.119353
-0.101847
-0.0866134
-0.0730554
-0.060761
-0.0494869
-0.0390354
-0.0292304
-0.0199254
-0.0109955
-0.00232706
0.0061858
0.0146422
0.0231456
0.0317962
0.0407102
0.0500296
0.0599472
0.0707504
0.082988
0.0977635
0.118103
0.151041
0.217114
0.339911
0.644605
)
;

boundaryField
{
    movingWall
    {
        type            zeroGradient;
    }
    fixedWalls
    {
        type            zeroGradient;
    }
    frontAndBack
    {
        type            empty;
    }
}


// ************************************************************************* //
