/*--------------------------------*- C++ -*----------------------------------*\
  =========                 |
  \\      /  F ield         | OpenFOAM: The Open Source CFD Toolbox
   \\    /   O peration     | Website:  https://openfoam.org
    \\  /    A nd           | Version:  7
     \\/     M anipulation  |
\*---------------------------------------------------------------------------*/
FoamFile
{
    version     2.0;
    format      ascii;
    class       surfaceScalarField;
    location    "0.3";
    object      phi;
}
// * * * * * * * * * * * * * * * * * * * * * * * * * * * * * * * * * * * * * //

dimensions      [0 3 -1 0 0 0 0];

internalField   nonuniform List<scalar> 
1740
(
-2.46597e-06
2.46595e-06
-3.99151e-06
1.52554e-06
-8.96096e-06
4.96945e-06
-1.15969e-05
2.636e-06
-1.59536e-05
4.35664e-06
-1.87618e-05
2.80825e-06
-2.22508e-05
3.48891e-06
-2.48899e-05
2.63918e-06
-2.74864e-05
2.59643e-06
-2.9717e-05
2.23063e-06
-3.15512e-05
1.83425e-06
-3.30148e-05
1.46357e-06
-3.40938e-05
1.07894e-06
-3.47595e-05
6.65703e-07
-3.50069e-05
2.47477e-07
-3.48466e-05
-1.60326e-07
-3.42717e-05
-5.74881e-07
-3.32762e-05
-9.95557e-07
-3.18802e-05
-1.39597e-06
-3.01127e-05
-1.76751e-06
-2.79281e-05
-2.18458e-06
-2.53077e-05
-2.62039e-06
-2.27428e-05
-2.56494e-06
-1.91168e-05
-3.626e-06
-1.6364e-05
-2.75276e-06
-1.16463e-05
-4.71774e-06
-9.02617e-06
-2.62011e-06
-3.61615e-06
-5.41002e-06
-2.3767e-06
-1.23945e-06
-2.37671e-06
-3.29604e-06
5.762e-06
-8.56143e-06
6.79093e-06
-1.51149e-05
1.15229e-05
-2.12239e-05
8.74494e-06
-2.73264e-05
1.04592e-05
-3.3014e-05
8.49593e-06
-3.82716e-05
8.74649e-06
-4.31201e-05
7.48767e-06
-4.73959e-05
6.87227e-06
-5.11101e-05
5.94484e-06
-5.42346e-05
4.95874e-06
-5.67108e-05
3.93971e-06
-5.85093e-05
2.87752e-06
-5.96242e-05
1.78062e-06
-6.00396e-05
6.62793e-07
-5.9746e-05
-4.53912e-07
-5.87516e-05
-1.56929e-06
-5.70595e-05
-2.68761e-06
-5.46772e-05
-3.77826e-06
-5.16252e-05
-4.81956e-06
-4.79508e-05
-5.85897e-06
-4.37082e-05
-6.86294e-06
-3.88402e-05
-7.43295e-06
-3.3546e-05
-8.92023e-06
-2.7798e-05
-8.50079e-06
-2.15696e-05
-1.09461e-05
-1.53999e-05
-8.78987e-06
-8.65402e-06
-1.21559e-05
-3.3642e-06
-6.52927e-06
-5.74091e-06
-3.34557e-06
9.10757e-06
-1.0406e-05
1.38513e-05
-1.7089e-05
1.82059e-05
-2.44424e-05
1.60983e-05
-3.09084e-05
1.69252e-05
-3.74728e-05
1.50603e-05
-4.32022e-05
1.44759e-05
-4.8681e-05
1.29665e-05
-5.34266e-05
1.16178e-05
-5.75743e-05
1.00925e-05
-6.10575e-05
8.44198e-06
-6.38213e-05
6.70349e-06
-6.58308e-05
4.88707e-06
-6.70692e-05
3.019e-06
-6.75327e-05
1.12631e-06
-6.72103e-05
-7.76314e-07
-6.60905e-05
-2.68912e-06
-6.41918e-05
-4.58634e-06
-6.15298e-05
-6.44023e-06
-5.81177e-05
-8.23167e-06
-5.4014e-05
-9.96267e-06
-4.93099e-05
-1.1567e-05
-4.37898e-05
-1.2953e-05
-3.80718e-05
-1.46382e-05
-3.14251e-05
-1.51474e-05
-2.4981e-05
-1.73902e-05
-1.75384e-05
-1.62325e-05
-1.08479e-05
-1.88464e-05
-3.52409e-06
-1.38531e-05
-9.26499e-06
-3.72687e-06
1.28344e-05
-1.12103e-05
2.13348e-05
-1.80974e-05
2.5093e-05
-2.5811e-05
2.3812e-05
-3.25103e-05
2.36245e-05
-3.93669e-05
2.19169e-05
-4.53491e-05
2.04581e-05
-5.10617e-05
1.8679e-05
-5.60324e-05
1.65885e-05
-6.03552e-05
1.44154e-05
-6.39814e-05
1.20682e-05
-6.68587e-05
9.58079e-06
-6.89579e-05
6.9862e-06
-7.02605e-05
4.32169e-06
-7.07517e-05
1.6175e-06
-7.0414e-05
-1.11406e-06
-6.92501e-05
-3.85303e-06
-6.72719e-05
-6.56448e-06
-6.44994e-05
-9.21281e-06
-6.09461e-05
-1.17849e-05
-5.66706e-05
-1.42382e-05
-5.17518e-05
-1.64859e-05
-4.6007e-05
-1.86978e-05
-4.00273e-05
-2.0618e-05
-3.30529e-05
-2.21218e-05
-2.63649e-05
-2.40781e-05
-1.84864e-05
-2.4111e-05
-1.15858e-05
-2.57469e-05
-3.82988e-06
-2.16091e-05
-1.30949e-05
-4.11996e-06
1.69544e-05
-1.17246e-05
2.89394e-05
-1.90232e-05
3.23916e-05
-2.69517e-05
3.17404e-05
-3.39588e-05
3.06316e-05
-4.10648e-05
2.90229e-05
-4.73267e-05
2.672e-05
-5.32274e-05
2.45797e-05
-5.83926e-05
2.17537e-05
-6.28904e-05
1.89132e-05
-6.66603e-05
1.58381e-05
-6.96449e-05
1.25654e-05
-7.18261e-05
9.16745e-06
-7.31857e-05
5.68125e-06
-7.36993e-05
2.13116e-06
-7.3355e-05
-1.45836e-06
-7.21562e-05
-5.05188e-06
-7.01188e-05
-8.60187e-06
-6.72532e-05
-1.20785e-05
-6.35779e-05
-1.54602e-05
-5.91465e-05
-1.86696e-05
-5.40237e-05
-2.16087e-05
-4.80747e-05
-2.46468e-05
-4.18091e-05
-2.68836e-05
-3.45688e-05
-2.93621e-05
-2.75061e-05
-3.11408e-05
-1.93399e-05
-3.22772e-05
-1.19791e-05
-3.31077e-05
-4.16174e-06
-2.94264e-05
-1.72566e-05
-4.43992e-06
2.13943e-05
-1.22357e-05
3.67352e-05
-2.00383e-05
4.01942e-05
-2.8297e-05
3.99991e-05
-3.57412e-05
3.80758e-05
-4.31368e-05
3.64185e-05
-4.97173e-05
3.33006e-05
-5.58794e-05
3.07418e-05
-6.13015e-05
2.71757e-05
-6.60026e-05
2.36144e-05
-6.99323e-05
1.97677e-05
-7.30537e-05
1.56868e-05
-7.5339e-05
1.14527e-05
-7.67605e-05
7.10271e-06
-7.73015e-05
2.6722e-06
-7.69546e-05
-1.80534e-06
-7.57256e-05
-6.28081e-06
-7.36163e-05
-1.07112e-05
-7.06405e-05
-1.50543e-05
-6.6818e-05
-1.92827e-05
-6.21958e-05
-2.32917e-05
-5.68255e-05
-2.6979e-05
-5.06209e-05
-3.08514e-05
-4.40064e-05
-3.3498e-05
-3.64469e-05
-3.69217e-05
-2.89147e-05
-3.8673e-05
-2.04037e-05
-4.07882e-05
-1.24689e-05
-4.10425e-05
-4.46805e-06
-3.74273e-05
-2.17247e-05
-4.73722e-06
2.61315e-05
-1.28972e-05
4.48952e-05
-2.12969e-05
4.85939e-05
-2.99753e-05
4.86776e-05
-3.79179e-05
4.60184e-05
-4.57034e-05
4.4204e-05
-5.26943e-05
4.02915e-05
-5.91868e-05
3.72343e-05
-6.49105e-05
3.28994e-05
-6.98554e-05
2.85593e-05
-7.39897e-05
2.3902e-05
-7.72752e-05
1.89723e-05
-7.96809e-05
1.38585e-05
-8.11828e-05
8.60458e-06
-8.17612e-05
3.25061e-06
-8.1416e-05
-2.15051e-06
-8.01453e-05
-7.55154e-06
-7.79516e-05
-1.29048e-05
-7.48415e-05
-1.81644e-05
-7.08404e-05
-2.32838e-05
-6.59897e-05
-2.81425e-05
-6.03224e-05
-3.26463e-05
-5.37991e-05
-3.73747e-05
-4.67626e-05
-4.05345e-05
-3.87986e-05
-4.48857e-05
-3.07149e-05
-4.67567e-05
-2.17494e-05
-4.97537e-05
-1.31681e-05
-4.96238e-05
-4.7927e-06
-4.58026e-05
-2.65174e-05
-5.05099e-06
3.11825e-05
-1.37016e-05
5.35458e-05
-2.27706e-05
5.76629e-05
-3.20088e-05
5.79157e-05
-4.05533e-05
5.45629e-05
-4.88357e-05
5.24864e-05
-5.63139e-05
4.77697e-05
-6.31967e-05
4.41171e-05
-6.92746e-05
3.89772e-05
-7.45166e-05
3.38013e-05
-7.88958e-05
2.82812e-05
-8.23724e-05
2.2449e-05
-8.49198e-05
1.64059e-05
-8.65156e-05
1.02003e-05
-8.7144e-05
3.879e-06
-8.67996e-05
-2.49487e-06
-8.54826e-05
-8.86856e-06
-8.31905e-05
-1.51969e-05
-7.9928e-05
-2.14269e-05
-7.57191e-05
-2.74927e-05
-7.05965e-05
-3.32651e-05
-6.45801e-05
-3.86626e-05
-5.76729e-05
-4.42819e-05
-5.0144e-05
-4.80634e-05
-4.16828e-05
-5.3347e-05
-3.29592e-05
-5.54802e-05
-2.34131e-05
-5.92999e-05
-1.41005e-05
-5.89364e-05
-5.17725e-06
-5.47259e-05
-3.16946e-05
-5.41124e-06
3.65938e-05
-1.46859e-05
6.28205e-05
-2.4525e-05
6.7502e-05
-3.44634e-05
6.78541e-05
-4.37131e-05
6.38127e-05
-5.25855e-05
6.13588e-05
-6.06208e-05
5.5805e-05
-6.79642e-05
5.14604e-05
-7.44564e-05
4.54695e-05
-8.0043e-05
3.93879e-05
-8.47011e-05
3.29394e-05
-8.83968e-05
2.61447e-05
-9.11062e-05
1.91153e-05
-9.28111e-05
1.19052e-05
-9.34977e-05
4.56556e-06
-9.31588e-05
-2.83377e-06
-9.17912e-05
-1.02361e-05
-8.93906e-05
-1.75976e-05
-8.59605e-05
-2.4857e-05
-8.15186e-05
-3.19346e-05
-7.60853e-05
-3.86984e-05
-6.96705e-05
-4.50775e-05
-6.23088e-05
-5.16436e-05
-5.42084e-05
-5.61639e-05
-4.51486e-05
-6.24068e-05
-3.56907e-05
-6.49381e-05
-2.54283e-05
-6.95623e-05
-1.5276e-05
-6.90887e-05
-5.64232e-06
-6.43595e-05
-3.73369e-05
-5.86114e-06
4.24549e-05
-1.59099e-05
7.28693e-05
-2.66398e-05
7.82319e-05
-3.74024e-05
7.86167e-05
-4.74531e-05
7.38633e-05
-5.70144e-05
7.09201e-05
-6.56872e-05
6.44777e-05
-7.35637e-05
5.93369e-05
-8.05242e-05
5.243e-05
-8.64955e-05
4.53592e-05
-9.1464e-05
3.79079e-05
-9.54042e-05
3.00849e-05
-9.82956e-05
2.20068e-05
-0.000100123
1.37329e-05
-0.000100876
5.31864e-06
-0.000100548
-3.16246e-06
-9.91283e-05
-1.16554e-05
-9.66114e-05
-2.01145e-05
-9.30018e-05
-2.84665e-05
-8.83055e-05
-3.6631e-05
-8.25307e-05
-4.44732e-05
-7.56731e-05
-5.1935e-05
-6.77912e-05
-5.95255e-05
-5.90376e-05
-6.49174e-05
-4.92666e-05
-7.21778e-05
-3.89603e-05
-7.52443e-05
-2.78272e-05
-8.06954e-05
-1.67013e-05
-8.02147e-05
-6.19398e-06
-7.48668e-05
-4.35309e-05
-6.41829e-06
4.88732e-05
-1.73998e-05
8.38508e-05
-2.91568e-05
8.99888e-05
-4.08827e-05
9.03426e-05
-5.18463e-05
8.4827e-05
-6.22053e-05
8.12791e-05
-7.15993e-05
7.38718e-05
-8.00768e-05
6.78144e-05
-8.75539e-05
5.99071e-05
-9.39475e-05
5.17528e-05
-9.9254e-05
4.32143e-05
-0.000103458
3.42893e-05
-0.000106546
2.50946e-05
-0.000108507
1.56932e-05
-0.000109335
6.14658e-06
-0.000109024
-3.47284e-06
-0.000107561
-1.31185e-05
-0.000104932
-2.27434e-05
-0.000101135
-3.22643e-05
-9.61632e-05
-4.16023e-05
-9.00168e-05
-5.06195e-05
-8.26764e-05
-5.92755e-05
-7.42143e-05
-6.79876e-05
-6.47279e-05
-7.44038e-05
-5.41266e-05
-8.27792e-05
-4.28399e-05
-8.6531e-05
-3.06602e-05
-9.2875e-05
-1.83964e-05
-9.24785e-05
-6.83842e-06
-8.64248e-05
-5.03693e-05
-7.08729e-06
5.59605e-05
-1.91796e-05
9.59431e-05
-3.21298e-05
0.000102939
-4.49817e-05
0.000103195
-5.69883e-05
9.68335e-05
-6.82578e-05
9.25486e-05
-7.84554e-05
8.40693e-05
-8.75961e-05
7.69551e-05
-9.56332e-05
6.79442e-05
-0.000102482
5.8602e-05
-0.000108148
4.88802e-05
-0.00011263
3.87714e-05
-0.000115925
2.83889e-05
-0.000118027
1.77956e-05
-0.000118936
7.05529e-06
-0.00011865
-3.75892e-06
-0.000117149
-1.46188e-05
-0.000114418
-2.54751e-05
-0.00011044
-3.62421e-05
-0.000105194
-4.68478e-05
-9.86619e-05
-5.71519e-05
-9.08026e-05
-6.71348e-05
-8.1698e-05
-7.70922e-05
-7.13954e-05
-8.47064e-05
-5.98401e-05
-9.43345e-05
-4.74268e-05
-9.89443e-05
-3.40045e-05
-0.000106297
-2.04046e-05
-0.000106078
-7.59245e-06
-9.9237e-05
-5.79618e-05
-7.88309e-06
6.38436e-05
-2.12953e-05
0.000109355
-3.56387e-05
0.000117282
-4.98015e-05
0.000117357
-6.2996e-05
0.000110028
-7.52936e-05
0.000104846
-8.63771e-05
9.51529e-05
-9.62376e-05
8.68156e-05
-0.000104868
7.65746e-05
-0.000112193
6.59273e-05
-0.000118228
5.49149e-05
-0.000122989
4.35329e-05
-0.00012649
3.18894e-05
-0.000128738
2.00437e-05
-0.00012974
8.05677e-06
-0.000129491
-4.00791e-06
-0.000127971
-1.61383e-05
-0.000125155
-2.82913e-05
-0.000121012
-4.03851e-05
-0.000115502
-5.23575e-05
-0.000108585
-6.40691e-05
-0.000100192
-7.55276e-05
-9.03966e-05
-8.68879e-05
-7.91963e-05
-9.59067e-05
-6.65582e-05
-0.000106973
-5.2854e-05
-0.000112648
-3.79682e-05
-0.000121183
-2.27949e-05
-0.000121252
-8.48574e-06
-0.000113546
-6.64475e-05
-8.82914e-06
7.26727e-05
-2.38093e-05
0.000124335
-3.97833e-05
0.000133257
-5.54678e-05
0.000133042
-7.00114e-05
0.000124572
-8.34605e-05
0.000118295
-9.55109e-05
0.000107203
-0.000106139
9.74441e-05
-0.000115382
8.58172e-05
-0.000123186
7.37311e-05
-0.000129583
6.13116e-05
-0.000134613
4.85631e-05
-0.00013831
3.55869e-05
-0.0001407
2.2433e-05
-0.000141799
9.15575e-06
-0.000141602
-4.204e-06
-0.00014009
-1.76513e-05
-0.000137225
-3.11558e-05
-0.000132954
-4.46558e-05
-0.000127212
-5.80995e-05
-0.000119929
-7.1352e-05
-0.00011101
-8.44467e-05
-0.000100498
-9.74005e-05
-8.83291e-05
-0.000108075
-7.44782e-05
-0.000120824
-5.92992e-05
-0.000127827
-4.2697e-05
-0.000137785
-2.56637e-05
-0.000138285
-9.55937e-06
-0.000129651
-7.60069e-05
-9.95634e-06
8.2629e-05
-2.68038e-05
0.000141183
-4.4694e-05
0.000151147
-6.21466e-05
0.000150494
-7.82198e-05
0.000140645
-9.29466e-05
0.000133022
-0.000106036
0.000120293
-0.000117465
0.000108873
-0.000127319
9.56709e-05
-0.000135579
8.19909e-05
-0.000142306
6.80386e-05
-0.000147573
5.38304e-05
-0.000151442
3.94562e-05
-0.00015396
2.49508e-05
-0.000155158
1.03542e-05
-0.000155036
-4.32683e-06
-0.000153566
-1.91212e-05
-0.000150703
-3.40183e-05
-0.000146369
-4.89902e-05
-0.000140461
-6.40067e-05
-0.000132868
-7.89457e-05
-0.000123458
-9.38565e-05
-0.00011223
-0.000108628
-9.90419e-05
-0.000121264
-8.38538e-05
-0.000136012
-6.6998e-05
-0.000144683
-4.83852e-05
-0.000156398
-2.91389e-05
-0.000157531
-1.08654e-05
-0.000147924
-8.68723e-05
-1.13108e-05
9.39398e-05
-3.03971e-05
0.000160269
-5.05533e-05
0.000171303
-7.00641e-05
0.000170005
-8.78683e-05
0.000158449
-0.000103996
0.00014915
-0.000118179
0.000134475
-0.000130409
0.000121104
-0.00014084
0.000106101
-0.000149498
9.06494e-05
-0.000156491
7.50313e-05
-0.000161936
5.92754e-05
-0.000165931
4.34517e-05
-0.000168552
2.75715e-05
-0.000169847
1.16498e-05
-0.000169824
-4.35062e-06
-0.000168448
-2.04964e-05
-0.000165661
-3.68053e-05
-0.000161356
-5.32952e-05
-0.000155391
-6.99725e-05
-0.000147591
-8.67451e-05
-0.000137776
-0.000103671
-0.00012588
-0.000120525
-0.000111652
-0.000135492
-9.50167e-05
-0.000152647
-7.62645e-05
-0.000163435
-5.52937e-05
-0.000177369
-3.33934e-05
-0.000179432
-1.24713e-05
-0.000168846
-9.93436e-05
-1.29614e-05
0.000106901
-3.47608e-05
0.000182069
-5.76165e-05
0.000194159
-7.95258e-05
0.000191914
-9.92802e-05
0.000178204
-0.000116922
0.000166792
-0.00013222
0.000149773
-0.000145207
0.000134091
-0.000156127
0.000117021
-0.000165077
9.95994e-05
-0.000172228
8.21822e-05
-0.000177756
6.48031e-05
-0.000181805
4.75005e-05
-0.000184486
3.02529e-05
-0.00018587
1.30333e-05
-0.000185973
-4.2475e-06
-0.000184761
-2.17081e-05
-0.000182153
-3.94131e-05
-0.000178012
-5.74369e-05
-0.000172145
-7.5839e-05
-0.00016431
-9.45806e-05
-0.000154248
-0.000113733
-0.000141798
-0.000132974
-0.000126567
-0.000150723
-0.000108406
-0.000170809
-8.75271e-05
-0.000184314
-6.37862e-05
-0.00020111
-3.8672e-05
-0.000204546
-1.44735e-05
-0.000193045
-0.000113817
-1.50079e-05
0.000121909
-4.01412e-05
0.000207202
-6.62423e-05
0.00022026
-9.09478e-05
0.00021662
-0.000112878
0.000200133
-0.000132115
0.000186029
-0.0001485
0.000166158
-0.000162134
0.000147726
-0.000173386
0.000128273
-0.000182454
0.000108667
-0.000189598
8.93261e-05
-0.000195068
7.02731e-05
-0.000199063
5.14956e-05
-0.000201739
3.29286e-05
-0.000203193
1.44873e-05
-0.000203454
-3.98583e-06
-0.00020249
-2.26719e-05
-0.000200199
-4.17046e-05
-0.000196406
-6.12296e-05
-0.000190865
-8.13798e-05
-0.000183248
-0.000102198
-0.000173197
-0.000123784
-0.000160412
-0.00014576
-0.000144309
-0.000166826
-0.000124609
-0.000190508
-0.000101383
-0.00020754
-7.43887e-05
-0.000228104
-4.534e-05
-0.000233594
-1.70191e-05
-0.000221366
-0.000130836
-1.75988e-05
0.000139508
-4.68966e-05
0.0002365
-7.69405e-05
0.000250304
-0.000104906
0.000244586
-0.000129226
0.000224453
-0.000150075
0.000206878
-0.000167431
0.000183513
-0.000181506
0.000161801
-0.000192835
0.000139602
-0.000201761
0.000117593
-0.000208658
9.62234e-05
-0.00021387
7.54847e-05
-0.000217662
5.52878e-05
-0.00022024
3.55066e-05
-0.000221732
1.59797e-05
-0.000222187
-3.53152e-06
-0.000221572
-2.32869e-05
-0.00021977
-4.3506e-05
-0.000216572
-6.44276e-05
-0.000211669
-8.62828e-05
-0.000204638
-0.000109229
-0.000194988
-0.000133434
-0.000182235
-0.000158513
-0.000165542
-0.000183519
-0.000144419
-0.000211631
-0.000118678
-0.000233281
-8.78784e-05
-0.000258904
-5.3956e-05
-0.000267517
-2.03411e-05
-0.000254981
-0.000151177
-2.09656e-05
0.000160473
-5.55654e-05
0.0002711
-9.04488e-05
0.000285187
-0.000122207
0.000276344
-0.000149093
0.000251339
-0.000171456
0.000229242
-0.000189519
0.000201576
-0.000203684
0.000175966
-0.000214699
0.000150617
-0.000223112
0.000126006
-0.000229433
0.000102544
-0.000234113
8.01652e-05
-0.000237502
5.86763e-05
-0.000239857
3.7862e-05
-0.000241341
1.74636e-05
-0.000242022
-2.85032e-06
-0.000241876
-2.34329e-05
-0.000240775
-4.46069e-05
-0.00023848
-6.67229e-05
-0.000234623
-9.01397e-05
-0.000228681
-0.000115171
-0.000220006
-0.000142109
-0.000207871
-0.000170647
-0.000191113
-0.000200278
-0.000168912
-0.000233831
-0.000140623
-0.00026157
-0.000105425
-0.000294103
-6.53986e-05
-0.000307543
-2.48239e-05
-0.000295555
-0.000176001
-2.5488e-05
0.000185961
-6.69871e-05
0.000312599
-0.000107864
0.000326064
-0.000143985
0.000312465
-0.000173508
0.000280862
-0.000197095
0.000252829
-0.000215376
0.000219858
-0.000229063
0.000189652
-0.000239194
0.000160749
-0.000246576
0.000133387
-0.000251885
0.000107854
-0.000255687
8.39675e-05
-0.000258416
6.14053e-05
-0.000260384
3.98299e-05
-0.000261788
1.88671e-05
-0.000262722
-1.9162e-06
-0.000263175
-2.29792e-05
-0.000263021
-4.47617e-05
-0.000262001
-6.77427e-05
-0.000259704
-9.2437e-05
-0.000255515
-0.00011936
-0.000248624
-0.000149
-0.000238003
-0.000181268
-0.000222078
-0.000216203
-0.000199536
-0.000256373
-0.000168965
-0.000292141
-0.000128831
-0.000334237
-8.11114e-05
-0.000355262
-3.11475e-05
-0.000345519
-0.000207149
-3.1817e-05
0.000217778
-8.25122e-05
0.000363294
-0.000130854
0.000374405
-0.00017186
0.000353471
-0.000203839
0.000312841
-0.000228022
0.000277012
-0.000245702
0.000237537
-0.000258053
0.000202004
-0.0002665
0.000169196
-0.000272159
0.000139046
-0.000275893
0.000111587
-0.00027838
8.64544e-05
-0.000280134
6.31597e-05
-0.000281513
4.12094e-05
-0.000282743
2.0097e-05
-0.000283945
-7.14775e-07
-0.00028513
-2.17937e-05
-0.000286189
-4.3703e-05
-0.000286869
-6.70623e-05
-0.000286744
-9.25621e-05
-0.000285146
-0.000120959
-0.000281128
-0.000153018
-0.000273333
-0.000189063
-0.000259694
-0.000229842
-0.000238211
-0.000277856
-0.00020624
-0.000324111
-0.000160954
-0.000379523
-0.00010359
-0.000412627
-4.06117e-05
-0.000408497
-0.00024776
-4.11349e-05
0.000258913
-0.000104381
0.00042654
-0.000161992
0.000432016
-0.000208157
0.000399636
-0.000241903
0.000346587
-0.000265485
0.000300594
-0.00028124
0.000253292
-0.000290997
0.000211761
-0.00029668
0.000174879
-0.000299728
0.000142095
-0.000301194
0.000113052
-0.000301852
8.71124e-05
-0.000302266
6.35739e-05
-0.000302818
4.17616e-05
-0.000303754
2.10329e-05
-0.000305215
7.463e-07
-0.000307251
-1.97581e-05
-0.000309786
-4.11676e-05
-0.000312613
-6.42355e-05
-0.000315345
-8.98301e-05
-0.000317333
-0.000118971
-0.000317571
-0.00015278
-0.000314432
-0.000192202
-0.000305324
-0.00023895
-0.000287376
-0.000295804
-0.000256107
-0.00035538
-0.000206403
-0.000429227
-0.000137309
-0.000481721
-5.58607e-05
-0.000489945
-0.000303621
-5.57434e-05
0.000314657
-0.000136448
0.000507245
-0.00020527
0.000500838
-0.000256149
0.000450515
-0.000290015
0.000380453
-0.000310864
0.000321443
-0.000322627
0.000265055
-0.000328022
0.000217156
-0.000329523
0.000176379
-0.000328871
0.000141443
-0.000327257
0.000111438
-0.000325504
8.53591e-05
-0.000324173
6.22424e-05
-0.000323634
4.1223e-05
-0.00032413
2.1529e-05
-0.000325813
2.42942e-06
-0.000328774
-1.67969e-05
-0.000333002
-3.69402e-05
-0.000338385
-5.8852e-05
-0.000344663
-8.35527e-05
-0.000351322
-0.000112312
-0.00035745
-0.000146652
-0.00036135
-0.000188301
-0.000360053
-0.000240247
-0.00034979
-0.000306067
-0.000323563
-0.000381607
-0.000272482
-0.000480308
-0.00019039
-0.000563813
-8.24919e-05
-0.000597843
-0.000386113
-8.03608e-05
0.000395018
-0.000185475
0.000612359
-0.000266703
0.000582065
-0.000320015
0.000503828
-0.000350513
0.000410951
-0.000364988
0.000335917
-0.000369637
0.000269704
-0.000368242
0.000215762
-0.000363755
0.000171892
-0.000358112
0.0001358
-0.000352517
0.000105844
-0.000347731
8.05727e-05
-0.000344231
5.8742e-05
-0.000342318
3.93106e-05
-0.000342194
2.14048e-05
-0.000344007
4.24245e-06
-0.000347879
-1.29247e-05
-0.000353896
-3.09233e-05
-0.000362107
-5.0641e-05
-0.000372477
-7.31831e-05
-0.000384796
-9.99922e-05
-0.000398501
-0.000132947
-0.000412212
-0.000174591
-0.000423119
-0.00022934
-0.000426932
-0.000302254
-0.000413816
-0.000394723
-0.00036937
-0.000524754
-0.000276816
-0.000656367
-0.000132141
-0.000742519
-0.000518254
-0.000124757
0.000519775
-0.000262516
0.000750118
-0.000353354
0.000672904
-0.000402211
0.000552685
-0.00042212
0.000430859
-0.000423987
0.000337784
-0.000416767
0.000262485
-0.000405229
0.000204223
-0.000392468
0.000159131
-0.000380308
0.000123641
-0.000369725
9.52606e-05
-0.000361236
7.20834e-05
-0.000355108
5.26138e-05
-0.000351487
3.56897e-05
-0.00035048
2.03976e-05
-0.000352194
5.95721e-06
-0.000356775
-8.34412e-06
-0.000364423
-2.32751e-05
-0.000375389
-3.96751e-05
-0.000389957
-5.86155e-05
-0.0004084
-8.15484e-05
-0.000430854
-0.000110493
-0.000456842
-0.000148603
-0.000484727
-0.000201454
-0.000510911
-0.00027607
-0.000523867
-0.000381768
-0.000502886
-0.000545736
-0.000413499
-0.000745754
-0.000224975
-0.000931042
-0.000743229
-0.000207987
0.000727763
-0.000377498
0.000919629
-0.000459744
0.00075515
-0.000484777
0.000577718
-0.000478437
0.000424519
-0.000456366
0.000315713
-0.000429623
0.000235742
-0.000403021
0.000177621
-0.000378882
0.000134992
-0.000358245
0.000103004
-0.000341415
7.84307e-05
-0.000328375
5.90429e-05
-0.00031899
4.32294e-05
-0.000313135
2.98343e-05
-0.000310746
1.80083e-05
-0.000311822
7.03358e-06
-0.000316493
-3.67372e-06
-0.000325082
-1.46854e-05
-0.000338
-2.67573e-05
-0.000355869
-4.07469e-05
-0.000379558
-5.78593e-05
-0.000410149
-7.99018e-05
-0.000448664
-0.000110087
-0.000495869
-0.00015425
-0.00055107
-0.000220868
-0.000604827
-0.000328011
-0.000633529
-0.000517034
-0.000581477
-0.000797806
-0.000369732
-0.00114279
-0.00111296
-0.000342682
0.00107044
-0.000478696
0.00105564
-0.000484625
0.000761079
-0.000434656
0.000527748
-0.000369102
0.000358965
-0.000303236
0.000249847
-0.000245278
0.000177783
-0.000196862
0.000129206
-0.000157469
9.55986e-05
-0.000126066
7.16018e-05
-0.000101548
5.39118e-05
-8.29409e-05
4.04362e-05
-6.94776e-05
2.97662e-05
-6.05945e-05
2.09513e-05
-5.59501e-05
1.33639e-05
-5.5409e-05
6.49251e-06
-5.89258e-05
-1.57006e-07
-6.69044e-05
-6.70676e-06
-7.97826e-05
-1.38791e-05
-9.84163e-05
-2.21132e-05
-0.000124061
-3.2215e-05
-0.000158607
-4.53551e-05
-0.00020478
-6.39144e-05
-0.0002662
-9.28307e-05
-0.000346964
-0.000140104
-0.000446125
-0.00022885
-0.000550173
-0.000412986
-0.000591918
-0.000756061
-0.000471512
-0.00126319
-0.00158447
-0.00030864
0.00137908
-0.0001529
0.000899903
0.000102212
0.000505966
0.000309869
0.000320091
0.000474605
0.000194229
0.000600227
0.000124225
0.000694574
8.34361e-05
0.000765646
5.8134e-05
0.000819353
4.18917e-05
0.000860087
3.08674e-05
0.00089097
2.3029e-05
0.000914151
1.7255e-05
0.000931112
1.28055e-05
0.000942868
9.19537e-06
0.000950075
6.15637e-06
0.000953075
3.49267e-06
0.000951926
9.9204e-07
0.000946688
-1.46851e-06
0.000936842
-4.03348e-06
0.000921655
-6.92626e-06
0.00089988
-1.04394e-05
0.000869494
-1.49692e-05
0.000827042
-2.14628e-05
0.000766639
-3.24276e-05
0.0006798
-5.32643e-05
0.000547993
-9.70434e-05
0.000356825
-0.000221818
8.80649e-05
-0.000487301
-8.69998e-05
-0.00108813
-0.00167147
0.00137908
0.00227899
0.00278495
0.00310505
0.00329927
0.0034235
0.00350694
0.00356507
0.00360696
0.00363783
0.00366086
0.00367811
0.00369092
0.00370011
0.00370627
0.00370976
0.00371075
0.00370929
0.00370525
0.00369833
0.00368789
0.00367292
0.00365146
0.00361903
0.00356576
0.00346872
0.0032469
0.0027596
0.00167147
)
;

boundaryField
{
    movingWall
    {
        type            calculated;
        value           uniform 0;
    }
    fixedWalls
    {
        type            calculated;
        value           uniform 0;
    }
    frontAndBack
    {
        type            empty;
        value           nonuniform 0();
    }
}


// ************************************************************************* //
