/*--------------------------------*- C++ -*----------------------------------*\
  =========                 |
  \\      /  F ield         | OpenFOAM: The Open Source CFD Toolbox
   \\    /   O peration     | Website:  https://openfoam.org
    \\  /    A nd           | Version:  7
     \\/     M anipulation  |
\*---------------------------------------------------------------------------*/
FoamFile
{
    version     2.0;
    format      ascii;
    class       volVectorField;
    location    "0.3";
    object      U;
}
// * * * * * * * * * * * * * * * * * * * * * * * * * * * * * * * * * * * * * //

dimensions      [0 1 -1 0 0 0 0];

internalField   nonuniform List<vector> 
900
(
(0.000992156 0.000196521 0)
(-0.00173335 -3.3365e-06 0)
(0.000225732 0.000381873 0)
(-0.00291706 0.000113592 0)
(-0.00126991 0.000321763 0)
(-0.00369467 0.000159717 0)
(-0.00288531 0.000251155 0)
(-0.00424036 0.000169982 0)
(-0.00426964 0.000181559 0)
(-0.00476776 0.000155848 0)
(-0.00512622 0.000126293 0)
(-0.00539208 0.000101622 0)
(-0.00560319 7.58468e-05 0)
(-0.00574724 4.63112e-05 0)
(-0.00582568 1.71769e-05 0)
(-0.00583413 -1.01514e-05 0)
(-0.00576975 -3.9009e-05 0)
(-0.00563765 -6.88996e-05 0)
(-0.00544071 -9.60891e-05 0)
(-0.00519642 -0.00012032 0)
(-0.00485949 -0.000151077 0)
(-0.00427835 -0.000183906 0)
(-0.00442301 -0.000159799 0)
(-0.00280758 -0.000263301 0)
(-0.00395095 -0.000150512 0)
(-0.00108671 -0.000361228 0)
(-0.00316732 -0.000112569 0)
(0.000498636 -0.000435954 0)
(-0.00189586 3.53667e-05 0)
(0.00119966 -0.000187103 0)
(0.00297936 0.000685364 0)
(-0.00400083 0.000552607 0)
(0.000892403 0.00136187 0)
(-0.00553918 0.000833999 0)
(-0.00201091 0.00119965 0)
(-0.0065785 0.000854012 0)
(-0.00493643 0.000973816 0)
(-0.00735807 0.000781231 0)
(-0.00737291 0.000744117 0)
(-0.00821211 0.000642748 0)
(-0.00881783 0.000532208 0)
(-0.00926574 0.000423148 0)
(-0.00962248 0.000310707 0)
(-0.0098647 0.000192355 0)
(-0.00999473 7.14913e-05 0)
(-0.0100064 -4.7702e-05 0)
(-0.00989449 -0.000167376 0)
(-0.00966775 -0.000287857 0)
(-0.00933132 -0.000404292 0)
(-0.00891405 -0.000514643 0)
(-0.00833694 -0.000631606 0)
(-0.00735809 -0.0007474 0)
(-0.00764673 -0.000766284 0)
(-0.00475438 -0.00100188 0)
(-0.0070227 -0.000844792 0)
(-0.00164052 -0.00128045 0)
(-0.0060988 -0.000830592 0)
(0.00141748 -0.00146226 0)
(-0.00459512 -0.000483584 0)
(0.00357078 -0.000667236 0)
(0.0038228 0.00123684 0)
(-0.00487003 0.00170313 0)
(0.00112526 0.00248703 0)
(-0.00640683 0.00205583 0)
(-0.00225974 0.00228473 0)
(-0.00747661 0.00194614 0)
(-0.00557776 0.00192719 0)
(-0.00831036 0.00169046 0)
(-0.00831576 0.00152912 0)
(-0.00925487 0.00132445 0)
(-0.00993035 0.00110712 0)
(-0.0104312 0.000880013 0)
(-0.0108271 0.000641782 0)
(-0.0110979 0.000396416 0)
(-0.0112453 0.000147413 0)
(-0.0112565 -0.000101859 0)
(-0.0111289 -0.000351292 0)
(-0.0108764 -0.000600339 0)
(-0.0105015 -0.000844444 0)
(-0.0100343 -0.00107903 0)
(-0.00939003 -0.00130783 0)
(-0.00829372 -0.00152413 0)
(-0.00862686 -0.00168253 0)
(-0.00536745 -0.00195717 0)
(-0.00797844 -0.00195443 0)
(-0.0018414 -0.00236715 0)
(-0.00708573 -0.00207081 0)
(0.0017195 -0.00259671 0)
(-0.00565819 -0.00168189 0)
(0.00457153 -0.00125047 0)
(0.00396626 0.00181819 0)
(-0.00514059 0.00293454 0)
(0.00112069 0.00359878 0)
(-0.00672668 0.00331867 0)
(-0.00241299 0.00337124 0)
(-0.00783664 0.00307556 0)
(-0.00587177 0.00290625 0)
(-0.00871018 0.00263053 0)
(-0.00872703 0.00234494 0)
(-0.00970309 0.00203754 0)
(-0.0104041 0.00170596 0)
(-0.0109293 0.00135481 0)
(-0.0113458 0.000986979 0)
(-0.0116269 0.000609498 0)
(-0.0117779 0.000227959 0)
(-0.0117904 -0.000156606 0)
(-0.011661 -0.00054374 0)
(-0.0113995 -0.000928072 0)
(-0.0110074 -0.0013028 0)
(-0.0105185 -0.00166436 0)
(-0.00984663 -0.00201074 0)
(-0.00870994 -0.00233136 0)
(-0.00904546 -0.00263108 0)
(-0.00566255 -0.00293261 0)
(-0.0083608 -0.00309798 0)
(-0.00197921 -0.00344664 0)
(-0.00742696 -0.00335375 0)
(0.00175538 -0.00370387 0)
(-0.00594539 -0.00295965 0)
(0.00475547 -0.00185458 0)
(0.00392915 0.00247258 0)
(-0.00523415 0.00418414 0)
(0.00103826 0.00477438 0)
(-0.00694104 0.00461866 0)
(-0.00259167 0.00451006 0)
(-0.00812521 0.00423482 0)
(-0.0061649 0.00392206 0)
(-0.00906137 0.00359594 0)
(-0.00910737 0.00318849 0)
(-0.0101076 0.00277322 0)
(-0.0108404 0.00232122 0)
(-0.0113883 0.00184075 0)
(-0.0118183 0.00134252 0)
(-0.0121083 0.000832088 0)
(-0.0122661 0.000312292 0)
(-0.0122828 -0.00021394 0)
(-0.0121513 -0.000741425 0)
(-0.0118804 -0.0012622 0)
(-0.0114745 -0.0017708 0)
(-0.0109677 -0.00226543 0)
(-0.0102676 -0.00273656 0)
(-0.00910975 -0.00316813 0)
(-0.00941494 -0.0036048 0)
(-0.00596515 -0.00394937 0)
(-0.00867022 -0.00427857 0)
(-0.00215716 -0.0045875 0)
(-0.00764283 -0.00468546 0)
(0.00169742 -0.00488778 0)
(-0.00602075 -0.00425014 0)
(0.00472053 -0.00252042 0)
(0.00388639 0.00318763 0)
(-0.00529917 0.00546407 0)
(0.00092865 0.00603341 0)
(-0.00715861 0.00596572 0)
(-0.00283544 0.00571293 0)
(-0.00845968 0.0054397 0)
(-0.00653538 0.00499008 0)
(-0.00947584 0.00460211 0)
(-0.00958237 0.00407042 0)
(-0.0106058 0.00353651 0)
(-0.0113741 0.0029601 0)
(-0.0119473 0.00234947 0)
(-0.0123949 0.00171553 0)
(-0.0126985 0.00106396 0)
(-0.0128658 0.000399559 0)
(-0.0128859 -0.000271929 0)
(-0.0127504 -0.000943295 0)
(-0.012469 -0.00160633 0)
(-0.0120493 -0.00225599 0)
(-0.0115211 -0.00288939 0)
(-0.0107836 -0.00349047 0)
(-0.00961089 -0.00404145 0)
(-0.00985559 -0.00461571 0)
(-0.0063585 -0.00502064 0)
(-0.00902606 -0.00551005 0)
(-0.00240908 -0.00580276 0)
(-0.0078751 -0.0060732 0)
(0.00158783 -0.0061617 0)
(-0.00607844 -0.00556162 0)
(0.00467533 -0.00324023 0)
(0.00386541 0.00395317 0)
(-0.00537973 0.00679144 0)
(0.000783229 0.00738212 0)
(-0.0074202 0.00737135 0)
(-0.00314715 0.00699015 0)
(-0.0088579 0.00670422 0)
(-0.00700613 0.0061206 0)
(-0.00998656 0.00565355 0)
(-0.010177 0.00499544 0)
(-0.011223 0.00433795 0)
(-0.0120328 0.00363186 0)
(-0.0126384 0.00288344 0)
(-0.0131094 0.00210574 0)
(-0.01343 0.00130646 0)
(-0.0136078 0.00049233 0)
(-0.0136315 -0.000329512 0)
(-0.0134914 -0.00115109 0)
(-0.0131987 -0.00196438 0)
(-0.0127629 -0.00276297 0)
(-0.0122072 -0.00354083 0)
(-0.0114241 -0.00427835 0)
(-0.0102402 -0.00495922 0)
(-0.0103967 -0.0056737 0)
(-0.00686321 -0.00615536 0)
(-0.00945654 -0.00680161 0)
(-0.00274341 -0.00710204 0)
(-0.00815715 -0.00752727 0)
(0.00143584 -0.0075353 0)
(-0.00616575 -0.00692044 0)
(0.00465251 -0.00401064 0)
(0.00386009 0.00476713 0)
(-0.00548244 0.00818484 0)
(0.000611723 0.00883173 0)
(-0.00772741 0.00886143 0)
(-0.00353217 0.008362 0)
(-0.0093353 0.00804044 0)
(-0.00758627 0.00732248 0)
(-0.0106029 0.00676431 0)
(-0.0108978 0.00597686 0)
(-0.0119702 0.0051866 0)
(-0.0128294 0.00434114 0)
(-0.013474 0.00344592 0)
(-0.0139725 0.00251724 0)
(-0.0143125 0.00156366 0)
(-0.0145025 0.000592682 0)
(-0.0145301 -0.000386793 0)
(-0.0143859 -0.00136613 0)
(-0.0140816 -0.00233803 0)
(-0.0136265 -0.00329415 0)
(-0.0130369 -0.00422449 0)
(-0.0122022 -0.00510799 0)
(-0.0110077 -0.00593104 0)
(-0.0110505 -0.00679082 0)
(-0.00748803 -0.00736637 0)
(-0.00997539 -0.00816735 0)
(-0.00316571 -0.0084992 0)
(-0.00850111 -0.00906635 0)
(0.00124164 -0.00902324 0)
(-0.00629063 -0.00835723 0)
(0.00464633 -0.00483945 0)
(0.00386403 0.00563679 0)
(-0.00561123 0.00967494 0)
(0.000405652 0.0104045 0)
(-0.00809279 0.0104567 0)
(-0.00400055 0.00984161 0)
(-0.00990328 0.0094657 0)
(-0.00828175 0.0086117 0)
(-0.0113339 0.00794812 0)
(-0.011754 0.00702365 0)
(-0.0128589 0.00608821 0)
(-0.0137737 0.00509296 0)
(-0.0144623 0.00404244 0)
(-0.0149917 0.00295484 0)
(-0.0153546 0.00183873 0)
(-0.0155584 0.000702165 0)
(-0.0155904 -0.000443742 0)
(-0.0154427 -0.00158971 0)
(-0.0151268 -0.002729 0)
(-0.0146495 -0.00385153 0)
(-0.014021 -0.00494419 0)
(-0.0131304 -0.00598568 0)
(-0.0119243 -0.0069647 0)
(-0.0118302 -0.00797797 0)
(-0.00824167 -0.00866695 0)
(-0.0105931 -0.00962471 0)
(-0.00368187 -0.0100106 0)
(-0.00891529 -0.0107128 0)
(0.00100225 -0.0106414 0)
(-0.006453 -0.00989917 0)
(0.00464949 -0.00573886 0)
(0.00387037 0.00657382 0)
(-0.00577372 0.0112816 0)
(0.000152095 0.0121149 0)
(-0.00852912 0.012177 0)
(-0.0045609 0.0114457 0)
(-0.0105719 0.0109987 0)
(-0.009103 0.0100022 0)
(-0.0121929 0.00921537 0)
(-0.0127568 0.00814352 0)
(-0.0139009 0.00704984 0)
(-0.0148753 0.00589366 0)
(-0.0156122 0.00467776 0)
(-0.0161762 0.00342131 0)
(-0.0165652 0.00213326 0)
(-0.016785 0.000822177 0)
(-0.0168219 -0.000499346 0)
(-0.0166712 -0.00182183 0)
(-0.0163435 -0.00313843 0)
(-0.0158417 -0.00443788 0)
(-0.015171 -0.00570543 0)
(-0.0142224 -0.00691888 0)
(-0.0130014 -0.00806867 0)
(-0.0127506 -0.00924534 0)
(-0.00913734 -0.0100686 0)
(-0.011324 -0.0111909 0)
(-0.00430113 -0.0116541 0)
(-0.00940731 -0.0124911 0)
(0.000714291 -0.0124097 0)
(-0.00665119 -0.0115727 0)
(0.00465781 -0.00672287 0)
(0.00387562 0.00759417 0)
(-0.00597266 0.0130284 0)
(-0.000154842 0.0139832 0)
(-0.00904461 0.0140461 0)
(-0.00522376 0.0131932 0)
(-0.0113547 0.0126562 0)
(-0.010064 0.0115059 0)
(-0.0131947 0.0105766 0)
(-0.0139185 0.00934538 0)
(-0.0151088 0.00807944 0)
(-0.0161459 0.00674952 0)
(-0.0169347 0.00535622 0)
(-0.0175362 0.00391925 0)
(-0.0179537 0.00244857 0)
(-0.018191 0.000953505 0)
(-0.0182344 -0.000553178 0)
(-0.0180818 -0.00206276 0)
(-0.0177429 -0.00356715 0)
(-0.0172166 -0.00505404 0)
(-0.0165018 -0.00651016 0)
(-0.0154934 -0.00791206 0)
(-0.0142523 -0.00925125 0)
(-0.0138276 -0.0106055 0)
(-0.0101905 -0.0115855 0)
(-0.0121845 -0.0128847 0)
(-0.00503676 -0.0134488 0)
(-0.0099877 -0.0144281 0)
(0.000371541 -0.0143527 0)
(-0.00688537 -0.0134058 0)
(0.00466884 -0.00780634 0)
(0.00387874 0.00871624 0)
(-0.00620922 0.0149452 0)
(-0.000521853 0.0160365 0)
(-0.00965039 0.0160895 0)
(-0.00600393 0.0151036 0)
(-0.0122686 0.0144552 0)
(-0.0111812 0.0131357 0)
(-0.0143559 0.0120425 0)
(-0.0152529 0.0106367 0)
(-0.0164968 0.00918232 0)
(-0.0175986 0.00766397 0)
(-0.0184425 0.00608033 0)
(-0.0190838 0.00445088 0)
(-0.019531 0.0027867 0)
(-0.0197867 0.00109809 0)
(-0.0198382 -0.000603019 0)
(-0.0196852 -0.00231038 0)
(-0.0193348 -0.00401483 0)
(-0.0187848 -0.00570176 0)
(-0.0180288 -0.00736022 0)
(-0.0169634 -0.00896741 0)
(-0.0156966 -0.0105173 0)
(-0.0150819 -0.0120685 0)
(-0.0114206 -0.013232 0)
(-0.0131938 -0.0147269 0)
(-0.00590652 -0.015418 0)
(-0.0106713 -0.0165546 0)
(-3.65623e-05 -0.0165007 0)
(-0.00715947 -0.0154301 0)
(0.00468029 -0.00900573 0)
(0.00387845 0.00996 0)
(-0.00648778 0.0170643 0)
(-0.000959889 0.0183047 0)
(-0.0103619 0.0183351 0)
(-0.0069201 0.017199 0)
(-0.0133337 0.0164154 0)
(-0.0124749 0.0149065 0)
(-0.0156967 0.0136242 0)
(-0.0167776 0.0120245 0)
(-0.0180814 0.0103628 0)
(-0.019248 0.008639 0)
(-0.0201478 0.00685115 0)
(-0.0208298 0.00501754 0)
(-0.0213065 0.00314914 0)
(-0.0215808 0.0012572 0)
(-0.0216428 -0.000647311 0)
(-0.0214936 -0.00256152 0)
(-0.0211344 -0.00447769 0)
(-0.020562 -0.00638021 0)
(-0.0197672 -0.00825784 0)
(-0.0186505 -0.0100883 0)
(-0.0173552 -0.0118708 0)
(-0.0165389 -0.0136421 0)
(-0.0128537 -0.0150212 0)
(-0.0143776 -0.0167387 0)
(-0.0069347 -0.0175886 0)
(-0.0114784 -0.0189061 0)
(-0.000525325 -0.0188902 0)
(-0.00748144 -0.0176822 0)
(0.00468947 -0.0103414 0)
(0.00387298 0.0113482 0)
(-0.00681527 0.0194223 0)
(-0.00148292 0.0208229 0)
(-0.0111982 0.0208151 0)
(-0.00799522 0.0195049 0)
(-0.0145743 0.0185573 0)
(-0.0139702 0.0168324 0)
(-0.0172412 0.0153314 0)
(-0.0185132 0.0135145 0)
(-0.019882 0.0116242 0)
(-0.0211105 0.00967537 0)
(-0.0220639 0.00766789 0)
(-0.0227858 0.00561846 0)
(-0.0232913 0.00353621 0)
(-0.0235832 0.00143178 0)
(-0.0236569 -0.000685406 0)
(-0.0235156 -0.00281492 0)
(-0.0231536 -0.00495148 0)
(-0.022565 -0.00708268 0)
(-0.0217366 -0.00919769 0)
(-0.0205765 -0.0112734 0)
(-0.0192523 -0.0133139 0)
(-0.0182284 -0.0153335 0)
(-0.014523 -0.0169661 0)
(-0.015769 -0.0189419 0)
(-0.00815367 -0.0199894 0)
(-0.0124361 -0.0215219 0)
(-0.0011155 -0.0215644 0)
(-0.007863 -0.0202069 0)
(0.00469331 -0.0118397 0)
(0.0038601 0.0129081 0)
(-0.00720104 0.0220643 0)
(-0.00210908 0.0236345 0)
(-0.0121842 0.023568 0)
(-0.00925956 0.0220503 0)
(-0.0160216 0.0209015 0)
(-0.0156981 0.0189255 0)
(-0.0190183 0.0171696 0)
(-0.0204838 0.0151074 0)
(-0.0219202 0.0129647 0)
(-0.0232044 0.0107703 0)
(-0.0242047 0.00852685 0)
(-0.0249615 0.00625006 0)
(-0.0254932 0.00394637 0)
(-0.0258024 0.0016237 0)
(-0.0258895 -0.000712784 0)
(-0.0257598 -0.00306544 0)
(-0.0254022 -0.00543077 0)
(-0.0248082 -0.0078017 0)
(-0.0239577 -0.0101708 0)
(-0.022767 -0.0125156 0)
(-0.0214172 -0.0148433 0)
(-0.0201866 -0.0171456 0)
(-0.0164691 -0.0190775 0)
(-0.0174095 -0.0213577 0)
(-0.00960585 -0.0226522 0)
(-0.0135806 -0.0244468 0)
(-0.00183457 -0.0245756 0)
(-0.00831973 -0.0230591 0)
(0.00468833 -0.0135346 0)
(0.0038367 0.0146733 0)
(-0.00765888 0.0250462 0)
(-0.00286407 0.0267931 0)
(-0.0133546 0.0266391 0)
(-0.010754 0.0248676 0)
(-0.0177168 0.0234697 0)
(-0.0176988 0.0211968 0)
(-0.0210634 0.0191411 0)
(-0.0227171 0.0167993 0)
(-0.0242188 0.0143776 0)
(-0.0255484 0.0119167 0)
(-0.0265842 0.00942177 0)
(-0.0273663 0.00690697 0)
(-0.0279177 0.00437582 0)
(-0.0282424 0.00183234 0)
(-0.0283461 -0.000725265 0)
(-0.0282336 -0.0033045 0)
(-0.0278899 -0.00590498 0)
(-0.027305 -0.00852546 0)
(-0.0264504 -0.0111639 0)
(-0.0252495 -0.013802 0)
(-0.023884 -0.0164485 0)
(-0.0224577 -0.0190746 0)
(-0.0187435 -0.0213622 0)
(-0.0193529 -0.0240066 0)
(-0.0113473 -0.0256124 0)
(-0.0149607 -0.0277337 0)
(-0.00271962 -0.027989 0)
(-0.00887246 -0.0263088 0)
(0.00467039 -0.01547 0)
(0.00379834 0.0166866 0)
(-0.00820916 0.0284375 0)
(-0.00378464 0.0303631 0)
(-0.014757 0.0300802 0)
(-0.0125327 0.0279915 0)
(-0.0197131 0.0262821 0)
(-0.0200228 0.0236543 0)
(-0.0234203 0.0212444 0)
(-0.0252466 0.0185813 0)
(-0.0268024 0.0158492 0)
(-0.0281603 0.0131006 0)
(-0.0292145 0.0103409 0)
(-0.0300075 0.00758058 0)
(-0.0305679 0.00481922 0)
(-0.0309035 0.00205603 0)
(-0.0310265 -0.000719375 0)
(-0.0309396 -0.00352221 0)
(-0.0306232 -0.00635846 0)
(-0.0300671 -0.00923463 0)
(-0.0292342 -0.0121558 0)
(-0.0280523 -0.0151108 0)
(-0.0266914 -0.0181105 0)
(-0.0250948 -0.021108 0)
(-0.0214111 -0.0238195 0)
(-0.0216696 -0.0269049 0)
(-0.0134533 -0.0289077 0)
(-0.0166436 -0.0314456 0)
(-0.00382286 -0.0318869 0)
(-0.00955073 -0.030047 0)
(0.00463393 -0.0177031 0)
(0.00373858 0.0190049 0)
(-0.00888137 0.0323276 0)
(-0.00492312 0.0344244 0)
(-0.0164573 0.0339519 0)
(-0.0146683 0.0314581 0)
(-0.0220782 0.0293542 0)
(-0.0227316 0.0262983 0)
(-0.0261413 0.0234692 0)
(-0.028112 0.0204355 0)
(-0.029699 0.0173571 0)
(-0.0310568 0.0142986 0)
(-0.0321044 0.0112638 0)
(-0.0328881 0.00825574 0)
(-0.0334424 0.00526805 0)
(-0.033781 0.00229261 0)
(-0.0339244 -0.000690659 0)
(-0.0338728 -0.00370655 0)
(-0.0336023 -0.0067711 0)
(-0.0331023 -0.00990191 0)
(-0.0323266 -0.0131142 0)
(-0.031205 -0.0164077 0)
(-0.0298825 -0.0197961 0)
(-0.0281606 -0.0232194 0)
(-0.0245524 -0.0264363 0)
(-0.0244514 -0.0300608 0)
(-0.016027 -0.0325757 0)
(-0.0187252 -0.0356566 0)
(-0.00522126 -0.0363748 0)
(-0.010399 -0.0343944 0)
(0.00457042 -0.0203104 0)
(0.00364749 0.0217047 0)
(-0.00971883 0.0368351 0)
(-0.0063549 0.0390794 0)
(-0.0185485 0.0383268 0)
(-0.0172597 0.0353061 0)
(-0.024901 0.0326954 0)
(-0.0259018 0.0291165 0)
(-0.0292882 0.025789 0)
(-0.0313587 0.0223286 0)
(-0.0329389 0.0188665 0)
(-0.0342537 0.0154769 0)
(-0.0352575 0.0121609 0)
(-0.0360034 0.00891018 0)
(-0.0365312 0.00570944 0)
(-0.0368623 0.00253924 0)
(-0.0370258 -0.000632459 0)
(-0.0370201 -0.00384174 0)
(-0.0368186 -0.00711765 0)
(-0.0364103 -0.0104923 0)
(-0.03574 -0.0139953 0)
(-0.0347352 -0.0176419 0)
(-0.0335039 -0.0214529 0)
(-0.0317286 -0.0253616 0)
(-0.0282667 -0.0291802 0)
(-0.0278194 -0.0334673 0)
(-0.0192107 -0.0366508 0)
(-0.021344 -0.0404538 0)
(-0.00703102 -0.0415896 0)
(-0.0114862 -0.0395152 0)
(0.00446546 -0.0233989 0)
(0.00350853 0.0248933 0)
(-0.0107878 0.0421209 0)
(-0.00819138 0.04446 0)
(-0.0211623 0.0432894 0)
(-0.020443 0.0395722 0)
(-0.0283005 0.0363031 0)
(-0.0296307 0.032079 0)
(-0.0329344 0.0281568 0)
(-0.0350349 0.0242069 0)
(-0.0365503 0.0203265 0)
(-0.0377624 0.0165906 0)
(-0.0386712 0.0129946 0)
(-0.0393398 0.00951512 0)
(-0.0398134 0.00612457 0)
(-0.040123 0.00278887 0)
(-0.0403056 -0.000539034 0)
(-0.0403581 -0.0039093 0)
(-0.0402529 -0.00736685 0)
(-0.03998 -0.0109609 0)
(-0.0394764 -0.01474 0)
(-0.0386637 -0.0187417 0)
(-0.0376024 -0.0230011 0)
(-0.0358814 -0.0274568 0)
(-0.0326749 -0.0319867 0)
(-0.0319323 -0.0370905 0)
(-0.0232029 -0.0411537 0)
(-0.0247036 -0.0459347 0)
(-0.00943143 -0.0477091 0)
(-0.0129234 -0.0456388 0)
(0.00429349 -0.0271248 0)
(0.00329273 0.028727 0)
(-0.0121943 0.0484086 0)
(-0.0106028 0.0507355 0)
(-0.02449 0.0489319 0)
(-0.0244043 0.0442788 0)
(-0.0324326 0.0401498 0)
(-0.0340392 0.0351289 0)
(-0.0371654 0.0304995 0)
(-0.0391899 0.0259913 0)
(-0.0405549 0.021663 0)
(-0.0415855 0.0175759 0)
(-0.0423331 0.0137132 0)
(-0.0428737 0.0100326 0)
(-0.0432574 0.00648943 0)
(-0.0435259 0.00303146 0)
(-0.0437241 -0.000405395 0)
(-0.043848 -0.00388808 0)
(-0.0438702 -0.00748035 0)
(-0.0437836 -0.0112509 0)
(-0.0435211 -0.0152716 0)
(-0.0429972 -0.0196096 0)
(-0.0422185 -0.0243261 0)
(-0.0407081 -0.0293842 0)
(-0.0379205 -0.0347427 0)
(-0.0369964 -0.0408475 0)
(-0.0282799 -0.0460718 0)
(-0.0291078 -0.0521967 0)
(-0.0127086 -0.0549647 0)
(-0.0148994 -0.0530952 0)
(0.00400533 -0.0317274 0)
(0.00294672 0.0334441 0)
(-0.0141135 0.0560157 0)
(-0.0138564 0.058125 0)
(-0.0288141 0.0553488 0)
(-0.0293992 0.0494201 0)
(-0.0374959 0.0441628 0)
(-0.0392702 0.0381626 0)
(-0.0420766 0.0327035 0)
(-0.0438727 0.0275688 0)
(-0.0449652 0.0227744 0)
(-0.0457119 0.0183493 0)
(-0.0462144 0.0142515 0)
(-0.0465634 0.0104159 0)
(-0.0468143 0.00677443 0)
(-0.0470176 0.00325384 0)
(-0.0472251 -0.000227984 0)
(-0.0474329 -0.0037561 0)
(-0.0476154 -0.00741502 0)
(-0.0477711 -0.0112951 0)
(-0.047835 -0.0154953 0)
(-0.0477185 -0.0201203 0)
(-0.0473755 -0.0252718 0)
(-0.0462927 -0.030965 0)
(-0.0441615 -0.0372607 0)
(-0.0432703 -0.0445704 0)
(-0.0348231 -0.0513195 0)
(-0.0350159 -0.0593107 0)
(-0.017337 -0.0636516 0)
(-0.0177592 -0.0623724 0)
(0.00349816 -0.0375991 0)
(0.00236486 0.0394265 0)
(-0.01685 0.0654015 0)
(-0.0183785 0.0669059 0)
(-0.0345554 0.0626196 0)
(-0.0357792 0.0549358 0)
(-0.0437427 0.048197 0)
(-0.0454843 0.041005 0)
(-0.0477609 0.0345954 0)
(-0.0491183 0.0287858 0)
(-0.0497717 0.0235302 0)
(-0.0501055 0.0188055 0)
(-0.0502638 0.0145305 0)
(-0.0503478 0.0106084 0)
(-0.0504163 0.00694296 0)
(-0.0505252 0.00343776 0)
(-0.0507309 -6.69955e-06 0)
(-0.0510316 -0.00349282 0)
(-0.0514055 -0.00712565 0)
(-0.0518603 -0.0110184 0)
(-0.0523427 -0.0153005 0)
(-0.0527703 -0.0201208 0)
(-0.0530573 -0.025635 0)
(-0.052689 -0.0319426 0)
(-0.0515479 -0.0392405 0)
(-0.0510582 -0.047949 0)
(-0.0433482 -0.0566683 0)
(-0.043128 -0.0672594 0)
(-0.0241232 -0.074121 0)
(-0.0221645 -0.0742049 0)
(0.00254346 -0.0454333 0)
(0.00132283 0.047326 0)
(-0.0209634 0.0772407 0)
(-0.024863 0.0774041 0)
(-0.0423356 0.070756 0)
(-0.0440139 0.0606543 0)
(-0.0514748 0.0519906 0)
(-0.0528385 0.0433813 0)
(-0.0542767 0.0359262 0)
(-0.0549164 0.0294355 0)
(-0.0549203 0.0237662 0)
(-0.0546852 0.0188182 0)
(-0.0543843 0.014457 0)
(-0.0541227 0.0105449 0)
(-0.0539556 0.0069527 0)
(-0.0539372 0.00356103 0)
(-0.0541249 0.000255522 0)
(-0.0545199 -0.00308064 0)
(-0.055108 -0.00656946 0)
(-0.0559123 -0.0103462 0)
(-0.0569025 -0.014571 0)
(-0.0580165 -0.0194369 0)
(-0.0591564 -0.0251629 0)
(-0.0598557 -0.0319647 0)
(-0.0601523 -0.040226 0)
(-0.0606564 -0.0504505 0)
(-0.0544971 -0.0616237 0)
(-0.0544694 -0.0757885 0)
(-0.034431 -0.0867001 0)
(-0.0294231 -0.0897106 0)
(0.000618151 -0.056561 0)
(-0.000675503 0.0583499 0)
(-0.0275274 0.0925286 0)
(-0.0344339 0.0899344 0)
(-0.0530172 0.0795852 0)
(-0.0546359 0.0661887 0)
(-0.0609407 0.05509 0)
(-0.0613621 0.0448726 0)
(-0.0615198 0.03635 0)
(-0.0610797 0.0292494 0)
(-0.0601779 0.0232837 0)
(-0.059195 0.0182453 0)
(-0.0583104 0.013931 0)
(-0.0576191 0.0101554 0)
(-0.0571611 0.00675673 0)
(-0.056978 0.00359645 0)
(-0.057123 0.000549376 0)
(-0.0576011 -0.00251053 0)
(-0.0584095 -0.00571643 0)
(-0.0595937 -0.00921949 0)
(-0.061157 -0.0132012 0)
(-0.0630752 -0.017889 0)
(-0.0652826 -0.023566 0)
(-0.0674352 -0.0305895 0)
(-0.0697196 -0.0395772 0)
(-0.0720851 -0.0512163 0)
(-0.0687895 -0.0652031 0)
(-0.0702762 -0.0840632 0)
(-0.0503755 -0.101381 0)
(-0.0420239 -0.110453 0)
(-0.00342773 -0.0736323 0)
(-0.0047206 0.0749536 0)
(-0.0385685 0.112666 0)
(-0.0486703 0.104587 0)
(-0.0673796 0.088486 0)
(-0.0676943 0.0707437 0)
(-0.0716752 0.0567214 0)
(-0.0702361 0.0448458 0)
(-0.0684747 0.0353938 0)
(-0.0664855 0.0278891 0)
(-0.0643672 0.021849 0)
(-0.0624333 0.0169285 0)
(-0.0608306 0.0128449 0)
(-0.0596197 0.0093654 0)
(-0.0588072 0.00630345 0)
(-0.0584093 0.00350907 0)
(-0.0584693 0.000851515 0)
(-0.0589946 -0.0017974 0)
(-0.0599951 -0.00457033 0)
(-0.0615402 -0.00761894 0)
(-0.0636727 -0.0111263 0)
(-0.0664282 -0.0153367 0)
(-0.0698314 -0.0205836 0)
(-0.073748 -0.0273583 0)
(-0.0785403 -0.0365054 0)
(-0.0838201 -0.0489968 0)
(-0.085218 -0.065664 0)
(-0.0906347 -0.0900465 0)
(-0.073877 -0.116922 0)
(-0.0635695 -0.137651 0)
(-0.0116325 -0.10161 0)
(-0.0129708 0.101913 0)
(-0.0571877 0.138619 0)
(-0.0679337 0.120215 0)
(-0.0833222 0.095565 0)
(-0.079335 0.0725812 0)
(-0.0787623 0.0554709 0)
(-0.0739003 0.0422744 0)
(-0.0692409 0.0323636 0)
(-0.0650543 0.0248967 0)
(-0.0613123 0.0191631 0)
(-0.0581735 0.0146715 0)
(-0.0556866 0.0110661 0)
(-0.0538372 0.00808206 0)
(-0.0525741 0.00552297 0)
(-0.0518758 0.00323872 0)
(-0.0517666 0.00110189 0)
(-0.052248 -0.00100776 0)
(-0.0533339 -0.00320041 0)
(-0.0551116 -0.00560797 0)
(-0.0576652 -0.00839508 0)
(-0.0611045 -0.0117961 0)
(-0.0655829 -0.0161484 0)
(-0.0712235 -0.0220054 0)
(-0.0786142 -0.0303425 0)
(-0.0875535 -0.0424716 0)
(-0.0953359 -0.0607166 0)
(-0.10791 -0.0903855 0)
(-0.0997044 -0.130174 0)
(-0.0937077 -0.171126 0)
(-0.0251326 -0.15019 0)
(-0.0275342 0.145302 0)
(-0.0818408 0.165863 0)
(-0.0788039 0.130105 0)
(-0.0805947 0.0949689 0)
(-0.0655299 0.0673687 0)
(-0.056212 0.048479 0)
(-0.0454234 0.0353233 0)
(-0.0364498 0.0261226 0)
(-0.0292389 0.0195729 0)
(-0.0233892 0.0147853 0)
(-0.0187553 0.0111867 0)
(-0.0151901 0.00839861 0)
(-0.0125515 0.00616067 0)
(-0.0107046 0.00429201 0)
(-0.0095732 0.00266409 0)
(-0.00914713 0.00117269 0)
(-0.00940225 -0.000273968 0)
(-0.0103405 -0.00176491 0)
(-0.0120557 -0.00337986 0)
(-0.0146588 -0.00524848 0)
(-0.0183072 -0.00754785 0)
(-0.0232562 -0.0105428 0)
(-0.0298355 -0.0147346 0)
(-0.0388591 -0.0210772 0)
(-0.0508574 -0.0311278 0)
(-0.064765 -0.0486266 0)
(-0.0865825 -0.0819422 0)
(-0.093076 -0.136822 0)
(-0.108837 -0.210326 0)
(-0.0335341 -0.235804 0)
(-0.0296132 0.238246 0)
(-0.0588989 0.18079 0)
(0.0018866 0.113321 0)
(0.0334598 0.0745361 0)
(0.0684632 0.0475405 0)
(0.0906785 0.0317367 0)
(0.108772 0.0219641 0)
(0.12243 0.0156303 0)
(0.132584 0.0114077 0)
(0.140313 0.00846835 0)
(0.146204 0.00634486 0)
(0.150653 0.00475918 0)
(0.153949 0.00352296 0)
(0.156313 0.00251303 0)
(0.157885 0.00165758 0)
(0.158725 0.000899503 0)
(0.15887 0.000182931 0)
(0.158351 -0.000539294 0)
(0.15711 -0.00129788 0)
(0.15504 -0.00216175 0)
(0.152002 -0.00321785 0)
(0.147717 -0.00458797 0)
(0.141788 -0.00656257 0)
(0.133371 -0.00982987 0)
(0.120993 -0.0156483 0)
(0.10419 -0.0277052 0)
(0.0743301 -0.0572581 0)
(0.0481833 -0.117902 0)
(-0.0262428 -0.231262 0)
(0.0130598 -0.317848 0)
(0.238197 0.161157 0)
(0.289207 0.110627 0)
(0.426088 0.0631497 0)
(0.496058 0.0379679 0)
(0.537163 0.0219451 0)
(0.562089 0.0130055 0)
(0.578608 0.0081618 0)
(0.590023 0.00538989 0)
(0.598114 0.0037363 0)
(0.604029 0.00268466 0)
(0.608437 0.00197306 0)
(0.611742 0.00147152 0)
(0.614208 0.00110167 0)
(0.616013 0.000810819 0)
(0.61728 0.000572015 0)
(0.618077 0.000372158 0)
(0.61844 0.000193125 0)
(0.6184 2.58638e-05 0)
(0.617947 -0.000141286 0)
(0.617035 -0.000318749 0)
(0.615598 -0.000526214 0)
(0.613497 -0.000783743 0)
(0.610452 -0.00113231 0)
(0.60606 -0.00172642 0)
(0.598594 -0.00308058 0)
(0.586999 -0.00527281 0)
(0.558922 -0.0139422 0)
(0.514608 -0.0332319 0)
(0.361053 -0.093782 0)
(0.282421 -0.162714 0)
)
;

boundaryField
{
    movingWall
    {
        type            fixedValue;
        value           uniform (1 0 0);
    }
    fixedWalls
    {
        type            noSlip;
    }
    frontAndBack
    {
        type            empty;
    }
}


// ************************************************************************* //
