/*--------------------------------*- C++ -*----------------------------------*\
  =========                 |
  \\      /  F ield         | OpenFOAM: The Open Source CFD Toolbox
   \\    /   O peration     | Website:  https://openfoam.org
    \\  /    A nd           | Version:  7
     \\/     M anipulation  |
\*---------------------------------------------------------------------------*/
FoamFile
{
    version     2.0;
    format      ascii;
    class       volScalarField;
    location    "8.5";
    object      p;
}
// * * * * * * * * * * * * * * * * * * * * * * * * * * * * * * * * * * * * * //

dimensions      [0 2 -2 0 0 0 0];

internalField   nonuniform List<scalar> 
900
(
7.66752e-07
-0.000148226
-0.000337321
-0.000506561
-0.000622625
-0.000666222
-0.000630221
-0.000513079
-0.000314883
-3.58742e-05
0.000323546
0.000761906
0.00127523
0.00185543
0.00248888
0.00315537
0.00382802
0.00447411
0.00505756
0.00554249
0.00589785
0.00610232
0.00614867
0.00604633
0.00582246
0.00552024
0.00518288
0.00488591
0.00467848
0.00462248
0.000148562
-4.29154e-06
-0.000137933
-0.000248102
-0.000314818
-0.000323712
-0.00026862
-0.000147026
4.22772e-05
0.000299866
0.000625592
0.00101794
0.00147298
0.00198323
0.00253649
0.00311488
0.00369637
0.004253
0.00475482
0.00517242
0.00548077
0.00566333
0.00571555
0.00564675
0.00548025
0.0052512
0.00500082
0.00477261
0.00461298
0.00456367
0.000347108
0.00012443
-1.27368e-05
-0.000108056
-0.000157709
-0.000152691
-9.00176e-05
3.1386e-05
0.00021247
0.000454129
0.000756842
0.00111994
0.00154061
0.0020127
0.00252562
0.00306412
0.00360711
0.00412872
0.00460059
0.0049944
0.00528576
0.00545838
0.0055076
0.00544236
0.00528486
0.00506795
0.00483032
0.00461167
0.00444804
0.00436811
0.000529198
0.00022359
6.37671e-05
-3.37364e-05
-7.92413e-05
-6.93856e-05
-5.17823e-06
0.000112214
0.000283008
0.000508352
0.00078964
0.00112761
0.00152122
0.00196633
0.00245441
0.00297166
0.00349851
0.00400949
0.00447569
0.00486734
0.00515795
0.00532896
0.0053738
0.0053003
0.00513042
0.00489711
0.00463932
0.00439726
0.00420377
0.00406979
0.000647523
0.000257675
6.95375e-05
-3.76341e-05
-8.62857e-05
-7.79845e-05
-1.75674e-05
9.15668e-05
0.000248912
0.000455981
0.000715342
0.00102954
0.00139977
0.00182441
0.00229726
0.00280615
0.00333318
0.00385217
0.00433253
0.00474121
0.00504745
0.0052281
0.00527279
0.00518705
0.0049926
0.00472396
0.00442302
0.00413396
0.00389009
0.00368803
0.000661084
0.000191437
-2.69e-05
-0.000148275
-0.000205586
-0.000204578
-0.00015344
-5.74918e-05
8.22428e-05
0.000267837
0.000503294
0.000793315
0.00114183
0.00155024
0.00201517
0.00252636
0.00306874
0.00361427
0.00412992
0.00457795
0.00492103
0.0051288
0.00518435
0.00508896
0.00486331
0.00454437
0.00417953
0.00382102
0.00350697
0.00322288
0.00053744
-5.00122e-06
-0.000253102
-0.000391171
-0.000461284
-0.000472781
-0.000436698
-0.000359908
-0.000243706
-8.52573e-05
0.000121106
0.000382581
0.000706304
0.00109738
0.00155597
0.00207407
0.00264393
0.00323259
0.00380526
0.00431859
0.00472644
0.00498785
0.00507552
0.00498291
0.00472757
0.00434887
0.00390205
0.00345181
0.00304594
0.00265986
0.000249357
-0.000358062
-0.000634372
-0.000790616
-0.000877144
-0.000906518
-0.000892238
-0.000842447
-0.000758558
-0.00063688
-0.000469955
-0.000247814
4.04155e-05
0.000404462
0.000850773
0.00137988
0.00197379
0.00261587
0.0032664
0.0038751
0.00438476
0.00473958
0.00489615
0.00483422
0.00456356
0.00412415
0.00358085
0.003016
0.00249233
0.00197366
-0.000226957
-0.000891297
-0.00119402
-0.00136988
-0.00147684
-0.00153051
-0.00154667
-0.00153463
-0.00149602
-0.00142642
-0.00131669
-0.00115402
-0.000923282
-0.00060894
-0.000197437
0.000318916
0.000933553
0.00163274
0.00237836
0.00311576
0.00377531
0.0042815
0.00456682
0.00458764
0.00433726
0.00385101
0.00320363
0.00250115
0.00182802
0.00113322
-0.00091216
-0.00162509
-0.00195256
-0.00215004
-0.00228252
-0.00236867
-0.00242657
-0.00246697
-0.00249205
-0.00249725
-0.00247225
-0.00240164
-0.00226574
-0.00204195
-0.00170703
-0.00124158
-0.000638294
0.000102848
0.00094968
0.0018476
0.00271533
0.003453
0.00395866
0.00415074
0.00399072
0.00349788
0.00275336
0.00189335
0.00103345
0.000103511
-0.00182334
-0.00257605
-0.00292693
-0.00314883
-0.00331327
-0.00344218
-0.00355627
-0.00366826
-0.00378179
-0.00389315
-0.00399198
-0.00406116
-0.00407668
-0.00400798
-0.0038194
-0.00347423
-0.00294316
-0.00220551
-0.00127447
-0.000195854
0.000942218
0.00201327
0.00286954
0.00337156
0.00342454
0.00300979
0.00220355
0.00117694
8.96895e-05
-0.00115146
-0.00297312
-0.00375625
-0.00412943
-0.00437931
-0.0045834
-0.00476726
-0.00495486
-0.00516187
-0.00539472
-0.00565229
-0.00592602
-0.00619881
-0.00644342
-0.00662108
-0.00668127
-0.00656342
-0.00620382
-0.00556048
-0.00460117
-0.00334964
-0.00188968
-0.00037085
0.00100436
0.00201533
0.00247608
0.00229259
0.0015103
0.000333081
-0.00101945
-0.00266561
-0.00436858
-0.00517235
-0.00556682
-0.00584853
-0.00610048
-0.00635243
-0.0066325
-0.00696071
-0.00734815
-0.00779862
-0.00830805
-0.00886209
-0.00943245
-0.00997293
-0.0104164
-0.0106748
-0.010645
-0.0102279
-0.00934738
-0.0079786
-0.00617941
-0.00410878
-0.00202413
-0.000247821
0.000900504
0.00119523
0.000601864
-0.000662286
-0.00230401
-0.00446587
-0.0060102
-0.00682483
-0.00723937
-0.00755623
-0.00786338
-0.00819555
-0.00858625
-0.0090615
-0.00963936
-0.0103314
-0.0111413
-0.0120612
-0.0130648
-0.0141006
-0.0150845
-0.015897
-0.0163866
-0.0163865
-0.0157549
-0.0143906
-0.0122978
-0.00961871
-0.00664997
-0.00382271
-0.0016301
-0.000501186
-0.000630987
-0.00183963
-0.00376184
-0.00656332
-0.00789115
-0.00870769
-0.00914047
-0.00949391
-0.00986056
-0.0102812
-0.010796
-0.0114391
-0.0122379
-0.0132146
-0.0143846
-0.0157499
-0.0172905
-0.0189525
-0.0206363
-0.0221895
-0.0234081
-0.024052
-0.0238788
-0.0227077
-0.0204514
-0.017197
-0.0132435
-0.00911128
-0.00548584
-0.00307156
-0.00233573
-0.00323324
-0.00536773
-0.00893803
-0.00999724
-0.010809
-0.011257
-0.0116447
-0.0120692
-0.0125785
-0.0132216
-0.0140421
-0.0150794
-0.0163692
-0.0179412
-0.0198113
-0.0219692
-0.024362
-0.0268776
-0.0293319
-0.0314681
-0.0329671
-0.0334806
-0.0327403
-0.0305329
-0.0268507
-0.021943
-0.0163667
-0.0109756
-0.006791
-0.00467558
-0.00486937
-0.00705547
-0.0115148
-0.0123079
-0.0131122
-0.0135705
-0.0139841
-0.0144553
-0.0150412
-0.0158013
-0.0167913
-0.0180639
-0.0196702
-0.0216567
-0.0240551
-0.0268671
-0.030044
-0.0334636
-0.0369143
-0.0400897
-0.0425979
-0.0439871
-0.043918
-0.0420176
-0.0381585
-0.0324858
-0.0255132
-0.0181859
-0.0118216
-0.00776696
-0.00673672
-0.00869048
-0.014128
-0.0147987
-0.0155997
-0.0160605
-0.0164826
-0.0169754
-0.0176081
-0.0184535
-0.0195811
-0.0210586
-0.0229531
-0.0253279
-0.028231
-0.031677
-0.0356216
-0.0399362
-0.0443855
-0.0486217
-0.052204
-0.0546385
-0.0553492
-0.0539786
-0.0502385
-0.0441193
-0.0360054
-0.0268144
-0.0180584
-0.0115751
-0.00872904
-0.0100304
-0.0164746
-0.017445
-0.0182573
-0.0187083
-0.0191084
-0.0195789
-0.020206
-0.0210798
-0.0222859
-0.0239072
-0.0260265
-0.0287227
-0.0320582
-0.0360581
-0.0406825
-0.0457967
-0.0511476
-0.0563557
-0.0609338
-0.0643259
-0.0659312
-0.0652507
-0.0618898
-0.0556818
-0.0468233
-0.0360794
-0.0249921
-0.0157846
-0.0105557
-0.0106714
-0.0180518
-0.0202293
-0.021082
-0.0215033
-0.021832
-0.0222119
-0.0227539
-0.0235712
-0.0247682
-0.0264432
-0.0286929
-0.0316087
-0.0352638
-0.0396901
-0.0448492
-0.0506005
-0.0566769
-0.0626773
-0.0680839
-0.0723031
-0.0747112
-0.0747293
-0.0718807
-0.0658579
-0.0566528
-0.0447905
-0.0316667
-0.0196886
-0.0116365
-0.00998211
-0.0180768
-0.0231514
-0.024093
-0.0244506
-0.0246311
-0.0248201
-0.0251665
-0.0258143
-0.0268897
-0.0285059
-0.0307706
-0.0337835
-0.0376231
-0.0423234
-0.0478433
-0.0540349
-0.0606198
-0.0671822
-0.0731863
-0.0780174
-0.0810362
-0.0816241
-0.0792505
-0.0735024
-0.0641917
-0.0515788
-0.0367845
-0.0221676
-0.0110083
-0.00702401
-0.0153823
-0.0262473
-0.0273483
-0.0275814
-0.0274948
-0.0273517
-0.027358
-0.0276983
-0.0285224
-0.0299565
-0.032115
-0.0351003
-0.0389903
-0.0438149
-0.0495255
-0.0559646
-0.0628434
-0.0697363
-0.0760958
-0.0812922
-0.0846719
-0.0855989
-0.0834984
-0.0778906
-0.0684434
-0.0551892
-0.0389275
-0.0217866
-0.00730227
-0.000469238
-0.00828778
-0.0296255
-0.0309716
-0.0309648
-0.0304265
-0.0297578
-0.0292455
-0.0291219
-0.0295595
-0.0306925
-0.0326356
-0.0354867
-0.0393159
-0.044144
-0.0499093
-0.0564413
-0.0634381
-0.0704611
-0.0769531
-0.0822748
-0.0857545
-0.0867335
-0.0845858
-0.0787897
-0.0688692
-0.0547048
-0.0367992
-0.0169774
0.00118775
0.0114844
0.00555221
-0.0335444
-0.0351956
-0.0347234
-0.0334458
-0.0319924
-0.0307514
-0.0300011
-0.0299274
-0.0306618
-0.032309
-0.0349539
-0.0386519
-0.0434048
-0.0491342
-0.0556523
-0.0626417
-0.0696505
-0.0761074
-0.0813545
-0.0846899
-0.0854128
-0.0828307
-0.076326
-0.0653586
-0.049634
-0.0294237
-0.00625608
0.0164253
0.0312349
0.0293026
-0.0385835
-0.040433
-0.0390481
-0.0365859
-0.0340105
-0.0318083
-0.0302786
-0.0295965
-0.0298717
-0.0311843
-0.0335962
-0.037137
-0.041785
-0.0474379
-0.053886
-0.0607926
-0.0676884
-0.0739821
-0.0789862
-0.0819519
-0.0821109
-0.078669
-0.070892
-0.0581088
-0.0398772
-0.0163093
0.0114633
0.0405793
0.061865
0.0669317
-0.0460446
-0.0473881
-0.0441917
-0.039872
-0.0357534
-0.0323493
-0.0299162
-0.0285735
-0.0283788
-0.029369
-0.0315671
-0.0349694
-0.0395223
-0.0450943
-0.0514492
-0.058227
-0.0649365
-0.0709603
-0.0755732
-0.0779638
-0.0772683
-0.0725633
-0.0629436
-0.0475411
-0.0256995
0.00265907
0.0365342
0.0753678
0.106536
0.122984
-0.0591121
-0.0572584
-0.050423
-0.043254
-0.0370805
-0.0322407
-0.028828
-0.026837
-0.0262289
-0.0269688
-0.0290243
-0.032347
-0.0368448
-0.0423525
-0.0486049
-0.0552168
-0.0616726
-0.0673266
-0.0714126
-0.0730596
-0.0713115
-0.0650138
-0.0530953
-0.0344059
-0.00794546
0.0268428
0.0696982
0.11974
0.166414
0.20425
-0.0858748
-0.071535
-0.0579736
-0.0465063
-0.0376277
-0.0311589
-0.0267941
-0.0242806
-0.0234176
-0.0240618
-0.0261066
-0.0294502
-0.0339593
-0.0394363
-0.0455899
-0.0520135
-0.0581705
-0.0633882
-0.0668558
-0.0676309
-0.064664
-0.0567883
-0.0425067
-0.0203299
0.0112472
0.0536429
0.107639
0.173604
0.242068
0.32439
-0.138043
-0.0869016
-0.0647473
-0.0473922
-0.0353894
-0.0275715
-0.0227503
-0.0201903
-0.0194659
-0.0203213
-0.0225857
-0.0261162
-0.0307529
-0.0362807
-0.0423975
-0.04869
-0.0546177
-0.059503
-0.0625195
-0.0626796
-0.0587981
-0.0497086
-0.0337363
-0.00896819
0.0267945
0.0764448
0.1431
0.231909
0.339618
0.509299
-0.310861
-0.0967344
-0.0476636
-0.02887
-0.0182324
-0.0125823
-0.0101596
-0.00970071
-0.0106297
-0.0127472
-0.0159674
-0.0202138
-0.0253774
-0.0312853
-0.0376714
-0.044155
-0.0502241
-0.0552274
-0.0583692
-0.0587162
-0.0551843
-0.0462515
-0.0303842
-0.00561209
0.0306991
0.0829039
0.157657
0.272701
0.447684
0.791435
)
;

boundaryField
{
    movingWall
    {
        type            zeroGradient;
    }
    fixedWalls
    {
        type            zeroGradient;
    }
    frontAndBack
    {
        type            empty;
    }
}


// ************************************************************************* //
