/*--------------------------------*- C++ -*----------------------------------*\
  =========                 |
  \\      /  F ield         | OpenFOAM: The Open Source CFD Toolbox
   \\    /   O peration     | Website:  https://openfoam.org
    \\  /    A nd           | Version:  7
     \\/     M anipulation  |
\*---------------------------------------------------------------------------*/
FoamFile
{
    version     2.0;
    format      ascii;
    class       volVectorField;
    location    "8.5";
    object      U;
}
// * * * * * * * * * * * * * * * * * * * * * * * * * * * * * * * * * * * * * //

dimensions      [0 1 -1 0 0 0 0];

internalField   nonuniform List<vector> 
900
(
(9.08736e-05 -8.96388e-05 0)
(9.10607e-05 -4.88718e-06 0)
(-0.000248725 0.000102347 0)
(-0.000864707 0.000184793 0)
(-0.00167953 0.000237065 0)
(-0.00262321 0.000265503 0)
(-0.00363721 0.000278059 0)
(-0.00467773 0.000280509 0)
(-0.00571134 0.000275829 0)
(-0.00670919 0.000264717 0)
(-0.00764239 0.00024631 0)
(-0.008479 0.000218868 0)
(-0.00918291 0.00018043 0)
(-0.00971443 0.000129467 0)
(-0.0100328 6.5536e-05 0)
(-0.0101004 -1.01531e-05 0)
(-0.00988775 -9.4846e-05 0)
(-0.0093801 -0.000182911 0)
(-0.00858332 -0.000266908 0)
(-0.0075282 -0.000338119 0)
(-0.00627214 -0.000387642 0)
(-0.00489703 -0.00040787 0)
(-0.00350282 -0.00039397 0)
(-0.00219751 -0.000345028 0)
(-0.00108348 -0.000264434 0)
(-0.000239114 -0.000160896 0)
(0.00027132 -5.26424e-05 0)
(0.000437875 5.51724e-05 0)
(0.000323309 0.000124604 0)
(0.000102755 0.000103015 0)
(8.01365e-06 -9.44323e-05 0)
(-0.000397306 0.000391798 0)
(-0.00154113 0.000930039 0)
(-0.00325412 0.0013632 0)
(-0.00540281 0.00166437 0)
(-0.00785064 0.00184774 0)
(-0.010471 0.00193816 0)
(-0.0131579 0.00195668 0)
(-0.0158218 0.00191569 0)
(-0.0183809 0.00181903 0)
(-0.0207546 0.00166415 0)
(-0.0228576 0.00144497 0)
(-0.0245993 0.0011551 0)
(-0.0258852 0.000791061 0)
(-0.0266234 0.000355408 0)
(-0.0267338 -0.000140952 0)
(-0.026158 -0.000676317 0)
(-0.0248724 -0.00121811 0)
(-0.0229009 -0.00172483 0)
(-0.0203211 -0.00214968 0)
(-0.0172676 -0.00244634 0)
(-0.0139259 -0.00257626 0)
(-0.0105191 -0.00251593 0)
(-0.00728659 -0.00226276 0)
(-0.00445574 -0.00183802 0)
(-0.00221164 -0.00128849 0)
(-0.000674938 -0.000690893 0)
(0.000129048 -0.000123257 0)
(0.00030333 0.000277591 0)
(0.000127219 0.000319499 0)
(-0.000110217 0.000253415 0)
(-0.00100547 0.00155283 0)
(-0.00300497 0.00285187 0)
(-0.00576575 0.00390327 0)
(-0.00910386 0.00465569 0)
(-0.0128436 0.00512921 0)
(-0.0168155 0.00536725 0)
(-0.0208714 0.00540989 0)
(-0.0248803 0.00528229 0)
(-0.0287196 0.0049931 0)
(-0.0322673 0.00453801 0)
(-0.0353966 0.00390586 0)
(-0.0379754 0.00308592 0)
(-0.0398694 0.00207552 0)
(-0.0409509 0.000887119 0)
(-0.04111 -0.000446003 0)
(-0.040269 -0.00186543 0)
(-0.0383994 -0.00328817 0)
(-0.0355364 -0.00461093 0)
(-0.0317888 -0.00571907 0)
(-0.0273418 -0.00650044 0)
(-0.0224508 -0.00686215 0)
(-0.0174241 -0.00674781 0)
(-0.0125942 -0.00615179 0)
(-0.0082813 -0.00512746 0)
(-0.00475194 -0.00378888 0)
(-0.0021812 -0.00230842 0)
(-0.000616298 -0.000905679 0)
(4.94717e-05 0.000141713 0)
(9.04658e-05 0.000471941 0)
(-0.000220681 0.000940817 0)
(-0.00159516 0.00341708 0)
(-0.0044333 0.00569211 0)
(-0.00819117 0.00750259 0)
(-0.0126225 0.0087992 0)
(-0.0175171 0.00961879 0)
(-0.0226746 0.0100269 0)
(-0.027918 0.0100832 0)
(-0.0330885 0.00982494 0)
(-0.0380344 0.00926496 0)
(-0.0426037 0.00839652 0)
(-0.0466387 0.00720319 0)
(-0.0499752 0.00567071 0)
(-0.0524476 0.00379942 0)
(-0.0538981 0.00161608 0)
(-0.0541901 -0.00081675 0)
(-0.0532245 -0.0033962 0)
(-0.0509591 -0.0059765 0)
(-0.0474274 -0.00837809 0)
(-0.0427507 -0.0104023 0)
(-0.0371442 -0.011854 0)
(-0.030913 -0.0125697 0)
(-0.0244327 -0.0124476 0)
(-0.0181179 -0.011473 0)
(-0.0123761 -0.00973408 0)
(-0.00755729 -0.00742541 0)
(-0.00390273 -0.00483975 0)
(-0.00149917 -0.00235231 0)
(-0.000257146 -0.000408209 0)
(4.77947e-05 0.000463705 0)
(-0.000315359 0.00193637 0)
(-0.00213157 0.00595251 0)
(-0.00575977 0.00940866 0)
(-0.0104525 0.012094 0)
(-0.0158964 0.0139994 0)
(-0.0218469 0.0151975 0)
(-0.0280785 0.0157839 0)
(-0.0343949 0.01584 0)
(-0.0406199 0.0154153 0)
(-0.0465838 0.0145254 0)
(-0.0521147 0.0131595 0)
(-0.0570324 0.0112947 0)
(-0.0611484 0.00891202 0)
(-0.0642692 0.00601428 0)
(-0.0662066 0.00264293 0)
(-0.0667931 -0.00110894 0)
(-0.065897 -0.00509008 0)
(-0.0634462 -0.0090845 0)
(-0.0594526 -0.0128258 0)
(-0.0540286 -0.0160162 0)
(-0.0473997 -0.0183587 0)
(-0.0399053 -0.0195985 0)
(-0.0319832 -0.0195685 0)
(-0.0241338 -0.0182309 0)
(-0.0168669 -0.0157041 0)
(-0.0106373 -0.0122706 0)
(-0.00577762 -0.00836277 0)
(-0.00243689 -0.00453195 0)
(-0.000560174 -0.00141177 0)
(1.55702e-05 0.000291675 0)
(-0.000395867 0.00320849 0)
(-0.00261026 0.00911041 0)
(-0.006966 0.0139501 0)
(-0.0125251 0.0176219 0)
(-0.0189082 0.0201942 0)
(-0.0258378 0.021798 0)
(-0.033068 0.0225712 0)
(-0.0403904 0.0226218 0)
(-0.0476204 0.0220122 0)
(-0.05458 0.0207598 0)
(-0.0610866 0.0188474 0)
(-0.0669458 0.016242 0)
(-0.0719489 0.0129157 0)
(-0.0758759 0.00886912 0)
(-0.0785044 0.00415344 0)
(-0.079626 -0.00111133 0)
(-0.0790595 -0.00672691 0)
(-0.0766798 -0.0124045 0)
(-0.0724521 -0.017782 0)
(-0.0664529 -0.0224459 0)
(-0.0588946 -0.0259729 0)
(-0.0501367 -0.0279862 0)
(-0.0406763 -0.0282218 0)
(-0.0311136 -0.0265918 0)
(-0.0220887 -0.0232307 0)
(-0.0141999 -0.0185121 0)
(-0.00791162 -0.0130282 0)
(-0.00346811 -0.00753883 0)
(-0.000866416 -0.0029015 0)
(-5.70108e-06 -3.0366e-05 0)
(-0.000465418 0.00472524 0)
(-0.00303581 0.0128323 0)
(-0.00805238 0.0192485 0)
(-0.0144068 0.0240157 0)
(-0.0216595 0.0273137 0)
(-0.0295041 0.0293554 0)
(-0.0376791 0.030334 0)
(-0.0459714 0.0303915 0)
(-0.0541964 0.0296057 0)
(-0.0621769 0.0279943 0)
(-0.0697284 0.0255305 0)
(-0.0766494 0.0221653 0)
(-0.0827157 0.0178542 0)
(-0.0876801 0.0125856 0)
(-0.0912798 0.00640854 0)
(-0.093253 -0.000541031 0)
(-0.093349 -0.00801652 0)
(-0.0913627 -0.0156688 0)
(-0.0871812 -0.0230319 0)
(-0.0808121 -0.0295579 0)
(-0.0724244 -0.0346655 0)
(-0.0623764 -0.0378139 0)
(-0.051219 -0.0385937 0)
(-0.0396668 -0.036822 0)
(-0.0285272 -0.0326202 0)
(-0.0185952 -0.0264481 0)
(-0.0105263 -0.0190819 0)
(-0.00470839 -0.0115365 0)
(-0.00121685 -0.00495051 0)
(-2.21173e-05 -0.000504827 0)
(-0.000526162 0.00645846 0)
(-0.00341257 0.0170605 0)
(-0.00902227 0.0252343 0)
(-0.0160991 0.0312047 0)
(-0.0241525 0.0352928 0)
(-0.0328525 0.0378152 0)
(-0.0419289 0.0390357 0)
(-0.0511708 0.0391381 0)
(-0.0604021 0.0382186 0)
(-0.0694554 0.036295 0)
(-0.0781535 0.033326 0)
(-0.0862949 0.0292388 0)
(-0.0936446 0.0239607 0)
(-0.0999294 0.017453 0)
(-0.10484 0.00974614 0)
(-0.10804 0.000974684 0)
(-0.109197 -0.00858956 0)
(-0.108004 -0.0185383 0)
(-0.104226 -0.0283002 0)
(-0.0977629 -0.0371753 0)
(-0.0887017 -0.0443886 0)
(-0.0773667 -0.0491804 0)
(-0.0643454 -0.050928 0)
(-0.050473 -0.0492848 0)
(-0.0367615 -0.044305 0)
(-0.0242682 -0.0365152 0)
(-0.0139204 -0.0269005 0)
(-0.00632181 -0.0167949 0)
(-0.00167166 -0.00770326 0)
(-4.27344e-05 -0.00116409 0)
(-0.000578785 0.00838221 0)
(-0.00374143 0.0217383 0)
(-0.00987453 0.0318373 0)
(-0.0175976 0.0391172 0)
(-0.0263786 0.0440668 0)
(-0.0358717 0.0471273 0)
(-0.0458045 0.0486474 0)
(-0.0559759 0.0488617 0)
(-0.0662265 0.0478892 0)
(-0.0764079 0.0457469 0)
(-0.0863589 0.0423742 0)
(-0.0958863 0.0376643 0)
(-0.104749 0.0315012 0)
(-0.112651 0.0237996 0)
(-0.119231 0.0145486 0)
(-0.124077 0.00385601 0)
(-0.126751 -0.00801282 0)
(-0.126812 -0.020598 0)
(-0.123876 -0.0332285 0)
(-0.117692 -0.0450398 0)
(-0.108217 -0.0550263 0)
(-0.095693 -0.0621454 0)
(-0.080704 -0.0654737 0)
(-0.0641927 -0.0644011 0)
(-0.0473999 -0.0588256 0)
(-0.0317153 -0.0492923 0)
(-0.0184414 -0.0370102 0)
(-0.00850351 -0.0237137 0)
(-0.00230232 -0.0113942 0)
(-7.78782e-05 -0.00207613 0)
(-0.000622828 0.0104702 0)
(-0.0040196 0.0268066 0)
(-0.0106015 0.038983 0)
(-0.0188875 0.0476759 0)
(-0.0283142 0.0535649 0)
(-0.0385267 0.0572344 0)
(-0.0492572 0.0591326 0)
(-0.0603213 0.0595545 0)
(-0.0715841 0.0586466 0)
(-0.0829245 0.0564252 0)
(-0.0942062 0.0528045 0)
(-0.105253 0.047633 0)
(-0.115825 0.0407333 0)
(-0.125606 0.0319499 0)
(-0.134189 0.0212005 0)
(-0.141081 0.00853331 0)
(-0.145728 -0.00581568 0)
(-0.147541 -0.0213662 0)
(-0.145958 -0.0373644 0)
(-0.14054 -0.0527768 0)
(-0.131059 -0.0663364 0)
(-0.117608 -0.0766535 0)
(-0.100704 -0.0824024 0)
(-0.0813466 -0.0825767 0)
(-0.0609973 -0.0767807 0)
(-0.0414361 -0.0654784 0)
(-0.0244619 -0.050089 0)
(-0.0114698 -0.0328365 0)
(-0.00318771 -0.0163602 0)
(-0.000138113 -0.00334811 0)
(-0.000657083 0.0126935 0)
(-0.00424148 0.0322014 0)
(-0.01119 0.0465894 0)
(-0.0199447 0.0567932 0)
(-0.0299203 0.0637021 0)
(-0.0407586 0.0680613 0)
(-0.0522019 0.070432 0)
(-0.0640877 0.0711798 0)
(-0.0763117 0.0704843 0)
(-0.0887871 0.0683615 0)
(-0.10141 0.0646957 0)
(-0.11403 0.0592785 0)
(-0.126417 0.0518531 0)
(-0.138245 0.0421678 0)
(-0.149066 0.0300377 0)
(-0.158315 0.0154155 0)
(-0.165326 -0.00152992 0)
(-0.169361 -0.0203271 0)
(-0.169675 -0.0401724 0)
(-0.16561 -0.0598755 0)
(-0.156703 -0.077896 0)
(-0.142825 -0.0924474 0)
(-0.124324 -0.101699 0)
(-0.102157 -0.10409 0)
(-0.0779448 -0.098735 0)
(-0.0538719 -0.0858377 0)
(-0.0323546 -0.0669477 0)
(-0.0154518 -0.0448539 0)
(-0.00441432 -0.0230494 0)
(-0.000234846 -0.00513034 0)
(-0.000679993 0.0150197 0)
(-0.0044001 0.0378512 0)
(-0.0116235 0.0545638 0)
(-0.0207394 0.0663664 0)
(-0.0311477 0.0743731 0)
(-0.0424907 0.0795045 0)
(-0.0545235 0.0824484 0)
(-0.0671086 0.0836514 0)
(-0.0801756 0.0833324 0)
(-0.0936762 0.0815087 0)
(-0.107545 0.0780306 0)
(-0.121662 0.0726222 0)
(-0.135821 0.06493 0)
(-0.149692 0.0545824 0)
(-0.16281 0.0412621 0)
(-0.174555 0.0247927 0)
(-0.184164 0.00523768 0)
(-0.190781 -0.0169943 0)
(-0.193496 -0.0410756 0)
(-0.191424 -0.065697 0)
(-0.183837 -0.0890655 0)
(-0.170306 -0.108982 0)
(-0.150891 -0.123034 0)
(-0.126352 -0.128941 0)
(-0.0983184 -0.125075 0)
(-0.0693149 -0.111094 0)
(-0.0424546 -0.0884781 0)
(-0.020689 -0.0605934 0)
(-0.00607816 -0.0320275 0)
(-0.00038157 -0.00762061 0)
(-0.000690107 0.0174119 0)
(-0.00448921 0.0436764 0)
(-0.0118871 0.0628016 0)
(-0.0212425 0.076275 0)
(-0.0319452 0.085446 0)
(-0.0436386 0.0914233 0)
(-0.0560904 0.0950335 0)
(-0.0691874 0.0968145 0)
(-0.0828924 0.0970318 0)
(-0.0971958 0.0957066 0)
(-0.112073 0.0926526 0)
(-0.12744 0.0875188 0)
(-0.143119 0.0798418 0)
(-0.1588 0.069111 0)
(-0.174016 0.0548533 0)
(-0.188128 0.0367354 0)
(-0.200331 0.0146807 0)
(-0.209686 -0.0110109 0)
(-0.215157 -0.0395344 0)
(-0.215682 -0.0695223 0)
(-0.210263 -0.0989915 0)
(-0.198118 -0.12537 0)
(-0.178893 -0.145642 0)
(-0.15295 -0.156673 0)
(-0.121688 -0.155812 0)
(-0.0877758 -0.141765 0)
(-0.0549968 -0.115553 0)
(-0.0274134 -0.0809855 0)
(-0.00828625 -0.0439784 0)
(-0.000595553 -0.0110702 0)
(-0.000686628 0.0198304 0)
(-0.00450584 0.0495917 0)
(-0.0119727 0.0711876 0)
(-0.0214347 0.0863807 0)
(-0.0322723 0.0967605 0)
(-0.0441273 0.103634 0)
(-0.0567757 0.107978 0)
(-0.0701241 0.110432 0)
(-0.0841636 0.111315 0)
(-0.0989194 0.110656 0)
(-0.114404 0.108232 0)
(-0.130575 0.103615 0)
(-0.147289 0.0962233 0)
(-0.16427 0.0853987 0)
(-0.181081 0.0704993 0)
(-0.19711 0.0510182 0)
(-0.211569 0.0267161 0)
(-0.223504 -0.00224146 0)
(-0.23184 -0.0351483 0)
(-0.235407 -0.0706458 0)
(-0.232987 -0.106671 0)
(-0.223434 -0.140388 0)
(-0.205885 -0.168247 0)
(-0.180094 -0.186213 0)
(-0.146914 -0.190355 0)
(-0.108807 -0.177926 0)
(-0.0700117 -0.148861 0)
(-0.0358163 -0.106991 0)
(-0.0111546 -0.059694 0)
(-0.000899574 -0.0157905 0)
(-0.000670034 0.022235 0)
(-0.00445347 0.0555105 0)
(-0.0118865 0.0796013 0)
(-0.0213179 0.0965308 0)
(-0.0321152 0.108129 0)
(-0.0439115 0.11591 0)
(-0.0564844 0.12101 0)
(-0.0697517 0.124178 0)
(-0.0837245 0.125797 0)
(-0.0984547 0.125907 0)
(-0.113987 0.124254 0)
(-0.130316 0.120333 0)
(-0.147342 0.113447 0)
(-0.164841 0.102793 0)
(-0.182439 0.0875645 0)
(-0.199596 0.0670812 0)
(-0.215612 0.0409356 0)
(-0.229617 0.00913489 0)
(-0.240581 -0.0277636 0)
(-0.247335 -0.0685011 0)
(-0.248553 -0.11108 0)
(-0.242777 -0.152584 0)
(-0.228607 -0.189104 0)
(-0.205027 -0.215796 0)
(-0.172005 -0.227311 0)
(-0.131312 -0.218939 0)
(-0.0871793 -0.188658 0)
(-0.0459862 -0.139469 0)
(-0.0147991 -0.0800423 0)
(-0.00132324 -0.0221583 0)
(-0.000642774 0.0245896 0)
(-0.00434564 0.061354 0)
(-0.0116572 0.0879261 0)
(-0.0209279 0.106567 0)
(-0.0315037 0.119346 0)
(-0.0429992 0.127987 0)
(-0.0551838 0.133798 0)
(-0.0679768 0.137648 0)
(-0.0813991 0.139986 0)
(-0.095519 0.140876 0)
(-0.110406 0.140035 0)
(-0.126087 0.136891 0)
(-0.142515 0.130647 0)
(-0.159531 0.12037 0)
(-0.176856 0.105107 0)
(-0.194074 0.0840279 0)
(-0.210635 0.0565696 0)
(-0.225843 0.0225788 0)
(-0.238814 -0.0175651 0)
(-0.248514 -0.0628117 0)
(-0.253646 -0.111375 0)
(-0.252566 -0.160488 0)
(-0.243408 -0.206176 0)
(-0.224333 -0.243046 0)
(-0.194159 -0.264403 0)
(-0.153433 -0.263207 0)
(-0.105671 -0.234468 0)
(-0.0578182 -0.17897 0)
(-0.0193187 -0.1059 0)
(-0.00190429 -0.0306154 0)
(-0.00061008 0.0268686 0)
(-0.00421 0.0670641 0)
(-0.0113446 0.0960637 0)
(-0.0203479 0.116339 0)
(-0.0305296 0.130194 0)
(-0.0414739 0.139576 0)
(-0.0529329 0.145969 0)
(-0.0648187 0.150372 0)
(-0.0771523 0.15331 0)
(-0.0900101 0.154874 0)
(-0.103479 0.154767 0)
(-0.117618 0.152366 0)
(-0.132434 0.146792 0)
(-0.147854 0.137014 0)
(-0.163716 0.121969 0)
(-0.179768 0.100711 0)
(-0.195665 0.0725565 0)
(-0.210951 0.0372186 0)
(-0.224987 -0.00511115 0)
(-0.236991 -0.0537288 0)
(-0.245833 -0.107119 0)
(-0.24987 -0.162928 0)
(-0.246947 -0.217483 0)
(-0.234502 -0.265277 0)
(-0.210099 -0.298617 0)
(-0.172627 -0.308073 0)
(-0.12405 -0.28479 0)
(-0.0709114 -0.225457 0)
(-0.0247728 -0.138037 0)
(-0.0026909 -0.0416593 0)
(-0.000581041 0.0290663 0)
(-0.00409333 0.0726207 0)
(-0.0110498 0.103953 0)
(-0.0197227 0.125719 0)
(-0.029363 0.140468 0)
(-0.0395141 0.150379 0)
(-0.0499049 0.157128 0)
(-0.0604367 0.161851 0)
(-0.071127 0.165156 0)
(-0.0820555 0.167172 0)
(-0.0933241 0.167599 0)
(-0.105027 0.165786 0)
(-0.11723 0.160803 0)
(-0.129957 0.151557 0)
(-0.143189 0.13692 0)
(-0.156857 0.115875 0)
(-0.170844 0.0876614 0)
(-0.184975 0.0518827 0)
(-0.198991 0.00855322 0)
(-0.212363 -0.0419101 0)
(-0.224206 -0.0984522 0)
(-0.233148 -0.159328 0)
(-0.236987 -0.221531 0)
(-0.232682 -0.279984 0)
(-0.216681 -0.326619 0)
(-0.186011 -0.350004 0)
(-0.140334 -0.33694 0)
(-0.0844961 -0.277999 0)
(-0.0311617 -0.176954 0)
(-0.00374724 -0.055827 0)
(-0.000570434 0.031209 0)
(-0.00406865 0.0780649 0)
(-0.0109281 0.111591 0)
(-0.0192726 0.134626 0)
(-0.0282665 0.149986 0)
(-0.0374052 0.160109 0)
(-0.0463982 0.166882 0)
(-0.0551415 0.171585 0)
(-0.0636541 0.174919 0)
(-0.0720238 0.177055 0)
(-0.080372 0.177713 0)
(-0.0888326 0.176234 0)
(-0.0975412 0.171673 0)
(-0.106631 0.162918 0)
(-0.116233 0.14882 0)
(-0.126479 0.128343 0)
(-0.137495 0.10069 0)
(-0.149387 0.0653859 0)
(-0.162206 0.022301 0)
(-0.175785 -0.0283518 0)
(-0.189625 -0.0860886 0)
(-0.202678 -0.14988 0)
(-0.21298 -0.217678 0)
(-0.217388 -0.285386 0)
(-0.211597 -0.345377 0)
(-0.190915 -0.385084 0)
(-0.152259 -0.387194 0)
(-0.0974379 -0.334537 0)
(-0.0384175 -0.222674 0)
(-0.00516627 -0.0736783 0)
(-0.000602441 0.0333726 0)
(-0.00424691 0.0835285 0)
(-0.0112057 0.119064 0)
(-0.0193101 0.143039 0)
(-0.0276051 0.158604 0)
(-0.0355431 0.168504 0)
(-0.0428314 0.174859 0)
(-0.0493813 0.179106 0)
(-0.0552311 0.18204 0)
(-0.060491 0.183889 0)
(-0.0653137 0.184403 0)
(-0.0698841 0.182942 0)
(-0.0744172 0.178582 0)
(-0.0791618 0.170232 0)
(-0.0844055 0.156769 0)
(-0.0904745 0.137176 0)
(-0.0977242 0.110661 0)
(-0.106518 0.076714 0)
(-0.117179 0.0350991 0)
(-0.129883 -0.0142145 0)
(-0.144514 -0.0711804 0)
(-0.16044 -0.135517 0)
(-0.17615 -0.20629 0)
(-0.188799 -0.28082 0)
(-0.193866 -0.352776 0)
(-0.185427 -0.409695 0)
(-0.157671 -0.431229 0)
(-0.108336 -0.391842 0)
(-0.0464074 -0.27452 0)
(-0.00709268 -0.0957905 0)
(-0.000718808 0.0357105 0)
(-0.00479865 0.0892728 0)
(-0.0122067 0.126569 0)
(-0.0202593 0.151013 0)
(-0.0278527 0.166223 0)
(-0.0344235 0.175329 0)
(-0.0397176 0.180718 0)
(-0.0437008 0.183991 0)
(-0.0464627 0.186041 0)
(-0.0481598 0.187152 0)
(-0.0489948 0.187118 0)
(-0.0492161 0.185343 0)
(-0.0491261 0.180954 0)
(-0.049091 0.172916 0)
(-0.0495469 0.160165 0)
(-0.0509976 0.141738 0)
(-0.0539985 0.116872 0)
(-0.0591259 0.0850442 0)
(-0.0669267 0.0459367 0)
(-0.077842 -0.00067754 0)
(-0.0920806 -0.0550956 0)
(-0.109438 -0.117696 0)
(-0.128979 -0.188627 0)
(-0.148489 -0.26684 0)
(-0.163842 -0.347999 0)
(-0.168637 -0.421149 0)
(-0.154851 -0.464753 0)
(-0.115681 -0.445729 0)
(-0.054922 -0.330925 0)
(-0.00974969 -0.122774 0)
(-0.000996858 0.0385009 0)
(-0.00599471 0.095741 0)
(-0.0143945 0.134439 0)
(-0.0226778 0.158673 0)
(-0.0295858 0.172768 0)
(-0.0346083 0.180358 0)
(-0.0376045 0.184134 0)
(-0.0386569 0.185863 0)
(-0.0379515 0.186521 0)
(-0.0357226 0.186447 0)
(-0.0322429 0.185482 0)
(-0.0278358 0.18309 0)
(-0.0228928 0.17847 0)
(-0.0178898 0.170673 0)
(-0.0133926 0.158718 0)
(-0.0100514 0.14171 0)
(-0.00858078 0.118924 0)
(-0.00972002 0.0898356 0)
(-0.0141775 0.0540636 0)
(-0.022574 0.0112362 0)
(-0.0353624 -0.0391971 0)
(-0.0527077 -0.0981116 0)
(-0.0742664 -0.166542 0)
(-0.0986686 -0.24501 0)
(-0.122718 -0.331561 0)
(-0.140442 -0.418036 0)
(-0.142563 -0.484076 0)
(-0.117943 -0.491462 0)
(-0.0635994 -0.389293 0)
(-0.0134445 -0.155296 0)
(-0.0015885 0.0422351 0)
(-0.00828185 0.103627 0)
(-0.0184313 0.143151 0)
(-0.0272684 0.16618 0)
(-0.0334396 0.178141 0)
(-0.0366313 0.183328 0)
(-0.0369375 0.184762 0)
(-0.0346428 0.184354 0)
(-0.0300854 0.183136 0)
(-0.0236105 0.181476 0)
(-0.015578 0.179259 0)
(-0.00638946 0.176012 0)
(0.00348245 0.171018 0)
(0.0134714 0.163427 0)
(0.0229115 0.152356 0)
(0.0310468 0.136986 0)
(0.0370562 0.116632 0)
(0.0400974 0.0907634 0)
(0.0393585 0.0589463 0)
(0.0341025 0.0206999 0)
(0.0237004 -0.0246991 0)
(0.00770605 -0.0784288 0)
(-0.0140747 -0.142124 0)
(-0.0411747 -0.217515 0)
(-0.071691 -0.305031 0)
(-0.100968 -0.400209 0)
(-0.119766 -0.486416 0)
(-0.113467 -0.524148 0)
(-0.0717064 -0.445915 0)
(-0.0184898 -0.194035 0)
(-0.00280095 0.0477826 0)
(-0.0124133 0.113953 0)
(-0.0252381 0.153277 0)
(-0.0348242 0.173621 0)
(-0.0399382 0.182096 0)
(-0.040729 0.183822 0)
(-0.0377056 0.182138 0)
(-0.0314621 0.17903 0)
(-0.0225476 0.175522 0)
(-0.0114461 0.171974 0)
(0.00138807 0.168287 0)
(0.015482 0.164041 0)
(0.0303034 0.158604 0)
(0.0452316 0.151225 0)
(0.0595465 0.141123 0)
(0.0724383 0.127556 0)
(0.0830346 0.109883 0)
(0.0904411 0.0875655 0)
(0.0937879 0.060118 0)
(0.0922612 0.0269797 0)
(0.0850953 -0.0126704 0)
(0.0716167 -0.0601374 0)
(0.0512141 -0.117333 0)
(0.0235097 -0.18671 0)
(-0.0110485 -0.270612 0)
(-0.0498064 -0.368552 0)
(-0.0850784 -0.469905 0)
(-0.100119 -0.5389 0)
(-0.0777146 -0.495747 0)
(-0.024933 -0.239369 0)
(-0.00525224 0.0567157 0)
(-0.0196436 0.128121 0)
(-0.0359557 0.165289 0)
(-0.0459025 0.180726 0)
(-0.0489138 0.183961 0)
(-0.0460497 0.18103 0)
(-0.0384798 0.17547 0)
(-0.0272281 0.169204 0)
(-0.0131057 0.163141 0)
(0.00325174 0.157562 0)
(0.021305 0.152339 0)
(0.0405369 0.147082 0)
(0.0603965 0.141228 0)
(0.0802592 0.134119 0)
(0.0994096 0.125067 0)
(0.117045 0.113411 0)
(0.132299 0.0985499 0)
(0.144272 0.0799489 0)
(0.152066 0.0570909 0)
(0.154807 0.0293725 0)
(0.151596 -0.00405204 0)
(0.141564 -0.044476 0)
(0.123735 -0.0937955 0)
(0.0970424 -0.154708 0)
(0.0606345 -0.230694 0)
(0.0147799 -0.324761 0)
(-0.0360502 -0.433588 0)
(-0.074618 -0.53062 0)
(-0.0787286 -0.531935 0)
(-0.032032 -0.29083 0)
(-0.0101355 0.0719696 0)
(-0.0319091 0.147788 0)
(-0.0513898 0.179001 0)
(-0.0595333 0.186227 0)
(-0.0576478 0.182053 0)
(-0.0483842 0.173249 0)
(-0.0338651 0.163232 0)
(-0.0156447 0.153613 0)
(0.00519313 0.145018 0)
(0.0278913 0.137542 0)
(0.0518776 0.130967 0)
(0.0766547 0.124891 0)
(0.101722 0.118796 0)
(0.126524 0.112102 0)
(0.150421 0.104208 0)
(0.172687 0.0945305 0)
(0.192519 0.082525 0)
(0.209055 0.0676821 0)
(0.221398 0.0494924 0)
(0.22862 0.0273711 0)
(0.22967 0.000536808 0)
(0.223495 -0.0322127 0)
(0.208781 -0.0725407 0)
(0.183911 -0.122969 0)
(0.147035 -0.187286 0)
(0.096391 -0.270902 0)
(0.0319425 -0.37775 0)
(-0.0312987 -0.494107 0)
(-0.0700107 -0.545656 0)
(-0.037664 -0.346837 0)
(-0.0194968 0.0987014 0)
(-0.0513701 0.173549 0)
(-0.0691835 0.191908 0)
(-0.0686228 0.186344 0)
(-0.055298 0.172467 0)
(-0.0342006 0.157009 0)
(-0.00853438 0.142586 0)
(0.0197198 0.130066 0)
(0.0493738 0.119558 0)
(0.0797237 0.110838 0)
(0.110323 0.103525 0)
(0.140832 0.0971665 0)
(0.17092 0.0912657 0)
(0.200201 0.0853095 0)
(0.2282 0.0787866 0)
(0.25434 0.0712042 0)
(0.277939 0.0620968 0)
(0.298223 0.0510196 0)
(0.314331 0.0375191 0)
(0.325321 0.0210806 0)
(0.32995 0.00103782 0)
(0.327048 -0.0234151 0)
(0.315006 -0.0537158 0)
(0.291767 -0.0919665 0)
(0.254705 -0.141534 0)
(0.200585 -0.208629 0)
(0.126178 -0.302901 0)
(0.0396519 -0.426507 0)
(-0.0440955 -0.527595 0)
(-0.0372282 -0.402835 0)
(-0.0349246 0.142905 0)
(-0.0745192 0.198271 0)
(-0.0707871 0.19296 0)
(-0.0449504 0.170305 0)
(-0.00845858 0.146332 0)
(0.0321333 0.125578 0)
(0.0735212 0.108699 0)
(0.114171 0.0952747 0)
(0.153447 0.0846748 0)
(0.191167 0.0762866 0)
(0.227336 0.0695575 0)
(0.262001 0.0639878 0)
(0.29516 0.0591175 0)
(0.326712 0.0545183 0)
(0.356432 0.0497903 0)
(0.383952 0.0445617 0)
(0.408764 0.0384877 0)
(0.43022 0.031243 0)
(0.447533 0.0225 0)
(0.45977 0.0118884 0)
(0.465821 -0.00109843 0)
(0.46437 -0.0168832 0)
(0.453447 -0.0364372 0)
(0.430889 -0.0612712 0)
(0.393563 -0.0938879 0)
(0.337615 -0.139654 0)
(0.256643 -0.210061 0)
(0.152502 -0.324489 0)
(0.0151451 -0.465665 0)
(-0.0171978 -0.441611 0)
(-0.0377432 0.235548 0)
(-0.048598 0.202735 0)
(0.0259936 0.152182 0)
(0.0976282 0.116654 0)
(0.164717 0.0904863 0)
(0.225363 0.0714253 0)
(0.279268 0.0577848 0)
(0.32713 0.047971 0)
(0.36992 0.0407893 0)
(0.408559 0.0354357 0)
(0.443813 0.0313557 0)
(0.476262 0.0281363 0)
(0.506303 0.0254492 0)
(0.534145 0.0230209 0)
(0.559815 0.0206164 0)
(0.58316 0.0180299 0)
(0.603863 0.0150793 0)
(0.621444 0.0115995 0)
(0.635269 0.00744061 0)
(0.644482 0.00244109 0)
(0.648216 -0.00352208 0)
(0.645289 -0.0108756 0)
(0.633884 -0.0199886 0)
(0.611998 -0.0315577 0)
(0.57629 -0.046884 0)
(0.523128 -0.069386 0)
(0.442661 -0.107348 0)
(0.33339 -0.187882 0)
(0.143237 -0.335725 0)
(0.0605769 -0.412691 0)
(0.231234 0.158592 0)
(0.291028 0.11686 0)
(0.439936 0.0756506 0)
(0.538241 0.0503555 0)
(0.604916 0.0341199 0)
(0.654341 0.02349 0)
(0.692679 0.0166313 0)
(0.723253 0.0122236 0)
(0.748354 0.00935259 0)
(0.769572 0.00744213 0)
(0.787968 0.00613615 0)
(0.804233 0.00520578 0)
(0.818802 0.00449592 0)
(0.831916 0.00389612 0)
(0.843657 0.00332409 0)
(0.853973 0.00271579 0)
(0.862698 0.0020205 0)
(0.869566 0.00119433 0)
(0.874229 0.000209049 0)
(0.87626 -0.00097712 0)
(0.875097 -0.0022872 0)
(0.870013 -0.00393163 0)
(0.860154 -0.00599575 0)
(0.844538 -0.00861155 0)
(0.820788 -0.0120457 0)
(0.787178 -0.0173532 0)
(0.732002 -0.026731 0)
(0.655387 -0.0487479 0)
(0.453933 -0.109889 0)
(0.31314 -0.177414 0)
)
;

boundaryField
{
    movingWall
    {
        type            fixedValue;
        value           uniform (1 0 0);
    }
    fixedWalls
    {
        type            noSlip;
    }
    frontAndBack
    {
        type            empty;
    }
}


// ************************************************************************* //
