/*--------------------------------*- C++ -*----------------------------------*\
  =========                 |
  \\      /  F ield         | OpenFOAM: The Open Source CFD Toolbox
   \\    /   O peration     | Website:  https://openfoam.org
    \\  /    A nd           | Version:  7
     \\/     M anipulation  |
\*---------------------------------------------------------------------------*/
FoamFile
{
    version     2.0;
    format      ascii;
    class       surfaceScalarField;
    location    "7.3";
    object      phi;
}
// * * * * * * * * * * * * * * * * * * * * * * * * * * * * * * * * * * * * * //

dimensions      [0 3 -1 0 0 0 0];

internalField   nonuniform List<scalar> 
1740
(
5.14987e-07
-5.15788e-07
-5.5108e-07
1.06607e-06
-3.3127e-06
2.76161e-06
-7.40554e-06
4.09284e-06
-1.2397e-05
4.99151e-06
-1.79157e-05
5.51868e-06
-2.36779e-05
5.76221e-06
-2.94713e-05
5.79339e-06
-3.51261e-05
5.65476e-06
-4.04884e-05
5.3623e-06
-4.54007e-05
4.91227e-06
-4.969e-05
4.2893e-06
-5.31651e-05
3.47508e-06
-5.56223e-05
2.45722e-06
-5.68603e-05
1.23799e-06
-5.67018e-05
-1.5853e-07
-5.50197e-05
-1.68204e-06
-5.17708e-05
-3.24896e-06
-4.70216e-05
-4.74917e-06
-4.09679e-05
-6.05363e-06
-3.39395e-05
-7.02848e-06
-2.63852e-05
-7.55432e-06
-1.88383e-05
-7.54686e-06
-1.18632e-05
-6.97505e-06
-5.99113e-06
-5.87211e-06
-1.65088e-06
-4.34025e-06
9.07923e-07
-2.5588e-06
1.69075e-06
-7.82825e-07
1.02639e-06
6.64371e-07
1.0264e-06
-1.0676e-06
5.51809e-07
-5.6379e-06
5.63637e-06
-1.36961e-05
1.08198e-05
-2.45584e-05
1.49552e-05
-3.74307e-05
1.78638e-05
-5.15623e-05
1.96503e-05
-6.63091e-05
2.0509e-05
-8.11324e-05
2.06167e-05
-9.55665e-05
2.00888e-05
-0.00010918
1.89753e-05
-0.000121541
1.72737e-05
-0.000132202
1.49504e-05
-0.000140694
1.19667e-05
-0.000146542
8.30524e-06
-0.000149298
3.99476e-06
-0.000148602
-8.55436e-07
-0.0001442
-6.08321e-06
-0.000136055
-1.13939e-05
-0.000124369
-1.6436e-05
-0.000109622
-2.08e-05
-9.2583e-05
-2.40677e-05
-7.42673e-05
-2.58701e-05
-5.5864e-05
-2.59502e-05
-3.86204e-05
-2.42186e-05
-2.37018e-05
-2.07907e-05
-1.20402e-05
-1.60018e-05
-4.18991e-06
-1.04091e-05
-1.77642e-07
-4.7951e-06
7.23516e-07
-2.36794e-07
1.74992e-06
-2.94801e-06
3.49981e-06
-1.14171e-05
1.41055e-05
-2.4622e-05
2.40246e-05
-4.1568e-05
3.19013e-05
-6.1196e-05
3.74918e-05
-8.25132e-05
4.09675e-05
-0.000104642
4.26376e-05
-0.000126816
4.27906e-05
-0.000148348
4.16216e-05
-0.000168592
3.92188e-05
-0.000186902
3.55833e-05
-0.000202617
3.06654e-05
-0.000215061
2.4411e-05
-0.000223566
1.68105e-05
-0.000227518
7.94708e-06
-0.000226417
-1.95691e-06
-0.000219946
-1.25541e-05
-0.000208066
-2.32734e-05
-0.000191074
-3.34286e-05
-0.000169645
-4.22291e-05
-0.000144843
-4.88693e-05
-0.000118076
-5.26377e-05
-9.09897e-05
-5.3036e-05
-6.53204e-05
-4.98879e-05
-4.26967e-05
-4.34144e-05
-2.4433e-05
-3.42655e-05
-1.13285e-05
-2.35136e-05
-3.49288e-06
-1.26307e-05
-2.505e-07
-3.47918e-06
1.49942e-06
-4.70654e-06
8.20635e-06
-1.69008e-05
2.62997e-05
-3.49866e-05
4.21104e-05
-5.75129e-05
5.44276e-05
-8.31501e-05
6.3129e-05
-0.000110712
6.85295e-05
-0.000139158
7.10837e-05
-0.000167569
7.12013e-05
-0.000195105
6.9158e-05
-0.000220965
6.50786e-05
-0.000244347
5.89649e-05
-0.00026443
5.0749e-05
-0.000280381
4.03615e-05
-0.000291376
2.78051e-05
-0.000296656
1.32275e-05
-0.0002956
-3.01284e-06
-0.000287801
-2.03529e-05
-0.000273179
-3.78956e-05
-0.000252052
-5.45554e-05
-0.000225202
-6.90791e-05
-0.000193891
-8.01802e-05
-0.000159821
-8.67083e-05
-0.000125017
-8.78394e-05
-9.16485e-05
-8.32566e-05
-6.17824e-05
-7.32806e-05
-3.71231e-05
-5.89248e-05
-1.87644e-05
-4.18723e-05
-7.00018e-06
-2.43949e-05
-1.23153e-06
-9.24783e-06
2.67889e-07
-6.25106e-06
1.44574e-05
-2.1863e-05
4.19116e-05
-4.44573e-05
6.47048e-05
-7.21008e-05
8.2071e-05
-0.000103178
9.42061e-05
-0.000136326
0.000101678
-0.000170383
0.00010514
-0.000204326
0.000105145
-0.000237221
0.000102053
-0.000268167
9.60242e-05
-0.000296254
8.70524e-05
-0.000320547
7.50418e-05
-0.000340081
5.98959e-05
-0.000353894
4.16177e-05
-0.000361075
2.04089e-05
-0.000360856
-3.23218e-06
-0.000352671
-2.85385e-05
-0.000336318
-5.4248e-05
-0.000312043
-7.88303e-05
-0.000280631
-0.000100491
-0.000243458
-0.000117354
-0.000202465
-0.000127701
-0.000160048
-0.000130256
-0.000118848
-0.000124457
-8.14516e-05
-0.000110677
-5.00566e-05
-9.03198e-05
-2.6158e-05
-6.57709e-05
-1.03163e-05
-4.02366e-05
-2.06543e-06
-1.74987e-05
-1.79755e-06
-7.59093e-06
2.20483e-05
-2.62769e-05
6.05976e-05
-5.29814e-05
9.14092e-05
-8.53096e-05
0.000114399
-0.000121366
0.000130263
-0.000159628
0.000139939
-0.000198837
0.000144349
-0.000237913
0.000144221
-0.000275873
0.000140013
-0.000311763
0.000131915
-0.000344615
0.000119904
-0.000373409
0.000103836
-0.000397073
8.35598e-05
-0.0004145
5.90454e-05
-0.000424599
3.05075e-05
-0.000426404
-1.42719e-06
-0.000419078
-3.58639e-05
-0.000402198
-7.11281e-05
-0.000375799
-0.00010523
-0.000340542
-0.000135747
-0.000297819
-0.000160077
-0.000249767
-0.000175754
-0.000199179
-0.000180844
-0.000149268
-0.000174367
-0.000103307
-0.000156638
-6.41841e-05
-0.000129443
-3.39711e-05
-9.59839e-05
-1.36101e-05
-6.05976e-05
-2.78503e-06
-2.83238e-05
-4.58258e-06
-8.76021e-06
3.08086e-05
-3.01927e-05
8.20301e-05
-6.06201e-05
0.000121837
-9.72337e-05
0.000151013
-0.000137883
0.000170912
-0.000180906
0.000182962
-0.000224982
0.000188425
-0.000269007
0.000188246
-0.000311994
0.000183
-0.000352987
0.000172909
-0.000390998
0.000157915
-0.000424959
0.000137797
-0.000453705
0.000112306
-0.000475978
8.13184e-05
-0.000490469
4.49982e-05
-0.000495886
3.98976e-06
-0.000491092
-4.06578e-05
-0.000475234
-8.69863e-05
-0.000447975
-0.000132489
-0.000409691
-0.000174032
-0.000361648
-0.000208119
-0.000306112
-0.000231289
-0.000246298
-0.000240658
-0.000186132
-0.000234533
-0.000129808
-0.000212963
-8.11911e-05
-0.00017806
-4.3207e-05
-0.000133968
-1.73611e-05
-8.64435e-05
-3.5298e-06
-4.21552e-05
-8.11237e-06
-9.78842e-06
4.0597e-05
-3.3669e-05
0.000105911
-6.74562e-05
0.000155624
-0.000107985
0.000191542
-0.000152888
0.000215815
-0.000200395
0.000230469
-0.000249153
0.000237183
-0.000298078
0.000237171
-0.000346224
0.000231146
-0.00039268
0.000219364
-0.000436483
0.000201718
-0.000476555
0.000177869
-0.000511657
0.000147407
-0.00054037
0.000110032
-0.000561121
6.5749e-05
-0.000572227
1.50961e-05
-0.000572087
-4.07974e-05
-0.000559261
-9.98123e-05
-0.000532831
-0.000158919
-0.000492662
-0.000214201
-0.000439705
-0.000261076
-0.000376221
-0.000294773
-0.000305831
-0.000311048
-0.000233309
-0.000307056
-0.000164054
-0.000282217
-0.000103308
-0.000238806
-5.52476e-05
-0.000182028
-2.22449e-05
-0.000119446
-4.49416e-06
-5.99059e-05
-1.26065e-05
-1.06923e-05
5.12893e-05
-3.67446e-05
0.000131963
-7.35462e-05
0.000192425
-0.000117636
0.000235632
-0.000166472
0.000264652
-0.000218212
0.000282209
-0.00027151
0.000290481
-0.00032534
0.000291001
-0.000378847
0.000284652
-0.000431215
0.000271733
-0.000481562
0.000252065
-0.000528839
0.000225146
-0.00057176
0.000190328
-0.000608751
0.000147023
-0.000637938
9.49361e-05
-0.000657184
3.43427e-05
-0.000664276
-3.37058e-05
-0.000657003
-0.000107085
-0.000633637
-0.000182285
-0.000593266
-0.000254572
-0.000536253
-0.000318089
-0.00046463
-0.000366396
-0.000382313
-0.000393364
-0.000294993
-0.000394376
-0.000209574
-0.000367635
-0.00013316
-0.000315221
-7.17532e-05
-0.000243435
-2.90743e-05
-0.000162125
-5.90492e-06
-8.30752e-05
-1.85114e-05
-1.14766e-05
6.27659e-05
-3.94311e-05
0.000159918
-7.89044e-05
0.000231899
-0.000126196
0.000282923
-0.000178632
0.000317087
-0.000234333
0.00033791
-0.000291998
0.000348145
-0.000350703
0.000349705
-0.000409731
0.000343681
-0.000468419
0.000330421
-0.000526016
0.000309662
-0.000581559
0.000280689
-0.000633756
0.000242525
-0.000680896
0.000194163
-0.000720796
0.000134836
-0.000750806
6.43527e-05
-0.000768016
-1.64959e-05
-0.000769258
-0.000105843
-0.000751778
-0.000199765
-0.000713593
-0.000292758
-0.000654135
-0.000377547
-0.000574862
-0.000445669
-0.000479717
-0.000488509
-0.000375228
-0.000498865
-0.000270022
-0.000472842
-0.000173611
-0.000411631
-9.45909e-05
-0.000322455
-3.87714e-05
-0.000217945
-8.01448e-06
-0.000113832
-2.65259e-05
-1.21365e-05
7.49023e-05
-4.17164e-05
0.000189498
-8.35036e-05
0.000273686
-0.000133608
0.000333027
-0.00018926
0.000372739
-0.000248577
0.000397228
-0.000310334
0.000409902
-0.000373749
0.00041312
-0.00043829
0.000408222
-0.000503496
0.000395627
-0.000568807
0.000374974
-0.000633403
0.000345284
-0.00069604
0.000305162
-0.000754914
0.000253037
-0.00080756
0.000187482
-0.000850816
0.000107609
-0.000880977
1.36648e-05
-0.000893918
-9.29018e-05
-0.00088563
-0.000208053
-0.000852793
-0.000325594
-0.000793532
-0.000436808
-0.000708263
-0.000530938
-0.000600472
-0.0005963
-0.00047718
-0.000622157
-0.000348733
-0.000601289
-0.00022755
-0.000532815
-0.00012576
-0.000424245
-5.23531e-05
-0.000291351
-1.11017e-05
-0.000155084
-3.76276e-05
-1.26621e-05
8.75644e-05
-4.35737e-05
0.000220409
-8.72878e-05
0.0003174
-0.000139765
0.000385504
-0.000198166
0.00043114
-0.000260627
0.000459689
-0.000326024
0.0004753
-0.000393745
0.000480841
-0.000463478
0.000477954
-0.000535007
0.000467156
-0.000608016
0.000447983
-0.000681882
0.00041915
-0.000755472
0.000378753
-0.000826959
0.000324524
-0.000893665
0.000254187
-0.000952
0.000165944
-0.000997442
5.9107e-05
-0.00102504
-6.52994e-05
-0.00102942
-0.000203672
-0.00100577
-0.00034925
-0.000950547
-0.000492031
-0.000862575
-0.00061891
-0.000744165
-0.00071471
-0.00060211
-0.000764212
-0.000448055
-0.000755345
-0.000297551
-0.000683319
-0.000167283
-0.000554513
-7.09195e-05
-0.000387715
-1.54786e-05
-0.000210524
-5.31062e-05
-1.30432e-05
0.000100608
-4.49752e-05
0.000252341
-9.01961e-05
0.000362621
-0.000144541
0.000439849
-0.000205114
0.000491713
-0.000270076
0.000524652
-0.000338413
0.000543636
-0.000409695
0.000552123
-0.000483847
0.000552107
-0.000560926
0.000544235
-0.000640888
0.000527945
-0.000723355
0.000501617
-0.000807372
0.00046277
-0.000891173
0.000408324
-0.000971987
0.000335001
-0.00104593
0.000239885
-0.00110798
0.000121162
-0.00115232
-2.09617e-05
-0.00117249
-0.000183506
-0.00116216
-0.000359573
-0.00111594
-0.000538252
-0.0010305
-0.00070435
-0.000906072
-0.00083914
-0.000748068
-0.000922216
-0.000568387
-0.000935026
-0.000385349
-0.000866356
-0.000221016
-0.000718846
-9.56308e-05
-0.0005131
-2.15017e-05
-0.000284653
-7.46079e-05
-1.32764e-05
0.000113884
-4.59129e-05
0.000284978
-9.21963e-05
0.000408904
-0.000147841
0.000495494
-0.000209884
0.000553756
-0.000276501
0.000591269
-0.000346777
0.000613912
-0.000420454
0.0006258
-0.000497688
0.000629341
-0.000578804
0.000625351
-0.00066404
0.00061318
-0.000753288
0.000590865
-0.000845824
0.000555306
-0.000940049
0.000502549
-0.00103327
0.000428217
-0.00112154
0.000328156
-0.00119967
0.000199297
-0.0012613
4.06698e-05
-0.00129932
-0.000145487
-0.00130616
-0.000352738
-0.00127457
-0.000569839
-0.00119873
-0.000780195
-0.00107584
-0.000962024
-0.000908453
-0.0010896
-0.000706928
-0.00113655
-0.000491022
-0.00108226
-0.000288305
-0.000921563
-0.000127638
-0.000673767
-2.95802e-05
-0.000382712
-0.000104188
-1.33734e-05
0.000127257
-4.64232e-05
0.000318027
-9.33306e-05
0.000455812
-0.000149663
0.000551826
-0.000212357
0.00061645
-0.000279572
0.000658484
-0.000350459
0.000684799
-0.000424903
0.000700244
-0.000503256
0.000707694
-0.000586076
0.00070817
-0.000673858
0.000700963
-0.000766765
0.000683772
-0.000864348
0.000652889
-0.000965279
0.000603481
-0.00106713
0.000530071
-0.00116624
0.000427257
-0.00125761
0.000290673
-0.00133501
0.00011807
-0.00139104
-8.94578e-05
-0.00141766
-0.000326118
-0.00140612
-0.000581384
-0.00134803
-0.000838282
-0.00123692
-0.00107313
-0.00107087
-0.00125565
-0.000856317
-0.00135111
-0.000611877
-0.0013267
-0.000369394
-0.00116405
-0.000167923
-0.000875237
-4.01701e-05
-0.000510465
-0.000144358
-1.33722e-05
0.00014063
-4.66188e-05
0.000351274
-9.37693e-05
0.000502962
-0.000150175
0.000608232
-0.000212615
0.00067889
-0.000279179
0.000725049
-0.000349042
0.000754662
-0.000422177
0.000773379
-0.000499075
0.000784593
-0.00058047
0.000789565
-0.000667064
0.000787557
-0.000759265
0.000775973
-0.000856922
0.000750546
-0.000959086
0.000705645
-0.00106381
0.000634795
-0.00116801
0.000531462
-0.00126742
0.000390083
-0.00135659
0.000207238
-0.00142833
-1.77232e-05
-0.00147528
-0.000279163
-0.00148772
-0.00056895
-0.00145524
-0.000870757
-0.00136755
-0.00116083
-0.00121706
-0.00140613
-0.0010037
-0.00156447
-0.000741247
-0.00158915
-0.000462588
-0.0014427
-0.000217005
-0.00112082
-5.37414e-05
-0.000673728
-0.0001981
-1.335e-05
0.00015398
-4.6727e-05
0.000384651
-9.38744e-05
0.00055011
-0.000149804
0.000664162
-0.000211049
0.000740135
-0.000275574
0.000789573
-0.000342522
0.000821609
-0.000411901
0.000842758
-0.000484277
0.000856969
-0.000560485
0.000865773
-0.000641373
0.000868444
-0.000727555
0.000862156
-0.000819195
0.000842186
-0.000915808
0.000802258
-0.00101612
0.000735103
-0.00111795
0.000633293
-0.00121817
0.000490302
-0.00131256
0.000301628
-0.00139585
6.55678e-05
-0.00146067
-0.000214339
-0.00149833
-0.000531293
-0.00149725
-0.000871835
-0.00144389
-0.00121418
-0.0013247
-0.00152532
-0.00113104
-0.00175813
-0.00086773
-0.00185247
-0.00056334
-0.00174709
-0.000274521
-0.00140964
-7.0723e-05
-0.000877526
-0.000268823
-1.34408e-05
0.00016742
-4.71367e-05
0.000418347
-9.42732e-05
0.000597246
-0.000149325
0.000719214
-0.000208471
0.00079928
-0.000269494
0.000850597
-0.000331474
0.000883589
-0.000394412
0.000905697
-0.000458896
0.000921453
-0.000525805
0.000932682
-0.000596073
0.000938713
-0.000670495
0.000936577
-0.000749559
0.00092125
-0.000833327
0.000886026
-0.000921344
0.00082312
-0.00101258
0.000724534
-0.00110539
0.000583104
-0.00119732
0.000393559
-0.00128506
0.000153307
-0.00136296
-0.000136434
-0.00142381
-0.000470441
-0.00145631
-0.000839343
-0.00144506
-0.00122543
-0.00137142
-0.00159897
-0.00121752
-0.00191203
-0.000975708
-0.00209428
-0.000663672
-0.00205913
-0.00033877
-0.00173454
-9.14472e-05
-0.00112485
-0.00036027
-1.38621e-05
0.000181283
-4.8462e-05
0.000452947
-9.59442e-05
0.000644728
-0.000149954
0.000773224
-0.000206197
0.000855524
-0.000262256
0.000906655
-0.00031715
0.000938483
-0.000370882
0.000959428
-0.000424044
0.000974615
-0.000477534
0.000986172
-0.000532353
0.000993532
-0.000589465
0.000993689
-0.000649712
0.000981497
-0.000713762
0.000950076
-0.00078209
0.000891448
-0.000854954
0.000797398
-0.000932335
0.000660484
-0.00101378
0.000475005
-0.00109815
0.000237674
-0.00118224
-5.23377e-05
-0.00126105
-0.000391632
-0.00132487
-0.000775522
-0.00135842
-0.00119188
-0.00133997
-0.00161742
-0.00124359
-0.00200842
-0.00104755
-0.00229031
-0.00075241
-0.00235427
-0.00040634
-0.00208061
-0.000116132
-0.00141506
-0.000476402
-1.49589e-05
0.000196241
-5.16349e-05
0.000489623
-0.000100325
0.000693418
-0.000153438
0.000826337
-0.000206113
0.000908198
-0.000255775
0.000956317
-0.000301477
0.000984186
-0.000343292
0.00100124
-0.000381868
0.00101319
-0.000418149
0.00102245
-0.000453222
0.0010286
-0.00048825
0.00102872
-0.000524463
0.00101771
-0.000563183
0.000988796
-0.000605857
0.000934122
-0.00065405
0.000845592
-0.000709381
0.000715815
-0.000773326
0.00053895
-0.000846838
0.000311187
-0.00092969
3.05143e-05
-0.00101886
-0.00030246
-0.00110771
-0.000686678
-0.00118292
-0.00111667
-0.00122253
-0.0015778
-0.00119549
-0.00203547
-0.00106709
-0.00241871
-0.000816689
-0.00260467
-0.000472077
-0.00242522
-0.000144927
-0.00174221
-0.000621329
-1.72883e-05
0.00021353
-5.80549e-05
0.000530389
-0.000109452
0.000744815
-0.000162137
0.000879023
-0.000210662
0.000956722
-0.000252481
0.000998136
-0.000286887
0.00101859
-0.000314194
0.00102855
-0.000335229
0.00103423
-0.000351067
0.00103829
-0.000362947
0.00104048
-0.000372282
0.00103805
-0.000380731
0.00102616
-0.000390284
0.000998349
-0.000403338
0.000947176
-0.000422688
0.000864942
-0.000451429
0.000744556
-0.000492738
0.000580259
-0.000549454
0.000367903
-0.000623655
0.000104715
-0.000714898
-0.000211216
-0.00081977
-0.000581806
-0.000928489
-0.00100795
-0.00102184
-0.00148445
-0.00106785
-0.00198945
-0.00102266
-0.00246391
-0.000844003
-0.00278332
-0.000529416
-0.00273981
-0.000177958
-0.00209366
-0.000799287
-2.17829e-05
0.000235313
-6.98351e-05
0.000578442
-0.000126147
0.000801126
-0.000179057
0.000931934
-0.000222719
0.00100038
-0.000255023
0.00103044
-0.00027588
0.00103945
-0.000286127
0.0010388
-0.000286961
0.00103506
-0.000279726
0.00103106
-0.000265903
0.00102666
-0.000247213
0.00101936
-0.000225759
0.0010047
-0.00020416
0.00097675
-0.000185673
0.00092869
-0.00017416
0.000853429
-0.000173906
0.000744302
-0.000189428
0.000595781
-0.000225064
0.000403538
-0.000284466
0.000164117
-0.000369659
-0.000126023
-0.000480555
-0.00047091
-0.000611361
-0.000877143
-0.000748193
-0.00134762
-0.000862807
-0.00187484
-0.000908062
-0.00241865
-0.000823629
-0.00286776
-0.000570759
-0.00299268
-0.000215163
-0.00244926
-0.00101445
-3.00765e-05
0.000265389
-9.01993e-05
0.000638564
-0.000154202
0.000865129
-0.000207715
0.000985447
-0.000245123
0.00103779
-0.000265511
0.00105083
-0.000269997
0.00104393
-0.000260337
0.00102914
-0.000238349
0.00101307
-0.0002058
0.000998507
-0.000164501
0.000985363
-0.000116511
0.000971372
-6.4349e-05
0.000952542
-1.11996e-05
0.000923601
3.90873e-05
0.000878403
8.19291e-05
0.000810587
0.000112074
0.000714157
0.000124044
0.000583811
0.000112447
0.000415136
7.23449e-05
0.000204219
-4.8087e-07
-5.31971e-05
-0.000106663
-0.000364727
-0.000246822
-0.000736984
-0.000413411
-0.00118103
-0.000585759
-0.00170249
-0.000720449
-0.00228396
-0.000746171
-0.00284204
-0.000587156
-0.0031517
-0.000255552
-0.00278086
-0.00127
-4.51291e-05
0.000310518
-0.000124037
0.000717473
-0.000198354
0.000939446
-0.000251394
0.00103849
-0.000279263
0.00106566
-0.00028352
0.00105508
-0.000267322
0.00102774
-0.000233833
0.000995648
-0.000185768
0.000965007
-0.000125456
0.000938195
-5.50857e-05
0.000914993
2.29788e-05
0.000893307
0.000105934
0.000869587
0.000190322
0.000839213
0.00027186
0.000796866
0.000345481
0.000736966
0.000405527
0.000654111
0.00044597
0.000543368
0.000460789
0.000400316
0.000444378
0.00022063
0.000390949
2.31561e-07
0.000296697
-0.000270475
0.000158395
-0.000598681
-2.35348e-05
-0.000999103
-0.000239171
-0.00148685
-0.000455891
-0.00206724
-0.000601026
-0.0026969
-0.000566561
-0.00318616
-0.000295381
-0.00305204
-0.00156538
-7.23498e-05
0.000382868
-0.000178356
0.000823479
-0.000263138
0.00102423
-0.00031037
0.00108572
-0.000320909
0.0010762
-0.000300759
0.00103493
-0.000256197
0.000983175
-0.000192337
0.000931788
-0.000113034
0.000885704
-2.12458e-05
0.000846407
8.04832e-05
0.000813264
0.000189651
0.000784139
0.000303391
0.000755846
0.000418217
0.000724387
0.00052986
0.000685223
0.000633255
0.00063357
0.00072266
0.000564706
0.000791874
0.000474154
0.000834499
0.000357691
0.000844079
0.00021105
0.000814885
2.94264e-05
0.000739479
-0.000195069
0.000612106
-0.000471309
0.000426849
-0.000813846
0.000182895
-0.0012429
-0.000102899
-0.00178145
-0.000371805
-0.00242799
-0.000490379
-0.00306759
-0.000325222
-0.0032172
-0.00189061
-0.000121375
0.000504243
-0.00026116
0.000963263
-0.000347339
0.00111041
-0.000372597
0.00111098
-0.00034805
0.00105165
-0.000286928
0.000973812
-0.00019982
0.000896067
-9.42005e-05
0.000826169
2.49265e-05
0.000766577
0.00015412
0.000717214
0.000290815
0.000676569
0.000432677
0.000642277
0.000577179
0.000611344
0.000721265
0.000580302
0.000861136
0.000545351
0.000992182
0.000502524
0.00110903
0.00044786
0.00120567
0.000377513
0.00127563
0.000287734
0.00131202
0.000174658
0.00130746
3.39871e-05
0.00125378
-0.00014139
0.00114175
-0.00035928
0.000960568
-0.000632664
0.000699603
-0.000981933
0.000358478
-0.00144032
-2.21962e-05
-0.00204732
-0.000328056
-0.00276173
-0.000331265
-0.00321399
-0.00222187
-0.000208153
0.000712396
-0.000371291
0.0011264
-0.000421891
0.00116101
-0.000383911
0.001073
-0.000287292
0.000955035
-0.000155208
0.000841728
-2.7213e-06
0.00074358
0.000161098
0.000662349
0.000331
0.000596675
0.000504051
0.000544162
0.000678464
0.000502157
0.000852842
0.000467898
0.00102565
0.000438533
0.00119485
0.000411107
0.00135762
0.000382578
0.00151028
0.000349863
0.00164823
0.00030991
0.00176602
0.000259727
0.00185739
0.000196361
0.0019152
0.000116853
0.00193077
1.84133e-05
0.00189517
-0.000105787
0.00179644
-0.000260549
0.00162014
-0.000456366
0.00134859
-0.000710387
0.000964381
-0.00105611
0.000471424
-0.00155436
-2.48035e-05
-0.0022655
-0.000271588
-0.00296721
-0.00249346
-0.000343952
0.00105635
-0.000436482
0.00121893
-0.000347154
0.00107168
-0.000161344
0.000887186
6.59229e-05
0.000727768
0.000306259
0.000601392
0.000545548
0.000504292
0.000777578
0.000430319
0.00100029
0.00037396
0.00121359
0.000330862
0.00141813
0.000297618
0.0016146
0.000271433
0.00180326
0.000249871
0.00198367
0.0002307
0.00215444
0.000211803
0.00231316
0.000191147
0.00245629
0.000166781
0.00257919
0.000136824
0.00267617
9.93766e-05
0.00274048
5.25478e-05
0.00276319
-4.29439e-06
0.00273463
-7.72299e-05
0.00264128
-0.000167201
0.00246671
-0.00028179
0.00218889
-0.000432569
0.00177901
-0.000646237
0.00120671
-0.000982057
0.000516006
-0.0015748
-2.37167e-05
-0.00242749
-0.00251717
-0.000303937
0.00136028
-5.27943e-05
0.000967789
0.000374624
0.000644261
0.000794545
0.000467265
0.00117643
0.000345883
0.00151632
0.000261506
0.00181686
0.000203752
0.00208329
0.000163885
0.00232146
0.000135789
0.00253672
0.000115604
0.0027335
0.000100835
0.00291521
8.97225e-05
0.00308416
8.09258e-05
0.00324151
7.33505e-05
0.00338726
6.60516e-05
0.00352022
5.81819e-05
0.00363803
4.89728e-05
0.00373713
3.77269e-05
0.00381264
2.38674e-05
0.00385817
7.01174e-06
0.00386883
-1.49507e-05
0.00383287
-4.12705e-05
0.0037389
-7.32293e-05
0.0035713
-0.000114189
0.00330709
-0.000168356
0.00291062
-0.000249767
0.00232284
-0.000394284
0.00148771
-0.000739668
0.000505503
-0.00144528
-0.00201167
0.00136028
0.00232807
0.00297234
0.0034396
0.00378548
0.00404699
0.00425074
0.00441463
0.00455041
0.00466602
0.00476685
0.00485658
0.0049375
0.00501085
0.0050769
0.00513509
0.00518406
0.00522179
0.00524565
0.00525266
0.00523771
0.00519644
0.00512321
0.00500903
0.00484067
0.0045909
0.00419662
0.00345695
0.00201167
)
;

boundaryField
{
    movingWall
    {
        type            calculated;
        value           uniform 0;
    }
    fixedWalls
    {
        type            calculated;
        value           uniform 0;
    }
    frontAndBack
    {
        type            empty;
        value           nonuniform 0();
    }
}


// ************************************************************************* //
