/*--------------------------------*- C++ -*----------------------------------*\
  =========                 |
  \\      /  F ield         | OpenFOAM: The Open Source CFD Toolbox
   \\    /   O peration     | Website:  https://openfoam.org
    \\  /    A nd           | Version:  7
     \\/     M anipulation  |
\*---------------------------------------------------------------------------*/
FoamFile
{
    version     2.0;
    format      ascii;
    class       volVectorField;
    location    "4.8";
    object      U;
}
// * * * * * * * * * * * * * * * * * * * * * * * * * * * * * * * * * * * * * //

dimensions      [0 1 -1 0 0 0 0];

internalField   nonuniform List<vector> 
900
(
(6.39404e-05 -6.32363e-05 0)
(3.58608e-05 9.89451e-06 0)
(-0.000267984 9.64679e-05 0)
(-0.000781227 0.000159761 0)
(-0.00144325 0.000198423 0)
(-0.00219659 0.000217927 0)
(-0.00299381 0.000224429 0)
(-0.0037998 0.000222564 0)
(-0.00458883 0.000215093 0)
(-0.00534084 0.000203277 0)
(-0.00603833 0.000187336 0)
(-0.00666416 0.000166837 0)
(-0.00720022 0.000141039 0)
(-0.00762702 0.000109178 0)
(-0.00792398 7.07355e-05 0)
(-0.00807066 2.56991e-05 0)
(-0.00804852 -2.52062e-05 0)
(-0.00784336 -8.04355e-05 0)
(-0.00744819 -0.000137333 0)
(-0.00686616 -0.000192261 0)
(-0.00611305 -0.000240779 0)
(-0.00521894 -0.000278015 0)
(-0.00422852 -0.000299183 0)
(-0.00319962 -0.000300138 0)
(-0.00220002 -0.000277833 0)
(-0.00130291 -0.000230651 0)
(-0.00057989 -0.000159042 0)
(-8.86259e-05 -6.82606e-05 0)
(0.000126426 2.38839e-05 0)
(7.9805e-05 7.92819e-05 0)
(-8.05651e-06 -3.76004e-05 0)
(-0.000366355 0.000363919 0)
(-0.00130803 0.000785194 0)
(-0.00267781 0.00111248 0)
(-0.00436618 0.00133157 0)
(-0.00626283 0.00145556 0)
(-0.00826625 0.00150485 0)
(-0.0102934 0.00149777 0)
(-0.0122779 0.00144725 0)
(-0.0141648 0.00136065 0)
(-0.0159056 0.00124081 0)
(-0.0174543 0.0010875 0)
(-0.0187647 0.000898916 0)
(-0.0197897 0.000673193 0)
(-0.0204817 0.000409848 0)
(-0.0207958 0.000111071 0)
(-0.0206932 -0.000217251 0)
(-0.0201466 -0.000564111 0)
(-0.0191458 -0.000913536 0)
(-0.0177041 -0.00124468 0)
(-0.0158628 -0.00153296 0)
(-0.0136945 -0.00175208 0)
(-0.011303 -0.00187691 0)
(-0.00881929 -0.00188664 0)
(-0.00639418 -0.00176792 0)
(-0.00418642 -0.00151776 0)
(-0.00234655 -0.00114729 0)
(-0.000993132 -0.000689663 0)
(-0.000194182 -0.000216488 0)
(3.07776e-05 0.000124955 0)
(-9.99383e-05 0.000269809 0)
(-0.00082381 0.00131439 0)
(-0.00239408 0.0023135 0)
(-0.00452907 0.00309866 0)
(-0.00707918 0.00363942 0)
(-0.00990317 0.00395544 0)
(-0.0128664 0.00408422 0)
(-0.0158543 0.00406312 0)
(-0.0187719 0.00392091 0)
(-0.0215385 0.00367567 0)
(-0.0240819 0.003336 0)
(-0.0263337 0.00290361 0)
(-0.0282268 0.00237669 0)
(-0.029694 0.00175338 0)
(-0.0306691 0.00103526 0)
(-0.031091 0.000230522 0)
(-0.0309077 -0.000643365 0)
(-0.0300841 -0.00155718 0)
(-0.0286098 -0.00246969 0)
(-0.0265066 -0.0033283 0)
(-0.0238347 -0.00407192 0)
(-0.0206969 -0.00463612 0)
(-0.0172382 -0.00496011 0)
(-0.0136402 -0.00499487 0)
(-0.0101095 -0.00471132 0)
(-0.00686151 -0.00410824 0)
(-0.00409808 -0.00322069 0)
(-0.00197476 -0.0021314 0)
(-0.000585869 -0.000987937 0)
(-4.16543e-05 -6.00384e-05 0)
(-0.000177318 0.000819373 0)
(-0.00123408 0.00276448 0)
(-0.00338395 0.00449132 0)
(-0.00620436 0.00582883 0)
(-0.00950054 0.00674987 0)
(-0.013105 0.00728836 0)
(-0.0168595 0.00750214 0)
(-0.0206286 0.00744936 0)
(-0.0242984 0.0071762 0)
(-0.0277703 0.00671295 0)
(-0.0309555 0.00607516 0)
(-0.0337697 0.00526751 0)
(-0.0361303 0.00428909 0)
(-0.0379549 0.00313913 0)
(-0.0391632 0.00182278 0)
(-0.0396806 0.000356613 0)
(-0.0394442 -0.00122658 0)
(-0.0384114 -0.00287476 0)
(-0.0365688 -0.00451489 0)
(-0.033942 -0.0060546 0)
(-0.0306035 -0.00738728 0)
(-0.0266779 -0.00840103 0)
(-0.0223413 -0.00899093 0)
(-0.0178151 -0.00907348 0)
(-0.0133514 -0.00860132 0)
(-0.00921281 -0.00757671 0)
(-0.00564471 -0.00606375 0)
(-0.00283734 -0.00420021 0)
(-0.000919952 -0.00221084 0)
(-9.86225e-05 -0.000451794 0)
(-0.00023777 0.00157576 0)
(-0.00158116 0.00466308 0)
(-0.00424595 0.00725279 0)
(-0.00767421 0.00921581 0)
(-0.011624 0.0105534 0)
(-0.0159019 0.0113266 0)
(-0.0203301 0.0116195 0)
(-0.0247582 0.0115136 0)
(-0.02906 0.0110741 0)
(-0.0331259 0.010344 0)
(-0.0368562 0.00934629 0)
(-0.0401557 0.00808879 0)
(-0.0429303 0.0065715 0)
(-0.0450858 0.0047948 0)
(-0.0465288 0.00276777 0)
(-0.0471715 0.000516209 0)
(-0.0469381 -0.00191038 0)
(-0.0457742 -0.00443372 0)
(-0.0436577 -0.00694422 0)
(-0.0406111 -0.00930315 0)
(-0.0367117 -0.0113501 0)
(-0.0320986 -0.0129163 0)
(-0.0269748 -0.0138433 0)
(-0.021599 -0.0140055 0)
(-0.0162697 -0.0133329 0)
(-0.0112999 -0.0118313 0)
(-0.00698422 -0.00959672 0)
(-0.0035533 -0.00682555 0)
(-0.00117385 -0.00381772 0)
(-0.000132797 -0.000997756 0)
(-0.000284695 0.00250402 0)
(-0.00187113 0.0069544 0)
(-0.00498685 0.0105363 0)
(-0.00895299 0.0131932 0)
(-0.0134819 0.0149777 0)
(-0.0183546 0.0159921 0)
(-0.0233756 0.0163553 0)
(-0.0283835 0.0161767 0)
(-0.0332445 0.015542 0)
(-0.0378431 0.014508 0)
(-0.0420733 0.0131048 0)
(-0.0458332 0.0113426 0)
(-0.0490204 0.00922134 0)
(-0.0515299 0.00674092 0)
(-0.0532554 0.00391289 0)
(-0.0540935 0.000771113 0)
(-0.0539506 -0.00261841 0)
(-0.0527532 -0.00614993 0)
(-0.0504619 -0.00967372 0)
(-0.0470859 -0.0129983 0)
(-0.0426975 -0.0158998 0)
(-0.037444 -0.0181405 0)
(-0.0315519 -0.019495 0)
(-0.0253208 -0.0197834 0)
(-0.0191046 -0.0189048 0)
(-0.0132805 -0.0168658 0)
(-0.00820665 -0.0137985 0)
(-0.00416606 -0.00996565 0)
(-0.00136444 -0.00575063 0)
(-0.000148191 -0.00165458 0)
(-0.000322353 0.00357479 0)
(-0.00211707 0.00958488 0)
(-0.00562948 0.0142798 0)
(-0.0100757 0.017696 0)
(-0.0151262 0.0199564 0)
(-0.0205372 0.0212192 0)
(-0.026098 0.0216467 0)
(-0.0316389 0.021382 0)
(-0.0370223 0.0205339 0)
(-0.0421307 0.0191738 0)
(-0.0468563 0.0173386 0)
(-0.051094 0.0150392 0)
(-0.0547352 0.0122727 0)
(-0.0576655 0.00903557 0)
(-0.0597645 0.00533819 0)
(-0.0609092 0.00121878 0)
(-0.0609817 -0.00324297 0)
(-0.0598798 -0.00791512 0)
(-0.057534 -0.0126057 0)
(-0.0539265 -0.0170641 0)
(-0.0491117 -0.0209918 0)
(-0.0432346 -0.0240653 0)
(-0.036542 -0.0259727 0)
(-0.0293797 -0.0264602 0)
(-0.0221723 -0.0253808 0)
(-0.0153836 -0.0227361 0)
(-0.00946037 -0.0187001 0)
(-0.00475723 -0.0136177 0)
(-0.0015246 -0.00797897 0)
(-0.00015148 -0.00239189 0)
(-0.000354221 0.00476719 0)
(-0.0023324 0.012513 0)
(-0.00620063 0.0184338 0)
(-0.0110836 0.0226735 0)
(-0.0166138 0.025441 0)
(-0.0225254 0.0269631 0)
(-0.0285941 0.0274557 0)
(-0.034645 0.027101 0)
(-0.0405404 0.0260348 0)
(-0.0461646 0.024344 0)
(-0.051412 0.0220713 0)
(-0.0561778 0.0192261 0)
(-0.0603504 0.015799 0)
(-0.0638071 0.0117779 0)
(-0.0664121 0.00716569 0)
(-0.0680192 0.00199841 0)
(-0.0684782 -0.00363686 0)
(-0.0676463 -0.00958665 0)
(-0.0654078 -0.0156172 0)
(-0.0616988 -0.0214135 0)
(-0.0565362 -0.0265887 0)
(-0.0500463 -0.0307119 0)
(-0.0424879 -0.0333559 0)
(-0.0342574 -0.0341616 0)
(-0.0258693 -0.0329106 0)
(-0.0179065 -0.0295873 0)
(-0.0109421 -0.0244142 0)
(-0.00543451 -0.0178455 0)
(-0.00169422 -0.0105183 0)
(-0.000148869 -0.00319899 0)
(-0.000382732 0.00606774 0)
(-0.00252838 0.0157102 0)
(-0.00672498 0.0229638 0)
(-0.0120153 0.0280908 0)
(-0.0179978 0.0313996 0)
(-0.0243867 0.0331979 0)
(-0.0309471 0.0337644 0)
(-0.0375018 0.0333276 0)
(-0.0439166 0.032054 0)
(-0.0500819 0.0300472 0)
(-0.0558991 0.027355 0)
(-0.0612681 0.0239825 0)
(-0.0660783 0.0199089 0)
(-0.0702011 0.0151064 0)
(-0.0734856 0.0095617 0)
(-0.0757592 0.00329821 0)
(-0.0768322 -0.00360039 0)
(-0.0765074 -0.0109691 0)
(-0.0746022 -0.0185371 0)
(-0.0709818 -0.0259221 0)
(-0.0655963 -0.0326353 0)
(-0.0585269 -0.0381107 0)
(-0.0500261 -0.041765 0)
(-0.0405395 -0.0430867 0)
(-0.0306922 -0.0417425 0)
(-0.0212287 -0.0376751 0)
(-0.0129047 -0.0311612 0)
(-0.0063343 -0.0228022 0)
(-0.00192072 -0.0134444 0)
(-0.000146257 -0.00408815 0)
(-0.000409499 0.0074686 0)
(-0.00271373 0.019159 0)
(-0.0072229 0.0278481 0)
(-0.0129035 0.0339262 0)
(-0.0193222 0.0378134 0)
(-0.0261758 0.0399102 0)
(-0.0332215 0.0405681 0)
(-0.0402832 0.0400691 0)
(-0.0472342 0.0386149 0)
(-0.0539762 0.0363278 0)
(-0.060423 0.0332604 0)
(-0.0664854 0.0294101 0)
(-0.0720595 0.0247391 0)
(-0.0770156 0.0191955 0)
(-0.0811911 0.0127376 0)
(-0.0843856 0.00536156 0)
(-0.0863646 -0.00286906 0)
(-0.0868617 -0.0117941 0)
(-0.0856036 -0.0211184 0)
(-0.082352 -0.0303963 0)
(-0.0769508 -0.039025 0)
(-0.069394 -0.0462711 0)
(-0.059894 -0.0513413 0)
(-0.0489315 -0.0535014 0)
(-0.0372589 -0.0522329 0)
(-0.0258346 -0.0473892 0)
(-0.0156753 -0.0392976 0)
(-0.00763298 -0.0287563 0)
(-0.00226398 -0.0169092 0)
(-0.000150369 -0.00509872 0)
(-0.000435561 0.00896602 0)
(-0.00289487 0.0228507 0)
(-0.00771016 0.0330757 0)
(-0.0137732 0.0401684 0)
(-0.0206202 0.0446728 0)
(-0.0279321 0.0470943 0)
(-0.0354606 0.0478683 0)
(-0.0430342 0.047338 0)
(-0.0505386 0.0457461 0)
(-0.0578928 0.0432364 0)
(-0.0650296 0.0398661 0)
(-0.0718787 0.0356229 0)
(-0.0783511 0.0304458 0)
(-0.0843248 0.0242486 0)
(-0.0896314 0.0169468 0)
(-0.0940463 0.00848831 0)
(-0.0972868 -0.00110753 0)
(-0.0990052 -0.0117027 0)
(-0.0988119 -0.0230118 0)
(-0.0963269 -0.0345384 0)
(-0.0912357 -0.0455603 0)
(-0.0833861 -0.055143 0)
(-0.0728954 -0.062215 0)
(-0.0602432 -0.0657218 0)
(-0.0463118 -0.0648501 0)
(-0.0323278 -0.0592759 0)
(-0.0196729 -0.049351 0)
(-0.00956018 -0.0361257 0)
(-0.00280224 -0.0211651 0)
(-0.000169923 -0.00630477 0)
(-0.000461583 0.0105591 0)
(-0.00307658 0.0267835 0)
(-0.00819872 0.0386434 0)
(-0.0146432 0.046813 0)
(-0.0219151 0.0519728 0)
(-0.0296799 0.0547468 0)
(-0.0376862 0.0556656 0)
(-0.0457707 0.0551438 0)
(-0.0538366 0.0534711 0)
(-0.0618264 0.0508175 0)
(-0.0697003 0.0472463 0)
(-0.0774166 0.0427336 0)
(-0.0849123 0.0371901 0)
(-0.092085 0.0304852 0)
(-0.098773 0.0224746 0)
(-0.104735 0.0130347 0)
(-0.109634 0.00210844 0)
(-0.113041 -0.0102345 0)
(-0.114435 -0.023749 0)
(-0.113243 -0.0379192 0)
(-0.108934 -0.0519125 0)
(-0.101136 -0.0645659 0)
(-0.0897898 -0.0744535 0)
(-0.0753074 -0.0800727 0)
(-0.058672 -0.0801544 0)
(-0.0414186 -0.0740473 0)
(-0.0254149 -0.0620511 0)
(-0.0124088 -0.0455167 0)
(-0.00363723 -0.0265936 0)
(-0.00021653 -0.00782594 0)
(-0.000488076 0.0122492 0)
(-0.00326289 0.0309607 0)
(-0.0086986 0.0445542 0)
(-0.0155282 0.0538598 0)
(-0.0232227 0.0597095 0)
(-0.0314318 0.0628607 0)
(-0.0399021 0.0639531 0)
(-0.0484822 0.0634834 0)
(-0.0570974 0.0617973 0)
(-0.0657207 0.0590962 0)
(-0.0743484 0.0554532 0)
(-0.082978 0.0508332 0)
(-0.0915859 0.0451148 0)
(-0.100104 0.0381131 0)
(-0.108391 0.0296066 0)
(-0.116205 0.0193722 0)
(-0.123171 0.00723524 0)
(-0.12877 -0.0068616 0)
(-0.13233 -0.022757 0)
(-0.133059 -0.039971 0)
(-0.130153 -0.0575912 0)
(-0.122936 -0.0742141 0)
(-0.111073 -0.0879857 0)
(-0.0947976 -0.0968066 0)
(-0.0751144 -0.0987349 0)
(-0.0538596 -0.0925533 0)
(-0.0334984 -0.0783422 0)
(-0.0165373 -0.0577589 0)
(-0.00489788 -0.0337389 0)
(-0.000305433 -0.00984069 0)
(-0.000515652 0.0140397 0)
(-0.00345829 0.0353908 0)
(-0.00922043 0.0508155 0)
(-0.0164426 0.0613105 0)
(-0.0245564 0.0678759 0)
(-0.0331934 0.0714202 0)
(-0.042099 0.0727083 0)
(-0.0511361 0.0723319 0)
(-0.0602568 0.0707025 0)
(-0.0694707 0.0680611 0)
(-0.078818 0.064496 0)
(-0.0883459 0.0599636 0)
(-0.0980835 0.0543093 0)
(-0.108013 0.0472859 0)
(-0.118032 0.0385765 0)
(-0.127917 0.027827 0)
(-0.137273 0.0146985 0)
(-0.145502 -0.00104652 0)
(-0.151782 -0.0194096 0)
(-0.155094 -0.0400202 0)
(-0.154318 -0.0619413 0)
(-0.148408 -0.0835465 0)
(-0.13664 -0.102504 0)
(-0.118927 -0.115972 0)
(-0.0961364 -0.121075 0)
(-0.0703056 -0.115687 0)
(-0.0445439 -0.0993502 0)
(-0.0223612 -0.0739226 0)
(-0.00674329 -0.0433396 0)
(-0.000456686 -0.0126013 0)
(-0.000545368 0.0159366 0)
(-0.00366947 0.040088 0)
(-0.00977909 0.0574402 0)
(-0.0174058 0.0691677 0)
(-0.025933 0.0764592 0)
(-0.0349707 0.080396 0)
(-0.0442621 0.0818863 0)
(-0.0536863 0.0816317 0)
(-0.0632254 0.0801216 0)
(-0.0729294 0.0776457 0)
(-0.0828886 0.074315 0)
(-0.0932073 0.0700834 0)
(-0.103978 0.0647643 0)
(-0.115245 0.0580435 0)
(-0.126968 0.0494937 0)
(-0.138959 0.0386004 0)
(-0.15083 0.0248153 0)
(-0.16193 0.00765507 0)
(-0.171319 -0.0131363 0)
(-0.177771 -0.0373758 0)
(-0.179858 -0.0641877 0)
(-0.176129 -0.0917848 0)
(-0.165385 -0.117362 0)
(-0.147049 -0.137232 0)
(-0.121616 -0.147333 0)
(-0.0910779 -0.144185 0)
(-0.0590815 -0.126267 0)
(-0.030327 -0.0952979 0)
(-0.00936641 -0.0563529 0)
(-0.000697895 -0.0164513 0)
(-0.00057919 0.0179504 0)
(-0.00390751 0.0450758 0)
(-0.0103984 0.0644483 0)
(-0.0184485 0.0774352 0)
(-0.0273812 0.0854394 0)
(-0.0367786 0.0897407 0)
(-0.0463807 0.0914126 0)
(-0.056083 0.0912832 0)
(-0.0658989 0.0899322 0)
(-0.0759201 0.0877082 0)
(-0.0862877 0.0847542 0)
(-0.097166 0.0810285 0)
(-0.108714 0.0763175 0)
(-0.121048 0.0702391 0)
(-0.134198 0.0622457 0)
(-0.148037 0.0516396 0)
(-0.162214 0.0376232 0)
(-0.176079 0.0194085 0)
(-0.188625 -0.00359379 0)
(-0.198488 -0.0314837 0)
(-0.204004 -0.0635452 0)
(-0.203362 -0.0979477 0)
(-0.194851 -0.1315 0)
(-0.177258 -0.159678 0)
(-0.150402 -0.17705 0)
(-0.115826 -0.178313 0)
(-0.0773544 -0.160116 0)
(-0.0408539 -0.1233 0)
(-0.0129975 -0.0739615 0)
(-0.00106972 -0.0218458 0)
(-0.000620679 0.0200994 0)
(-0.00419099 0.0503923 0)
(-0.0111173 0.0718724 0)
(-0.0196217 0.0861203 0)
(-0.0289504 0.0947878 0)
(-0.0386513 0.0993857 0)
(-0.0484588 0.101178 0)
(-0.058285 0.101136 0)
(-0.0681732 0.0999424 0)
(-0.0782541 0.0980147 0)
(-0.0887153 0.0955358 0)
(-0.0997744 0.0924769 0)
(-0.111652 0.088604 0)
(-0.124535 0.0834713 0)
(-0.138527 0.0764085 0)
(-0.153579 0.0665235 0)
(-0.169413 0.0527465 0)
(-0.18544 0.0339478 0)
(-0.200684 0.00915605 0)
(-0.213752 -0.0221041 0)
(-0.222895 -0.0593809 0)
(-0.226077 -0.100964 0)
(-0.221132 -0.143467 0)
(-0.206133 -0.181695 0)
(-0.179946 -0.208854 0)
(-0.143128 -0.217446 0)
(-0.0990165 -0.201357 0)
(-0.0542114 -0.159256 0)
(-0.0178999 -0.0975407 0)
(-0.00163471 -0.0293768 0)
(-0.000676072 0.0224147 0)
(-0.00455044 0.0560996 0)
(-0.0119979 0.0797646 0)
(-0.0210059 0.0952376 0)
(-0.0307219 0.104468 0)
(-0.0406525 0.109238 0)
(-0.0505263 0.111032 0)
(-0.0602719 0.110982 0)
(-0.0699602 0.109883 0)
(-0.0797545 0.108229 0)
(-0.0898771 0.106247 0)
(-0.100586 0.103928 0)
(-0.112147 0.101028 0)
(-0.124803 0.0970438 0)
(-0.138727 0.091192 0)
(-0.153956 0.0823938 0)
(-0.170319 0.0693122 0)
(-0.187358 0.0504769 0)
(-0.204246 0.0245265 0)
(-0.219708 -0.00943359 0)
(-0.232118 -0.051396 0)
(-0.239438 -0.0998685 0)
(-0.239221 -0.151574 0)
(-0.22889 -0.201007 0)
(-0.206185 -0.240299 0)
(-0.170161 -0.25967 0)
(-0.122755 -0.249359 0)
(-0.070301 -0.204017 0)
(-0.024345 -0.128549 0)
(-0.00249002 -0.0397974 0)
(-0.000756187 0.0249488 0)
(-0.0050352 0.0622971 0)
(-0.0131372 0.0882072 0)
(-0.0227243 0.104813 0)
(-0.0328193 0.114433 0)
(-0.0428841 0.119178 0)
(-0.0526454 0.120781 0)
(-0.0620519 0.120554 0)
(-0.0712 0.119408 0)
(-0.0802762 0.117911 0)
(-0.0895229 0.116341 0)
(-0.0992163 0.114712 0)
(-0.109646 0.112773 0)
(-0.121087 0.10998 0)
(-0.133767 0.105456 0)
(-0.147808 0.0979663 0)
(-0.163174 0.0859438 0)
(-0.179595 0.0676199 0)
(-0.19651 0.041275 0)
(-0.213006 0.00560006 0)
(-0.227716 -0.0398682 0)
(-0.238816 -0.094083 0)
(-0.243946 -0.154215 0)
(-0.2401 -0.214961 0)
(-0.223946 -0.267972 0)
(-0.192706 -0.301567 0)
(-0.145994 -0.301858 0)
(-0.0883554 -0.257373 0)
(-0.0325497 -0.16828 0)
(-0.00378375 -0.0540363 0)
(-0.000880118 0.0277894 0)
(-0.00572486 0.0691415 0)
(-0.014683 0.0973251 0)
(-0.0249572 0.114887 0)
(-0.0354181 0.124625 0)
(-0.0454893 0.12905 0)
(-0.0549095 0.130182 0)
(-0.0636577 0.129521 0)
(-0.0718579 0.128094 0)
(-0.0797122 0.126537 0)
(-0.0874671 0.12517 0)
(-0.0953953 0.124028 0)
(-0.103783 0.122865 0)
(-0.112914 0.12111 0)
(-0.12305 0.117827 0)
(-0.134395 0.111671 0)
(-0.147062 0.100919 0)
(-0.161024 0.0835861 0)
(-0.17607 0.057672 0)
(-0.191737 0.0215228 0)
(-0.20715 -0.0257286 0)
(-0.221005 -0.0837174 0)
(-0.23129 -0.150354 0)
(-0.234963 -0.221117 0)
(-0.227966 -0.288038 0)
(-0.205741 -0.338459 0)
(-0.164947 -0.354664 0)
(-0.106664 -0.317374 0)
(-0.0425685 -0.217421 0)
(-0.00573425 -0.073185 0)
(-0.0010829 0.0310824 0)
(-0.00674943 0.0768753 0)
(-0.0168587 0.107299 0)
(-0.0279597 0.125512 0)
(-0.0387505 0.13496 0)
(-0.0486432 0.13865 0)
(-0.0574205 0.13893 0)
(-0.0651154 0.137489 0)
(-0.0718896 0.135454 0)
(-0.0779591 0.133516 0)
(-0.0835634 0.132022 0)
(-0.0889547 0.131025 0)
(-0.0943955 0.130284 0)
(-0.100157 0.129225 0)
(-0.106519 0.126891 0)
(-0.113758 0.121899 0)
(-0.122139 0.112456 0)
(-0.131897 0.0964767 0)
(-0.143205 0.0718101 0)
(-0.156106 0.0365705 0)
(-0.170348 -0.0104958 0)
(-0.185326 -0.0697478 0)
(-0.199646 -0.139986 0)
(-0.210697 -0.218002 0)
(-0.214279 -0.297165 0)
(-0.204564 -0.365231 0)
(-0.175214 -0.401968 0)
(-0.122535 -0.37985 0)
(-0.0541372 -0.275439 0)
(-0.00864346 -0.0984405 0)
(-0.00143214 0.0350742 0)
(-0.0083267 0.0858668 0)
(-0.0200007 0.118376 0)
(-0.0320793 0.136732 0)
(-0.0430942 0.145295 0)
(-0.052513 0.147692 0)
(-0.0602246 0.146632 0)
(-0.0663587 0.143979 0)
(-0.0711378 0.140936 0)
(-0.0748005 0.138218 0)
(-0.0775791 0.136181 0)
(-0.0796989 0.134882 0)
(-0.0813893 0.134091 0)
(-0.0828982 0.133251 0)
(-0.0845104 0.131429 0)
(-0.0865646 0.127272 0)
(-0.0894661 0.119017 0)
(-0.0936926 0.104603 0)
(-0.0997778 0.0818523 0)
(-0.108255 0.0487601 0)
(-0.119569 0.00378832 0)
(-0.133789 -0.0539563 0)
(-0.150285 -0.124312 0)
(-0.167341 -0.20566 0)
(-0.181306 -0.293486 0)
(-0.185992 -0.377549 0)
(-0.172741 -0.437342 0)
(-0.13262 -0.438555 0)
(-0.0664777 -0.339935 0)
(-0.0128729 -0.130985 0)
(-0.00206424 0.0401897 0)
(-0.0108315 0.0966649 0)
(-0.02461 0.130857 0)
(-0.0377591 0.148534 0)
(-0.0487188 0.15536 0)
(-0.0571504 0.155738 0)
(-0.0631558 0.152746 0)
(-0.0670295 0.14839 0)
(-0.0690946 0.1439 0)
(-0.0696351 0.139976 0)
(-0.0688885 0.136953 0)
(-0.067061 0.134879 0)
(-0.064352 0.133533 0)
(-0.0609846 0.132396 0)
(-0.0572435 0.130596 0)
(-0.0535126 0.126876 0)
(-0.050304 0.119591 0)
(-0.0482972 0.106821 0)
(-0.0483349 0.0864642 0)
(-0.0513502 0.0565132 0)
(-0.058293 0.0152801 0)
(-0.0699333 -0.0384496 0)
(-0.0865233 -0.105469 0)
(-0.10735 -0.185708 0)
(-0.129953 -0.277147 0)
(-0.148917 -0.372935 0)
(-0.154618 -0.455076 0)
(-0.133484 -0.486015 0)
(-0.0780962 -0.406262 0)
(-0.0187177 -0.171759 0)
(-0.00326184 0.0471842 0)
(-0.0149205 0.110059 0)
(-0.0314085 0.145037 0)
(-0.0454784 0.160711 0)
(-0.0557077 0.164615 0)
(-0.0622079 0.16206 0)
(-0.0654617 0.156466 0)
(-0.0660263 0.1499 0)
(-0.0643825 0.143546 0)
(-0.0608958 0.138036 0)
(-0.0558339 0.133648 0)
(-0.0494016 0.1304 0)
(-0.0417796 0.128076 0)
(-0.0331695 0.126201 0)
(-0.0238476 0.124001 0)
(-0.0142195 0.120362 0)
(-0.00484421 0.113831 0)
(0.00345864 0.102672 0)
(0.00962776 0.084991 0)
(0.0124649 0.0588942 0)
(0.0106659 0.0226577 0)
(0.00290684 -0.0251986 0)
(-0.0118585 -0.0860024 0)
(-0.0339423 -0.160854 0)
(-0.0624492 -0.250145 0)
(-0.0937647 -0.35119 0)
(-0.119126 -0.451228 0)
(-0.121928 -0.514678 0)
(-0.08659 -0.46752 0)
(-0.0260896 -0.221004 0)
(-0.00560938 0.0574491 0)
(-0.021732 0.127112 0)
(-0.0413154 0.160989 0)
(-0.0554522 0.172574 0)
(-0.0634085 0.171942 0)
(-0.0661865 0.16537 0)
(-0.0648924 0.156484 0)
(-0.0604725 0.147269 0)
(-0.0536341 0.138756 0)
(-0.0448642 0.131438 0)
(-0.0344861 0.125487 0)
(-0.0227177 0.120864 0)
(-0.00972842 0.117343 0)
(0.00430779 0.114495 0)
(0.0191443 0.11165 0)
(0.0343954 0.107866 0)
(0.0494834 0.101921 0)
(0.0635688 0.0923192 0)
(0.0755229 0.0774349 0)
(0.0839776 0.0555792 0)
(0.087386 0.0251087 0)
(0.0840693 -0.0155648 0)
(0.072453 -0.0680052 0)
(0.0512483 -0.133968 0)
(0.0196809 -0.215576 0)
(-0.0209931 -0.314018 0)
(-0.0648526 -0.423997 0)
(-0.0946299 -0.517682 0)
(-0.0884174 -0.514787 0)
(-0.0339788 -0.27764 0)
(-0.0102727 0.0736621 0)
(-0.0331137 0.149034 0)
(-0.054979 0.178014 0)
(-0.0664639 0.182302 0)
(-0.0687442 0.175066 0)
(-0.0643956 0.163332 0)
(-0.0554549 0.150606 0)
(-0.0433814 0.138551 0)
(-0.0291504 0.127888 0)
(-0.0133745 0.118868 0)
(0.00358086 0.111501 0)
(0.0215046 0.10565 0)
(0.040264 0.101055 0)
(0.0597385 0.0973165 0)
(0.0797489 0.0938662 0)
(0.0999834 0.0899356 0)
(0.119929 0.0845398 0)
(0.138807 0.0764854 0)
(0.155531 0.0644304 0)
(0.168713 0.0469567 0)
(0.176687 0.0226206 0)
(0.17755 -0.0100635 0)
(0.169335 -0.0526551 0)
(0.150002 -0.107134 0)
(0.117557 -0.17639 0)
(0.0706549 -0.264418 0)
(0.0108474 -0.373724 0)
(-0.0468306 -0.489336 0)
(-0.0785823 -0.537615 0)
(-0.0398714 -0.339026 0)
(-0.0193267 0.100696 0)
(-0.051305 0.175962 0)
(-0.070189 0.193106 0)
(-0.0716235 0.185555 0)
(-0.0611182 0.169469 0)
(-0.0436021 0.151826 0)
(-0.0222015 0.135329 0)
(0.00118733 0.120908 0)
(0.0254647 0.108747 0)
(0.0500458 0.0987347 0)
(0.0746575 0.0906483 0)
(0.0992062 0.0842167 0)
(0.123685 0.0791238 0)
(0.148102 0.0749896 0)
(0.172405 0.0713372 0)
(0.196416 0.0675651 0)
(0.219758 0.0629265 0)
(0.241788 0.0565288 0)
(0.261549 0.0473556 0)
(0.277746 0.0343066 0)
(0.288708 0.016239 0)
(0.29243 -0.00806057 0)
(0.286682 -0.0398862 0)
(0.268888 -0.0810493 0)
(0.236114 -0.134377 0)
(0.185175 -0.205177 0)
(0.113421 -0.301925 0)
(0.0297518 -0.426229 0)
(-0.0497522 -0.52548 0)
(-0.0388351 -0.399503 0)
(-0.0345166 0.144437 0)
(-0.0732856 0.200583 0)
(-0.0692642 0.195006 0)
(-0.043937 0.171241 0)
(-0.00866897 0.145873 0)
(0.0299515 0.123669 0)
(0.0686567 0.105378 0)
(0.10598 0.0906412 0)
(0.141349 0.078887 0)
(0.174671 0.0695755 0)
(0.206096 0.0622474 0)
(0.235873 0.056511 0)
(0.264275 0.0520131 0)
(0.291538 0.0484056 0)
(0.317806 0.0453124 0)
(0.343081 0.0423011 0)
(0.367155 0.0388642 0)
(0.389557 0.0344123 0)
(0.409493 0.0282801 0)
(0.425837 0.0197397 0)
(0.437021 0.008001 0)
(0.441146 -0.00774443 0)
(0.435835 -0.0283196 0)
(0.418209 -0.0550711 0)
(0.384712 -0.0901941 0)
(0.331321 -0.138538 0)
(0.251773 -0.21089 0)
(0.148389 -0.325902 0)
(0.0126576 -0.466164 0)
(-0.0178647 -0.441207 0)
(-0.0374628 0.236156 0)
(-0.0472012 0.204146 0)
(0.0285254 0.153683 0)
(0.100678 0.117731 0)
(0.167844 0.0909072 0)
(0.227909 0.0711113 0)
(0.280543 0.0567488 0)
(0.326488 0.0462702 0)
(0.366772 0.0385148 0)
(0.402401 0.0327135 0)
(0.434262 0.0283516 0)
(0.463108 0.0250613 0)
(0.489561 0.0225578 0)
(0.514102 0.0205985 0)
(0.537058 0.0189531 0)
(0.558579 0.0173815 0)
(0.5786 0.0156198 0)
(0.596803 0.013375 0)
(0.612567 0.0103283 0)
(0.624944 0.00615238 0)
(0.632583 0.000503793 0)
(0.63399 -0.00692161 0)
(0.626933 -0.01665 0)
(0.608771 -0.0293006 0)
(0.57574 -0.0459565 0)
(0.524007 -0.0697514 0)
(0.443782 -0.108611 0)
(0.333888 -0.18927 0)
(0.143168 -0.33654 0)
(0.060481 -0.41314 0)
(0.231291 0.158571 0)
(0.291557 0.117188 0)
(0.441306 0.0760219 0)
(0.540358 0.0506898 0)
(0.607505 0.0343275 0)
(0.656991 0.0235228 0)
(0.694942 0.0164809 0)
(0.724711 0.0119046 0)
(0.74864 0.00889338 0)
(0.768392 0.00688125 0)
(0.785117 0.00552128 0)
(0.799623 0.00459376 0)
(0.812483 0.00395168 0)
(0.824097 0.0034891 0)
(0.834714 0.00312131 0)
(0.844442 0.00277204 0)
(0.853233 0.0023657 0)
(0.860878 0.00182464 0)
(0.866992 0.00106828 0)
(0.871013 2.72327e-05 0)
(0.872173 -0.00135175 0)
(0.869508 -0.00306569 0)
(0.861697 -0.0053426 0)
(0.847555 -0.00830618 0)
(0.824525 -0.0121321 0)
(0.790825 -0.0177831 0)
(0.734853 -0.0273689 0)
(0.65705 -0.0493769 0)
(0.454564 -0.110301 0)
(0.313269 -0.177609 0)
)
;

boundaryField
{
    movingWall
    {
        type            fixedValue;
        value           uniform (1 0 0);
    }
    fixedWalls
    {
        type            noSlip;
    }
    frontAndBack
    {
        type            empty;
    }
}


// ************************************************************************* //
