/*--------------------------------*- C++ -*----------------------------------*\
  =========                 |
  \\      /  F ield         | OpenFOAM: The Open Source CFD Toolbox
   \\    /   O peration     | Website:  https://openfoam.org
    \\  /    A nd           | Version:  7
     \\/     M anipulation  |
\*---------------------------------------------------------------------------*/
FoamFile
{
    version     2.0;
    format      ascii;
    class       surfaceScalarField;
    location    "8";
    object      phi;
}
// * * * * * * * * * * * * * * * * * * * * * * * * * * * * * * * * * * * * * //

dimensions      [0 3 -1 0 0 0 0];

internalField   nonuniform List<scalar> 
1740
(
5.73237e-07
-5.74034e-07
-4.85171e-07
1.05841e-06
-3.3114e-06
2.82623e-06
-7.53718e-06
4.22578e-06
-1.27128e-05
5.17559e-06
-1.84504e-05
5.73759e-06
-2.44543e-05
6.00392e-06
-3.05032e-05
6.04886e-06
-3.64185e-05
5.91533e-06
-4.20358e-05
5.61733e-06
-4.71834e-05
5.14757e-06
-5.16701e-05
4.4867e-06
-5.52833e-05
3.61322e-06
-5.77969e-05
2.51359e-06
-5.89888e-05
1.19196e-06
-5.86671e-05
-3.21742e-07
-5.66998e-05
-1.96732e-06
-5.30523e-05
-3.64745e-06
-4.78162e-05
-5.23615e-06
-4.12275e-05
-6.58863e-06
-3.3669e-05
-7.55852e-06
-2.56487e-05
-8.02028e-06
-1.77564e-05
-7.89228e-06
-1.06004e-05
-7.15608e-06
-4.73374e-06
-5.86663e-06
-5.7661e-07
-4.15713e-06
1.67849e-06
-2.2551e-06
2.08984e-06
-4.1134e-07
1.12693e-06
9.62925e-07
1.12694e-06
-1.05996e-06
4.8593e-07
-5.75044e-06
5.7489e-06
-1.41008e-05
1.11766e-05
-2.54053e-05
1.55303e-05
-3.88374e-05
1.86077e-05
-5.36135e-05
2.05137e-05
-6.90603e-05
2.14507e-05
-8.46125e-05
2.1601e-05
-9.97767e-05
2.10796e-05
-0.000114089
1.99296e-05
-0.00012708
1.81381e-05
-0.000138254
1.56607e-05
-0.000147091
1.24511e-05
-0.000153069
8.49104e-06
-0.000155695
3.8181e-06
-0.00015458
-1.43621e-06
-0.000149471
-7.07661e-06
-0.000140353
-1.27658e-05
-0.000127487
-1.81021e-05
-0.000111447
-2.26287e-05
-9.31152e-05
-2.58902e-05
-7.36355e-05
-2.75e-05
-5.43175e-05
-2.72102e-05
-3.65033e-05
-2.49703e-05
-2.14069e-05
-2.09631e-05
-9.94886e-06
-1.56151e-05
-2.61448e-06
-9.58948e-06
7.41995e-07
-3.76784e-06
1.02386e-06
6.81029e-07
2.15081e-06
-3.03489e-06
3.52082e-06
-1.18449e-05
1.45589e-05
-2.56379e-05
2.49695e-05
-4.33825e-05
3.32749e-05
-6.39727e-05
3.91979e-05
-8.63701e-05
4.29111e-05
-0.000109655
4.47358e-05
-0.000133022
4.49675e-05
-0.00015574
4.37976e-05
-0.000177111
4.13006e-05
-0.000196431
3.7458e-05
-0.000212971
3.22009e-05
-0.000225983
2.54632e-05
-0.000234729
1.72369e-05
-0.000238537
7.62676e-06
-0.000236869
-3.10455e-06
-0.000229405
-1.45406e-05
-0.000216141
-2.60296e-05
-0.000197452
-3.67909e-05
-0.000174137
-4.59446e-05
-0.000147412
-5.26147e-05
-0.000118857
-5.60548e-05
-9.02871e-05
-5.57804e-05
-6.35728e-05
-5.16846e-05
-4.04242e-05
-4.41117e-05
-2.2161e-05
-3.38783e-05
-9.50108e-06
-2.22494e-05
-2.37889e-06
-1.089e-05
1.52944e-07
-1.85082e-06
2.30376e-06
-4.9133e-06
8.43412e-06
-1.77054e-05
2.73511e-05
-3.67196e-05
4.39837e-05
-6.04366e-05
5.69919e-05
-8.74629e-05
6.62241e-05
-0.000116556
7.20042e-05
-0.000146625
7.48045e-05
-0.0001767
7.50426e-05
-0.000205888
7.29857e-05
-0.000233323
6.87357e-05
-0.000258128
6.22633e-05
-0.000279399
5.34717e-05
-0.00029621
4.22742e-05
-0.000307651
2.86782e-05
-0.000312891
1.28661e-05
-0.000311255
-4.73961e-06
-0.000302326
-2.34699e-05
-0.000286054
-4.23014e-05
-0.000262843
-6.00027e-05
-0.000233607
-7.51799e-05
-0.000199789
-8.64328e-05
-0.000163295
-9.25487e-05
-0.000126361
-9.27144e-05
-9.13369e-05
-8.67089e-05
-6.04144e-05
-7.50342e-05
-3.53372e-05
-5.89556e-05
-1.71346e-05
-4.04519e-05
-5.92324e-06
-2.21014e-05
-8.28455e-07
-6.94561e-06
1.4753e-06
-6.58526e-06
1.50194e-05
-2.30709e-05
4.38367e-05
-4.69555e-05
6.78682e-05
-7.62015e-05
8.6238e-05
-0.000109111
9.91333e-05
-0.000144255
0.000107148
-0.000180415
0.000110965
-0.000216516
0.000111143
-0.000251561
0.000108031
-0.000284578
0.000101752
-0.000314571
9.22565e-05
-0.000340505
7.94059e-05
-0.00036131
6.30793e-05
-0.000375917
4.32844e-05
-0.00038332
2.0269e-05
-0.000382677
-5.3822e-06
-0.000373389
-3.27584e-05
-0.000355267
-6.04232e-05
-0.000328628
-8.66414e-05
-0.000294392
-0.000109416
-0.000254125
-0.0001267
-0.000210004
-0.00013667
-0.000164679
-0.000138039
-0.000121029
-0.000130359
-8.18268e-05
-0.000114237
-4.93649e-05
-9.14175e-05
-2.51146e-05
-6.47022e-05
-9.48099e-06
-3.7735e-05
-1.71312e-06
-1.47135e-05
-2.37818e-07
-8.0524e-06
2.30718e-05
-2.78905e-05
6.36748e-05
-5.62505e-05
9.62282e-05
-9.05969e-05
0.000120584
-0.000128934
0.00013747
-0.000169664
0.000147879
-0.000211475
0.000152775
-0.00025323
0.000152899
-0.000293885
0.000148686
-0.000332412
0.000140279
-0.000367746
0.000127591
-0.000398761
0.00011042
-0.000424258
8.85767e-05
-0.000443003
6.20292e-05
-0.00045378
3.10458e-05
-0.000455512
-3.64995e-06
-0.000447298
-4.09727e-05
-0.000428684
-7.90367e-05
-0.000399751
-0.000115574
-0.000361281
-0.000147887
-0.000314856
-0.000173125
-0.000262876
-0.00018865
-0.000208437
-0.000192478
-0.000155063
-0.000183732
-0.000106296
-0.000163004
-6.51994e-05
-0.000132514
-3.38905e-05
-9.60111e-05
-1.31983e-05
-5.84272e-05
-2.53919e-06
-2.53726e-05
-2.77701e-06
-9.34341e-06
3.24152e-05
-3.21948e-05
8.65262e-05
-6.46292e-05
0.000128663
-0.000103664
0.000159619
-0.000147032
0.000180838
-0.000192997
0.000193844
-0.000240182
0.00019996
-0.000287435
0.000200152
-0.000333713
0.000194963
-0.000377984
0.00018455
-0.000419163
0.00016877
-0.000456061
0.000147319
-0.000487371
0.000119887
-0.000511676
8.63338e-05
-0.000527496
4.68656e-05
-0.000533426
2.28076e-06
-0.00052814
-4.62586e-05
-0.000510749
-9.64277e-05
-0.00048091
-0.000145413
-0.000439083
-0.000189714
-0.000386722
-0.000225486
-0.000326371
-0.000249001
-0.000261602
-0.000257247
-0.000196734
-0.0002486
-0.000136334
-0.000223403
-8.45605e-05
-0.000184288
-4.44797e-05
-0.000136092
-1.75562e-05
-8.53507e-05
-3.4353e-06
-3.94935e-05
-6.21231e-06
-1.04821e-05
4.28973e-05
-3.6023e-05
0.000112067
-7.2137e-05
0.000164777
-0.000115458
0.000202939
-0.000163492
0.000228873
-0.000214395
0.000244747
-0.000266768
0.000252334
-0.000319487
0.000252871
-0.000371557
0.000247034
-0.000421999
0.000234991
-0.000469751
0.000216522
-0.000513603
0.000191171
-0.000552152
0.000158435
-0.000583787
0.000117969
-0.000606726
6.98054e-05
-0.00061906
1.46139e-05
-0.00061903
-4.62885e-05
-0.000605038
-0.00011042
-0.000576113
-0.000174338
-0.000532165
-0.000233661
-0.00047431
-0.000283341
-0.000405094
-0.000318216
-0.000328539
-0.000333803
-0.000249893
-0.000327245
-0.000175056
-0.000298241
-0.000109698
-0.000249646
-5.82799e-05
-0.00018751
-2.32384e-05
-0.000120392
-4.60168e-06
-5.81302e-05
-1.0814e-05
-1.14784e-05
5.43756e-05
-3.93918e-05
0.000139981
-7.87887e-05
0.000204173
-0.000125988
0.000250139
-0.000178319
0.000281204
-0.000233871
0.000300299
-0.000291262
0.000309725
-0.000349441
0.00031105
-0.000407515
0.000305108
-0.000464608
0.000292084
-0.000519736
0.00027165
-0.000571709
0.000243144
-0.00061905
0.000205777
-0.000659955
0.000158873
-0.000692287
0.000102138
-0.000713633
3.5959e-05
-0.000721541
-3.83804e-05
-0.000713594
-0.000118366
-0.000687951
-0.000199982
-0.000643697
-0.000277915
-0.000581326
-0.000345713
-0.000503139
-0.000396403
-0.000413469
-0.000423473
-0.000318544
-0.000422169
-0.000225887
-0.000390898
-0.000143197
-0.000332336
-7.69404e-05
-0.000253766
-3.10577e-05
-0.000166275
-6.26625e-06
-8.29216e-05
-1.70802e-05
-1.23291e-05
6.67048e-05
-4.22884e-05
0.00016994
-8.45526e-05
0.000246438
-0.000135194
0.00030078
-0.000191411
0.000337421
-0.00025127
0.000360157
-0.000313445
0.0003719
-0.000377002
0.000374607
-0.000441199
0.000369305
-0.000505316
0.000356202
-0.000568502
0.000334836
-0.000629633
0.000304276
-0.000687202
0.000263346
-0.000739225
0.000210896
-0.000783208
0.00014612
-0.000816174
6.89253e-05
-0.00083492
-1.96344e-05
-0.000836032
-0.000117255
-0.000816603
-0.000219411
-0.000774607
-0.000319911
-0.000709561
-0.000410759
-0.000623149
-0.000482815
-0.000519694
-0.000526928
-0.000406274
-0.00053559
-0.000292212
-0.00050496
-0.000187785
-0.000436763
-0.000102272
-0.00033928
-4.19182e-05
-0.000226629
-8.67858e-06
-0.000116161
-2.57588e-05
-1.30213e-05
7.97261e-05
-4.46748e-05
0.000201593
-8.93527e-05
0.000291116
-0.000142942
0.000354369
-0.000202556
0.000397036
-0.000266268
0.000423869
-0.000332846
0.000438477
-0.000401507
0.000443268
-0.000471702
0.000439501
-0.000542918
0.000427417
-0.000614484
0.000406402
-0.000685401
0.000375193
-0.000754179
0.000332123
-0.000818703
0.000275421
-0.000876159
0.000203576
-0.000923029
0.000115796
-0.000955298
1.26345e-05
-0.000968582
-0.000103971
-0.000958727
-0.000229265
-0.000922355
-0.000356283
-0.000857629
-0.000475485
-0.000765108
-0.000575336
-0.000648559
-0.000643477
-0.000515469
-0.00066868
-0.000376877
-0.000643552
-0.000246089
-0.000567551
-0.000136158
-0.000449211
-5.67989e-05
-0.000305988
-1.21113e-05
-0.000160849
-3.78701e-05
-1.35368e-05
9.3263e-05
-4.64986e-05
0.000234555
-9.30847e-05
0.000337702
-0.000149049
0.000410333
-0.000211453
0.000459439
-0.000278399
0.000490816
-0.000348766
0.000508844
-0.000421948
0.00051645
-0.00049762
0.000515172
-0.000575503
0.000505301
-0.000655155
0.000486054
-0.00073575
0.000455788
-0.000815878
0.000412251
-0.00089337
0.000352913
-0.000965185
0.000275391
-0.00102739
0.000177996
-0.00107515
6.04026e-05
-0.00110336
-7.57684e-05
-0.00110652
-0.0002261
-0.0010798
-0.000383003
-0.00101967
-0.000535612
-0.000924997
-0.000670014
-0.000798179
-0.000770294
-0.000646281
-0.000820579
-0.000481493
-0.000808339
-0.00032027
-0.000728775
-0.000180436
-0.000589044
-7.67396e-05
-0.000409684
-1.68678e-05
-0.000220721
-5.47379e-05
-1.38584e-05
0.000107121
-4.77105e-05
0.000268407
-9.56454e-05
0.000385637
-0.000153323
0.000468011
-0.000217765
0.000523881
-0.000287111
0.000560162
-0.000360353
0.000582086
-0.000437065
0.000593162
-0.000517147
0.000595254
-0.000600575
0.000588729
-0.000687154
0.000572633
-0.000776273
0.000544907
-0.000866671
0.000502648
-0.000956228
0.00044247
-0.00104182
0.000360985
-0.00111927
0.000255445
-0.00118337
0.000124501
-0.00122819
-3.09488e-05
-0.00124734
-0.000206945
-0.00123456
-0.000395792
-0.00118443
-0.000585735
-0.00109358
-0.000760862
-0.000962108
-0.00090177
-0.000795361
-0.000987326
-0.000605468
-0.000998232
-0.000411473
-0.00092277
-0.000236686
-0.000763831
-0.00010281
-0.00054356
-2.32924e-05
-0.000300238
-7.80303e-05
-1.39779e-05
0.000121099
-4.8287e-05
0.000302716
-9.69725e-05
0.000434322
-0.000155617
0.000526655
-0.000221196
0.00058946
-0.000291871
0.000630837
-0.000366725
0.000656941
-0.000445493
0.000671929
-0.00052828
0.000678042
-0.000615302
0.000675751
-0.000706612
0.000663942
-0.000801837
0.000640132
-0.000899929
0.000600741
-0.000998945
0.000541486
-0.00109588
0.000457922
-0.0011866
0.000346166
-0.00126587
0.000203766
-0.00132742
3.06019e-05
-0.00136436
-0.000170007
-0.00136932
-0.000390824
-0.00133516
-0.000619903
-0.00125587
-0.000840146
-0.00112833
-0.00102931
-0.000954605
-0.00116105
-0.000744809
-0.00120803
-0.000518994
-0.00114858
-0.000305855
-0.000976971
-0.000136021
-0.000713394
-3.17733e-05
-0.000404486
-0.000109804
-1.39059e-05
0.000135005
-4.82594e-05
0.00033707
-9.70958e-05
0.000483158
-0.000155905
0.000585464
-0.000221587
0.000655143
-0.000292286
0.000701536
-0.000367138
0.000731793
-0.000445991
0.000750782
-0.000529114
0.000761165
-0.000616917
0.000763555
-0.000709678
0.000756703
-0.00080727
0.000737724
-0.000908917
0.000702389
-0.00101298
0.000645552
-0.00111682
0.000561755
-0.00121667
0.000446022
-0.0013077
0.000294799
-0.00138398
0.000106881
-0.00143855
-0.000115441
-0.00146374
-0.000365633
-0.001451
-0.000632641
-0.00139182
-0.000899326
-0.00127919
-0.00114194
-0.00111038
-0.00132987
-0.000890963
-0.00142744
-0.000639223
-0.00140032
-0.000387654
-0.00122854
-0.000177143
-0.000923905
-4.27258e-05
-0.000538903
-0.000152529
-1.36829e-05
0.000148688
-4.77479e-05
0.000371135
-9.61968e-05
0.000531607
-0.00015437
0.000643636
-0.000219033
0.000719806
-0.000288258
0.000770761
-0.000361181
0.000804716
-0.000437704
0.000827304
-0.000518196
0.000841657
-0.000603207
0.000848565
-0.000693192
0.000846689
-0.000788266
0.000832797
-0.000887975
0.000802097
-0.000991119
0.000748696
-0.00109563
0.000666264
-0.0011985
0.000548891
-0.00129576
0.000392057
-0.00138245
0.00019357
-0.00145211
-4.57738e-05
-0.00149779
-0.000319958
-0.00151021
-0.000620216
-0.00147892
-0.000930614
-0.00139305
-0.00122781
-0.00124398
-0.00147894
-0.00103029
-0.00164113
-0.000764652
-0.00166596
-0.000479777
-0.00151341
-0.00022641
-0.00117727
-5.65529e-05
-0.000708761
-0.000209082
-1.33934e-05
0.000162081
-4.7001e-05
0.000404743
-9.46756e-05
0.000579282
-0.000151492
0.000700453
-0.000213999
0.000782312
-0.000280134
0.000836897
-0.000348977
0.000873559
-0.000420429
0.000898756
-0.000494899
0.000916127
-0.000573014
0.000926681
-0.00065537
0.000929044
-0.000742308
0.000919736
-0.000833743
0.000893532
-0.000929027
0.00084398
-0.00102687
0.000764111
-0.00112531
0.00064733
-0.00122165
0.00048839
-0.00131236
0.000284284
-0.00139256
3.44237e-05
-0.00145619
-0.000256327
-0.00149464
-0.000581763
-0.00149652
-0.000928732
-0.00144787
-0.00127647
-0.00133408
-0.00159273
-0.00114494
-0.00183028
-0.000883497
-0.00192741
-0.000577167
-0.00181974
-0.000283145
-0.00147129
-7.3592e-05
-0.000918313
-0.000282674
-1.31828e-05
0.000175264
-4.64428e-05
0.000438003
-9.32245e-05
0.000626064
-0.000148146
0.000755375
-0.000207431
0.000841597
-0.000268832
0.000898298
-0.00033134
0.000936067
-0.000394825
0.000962241
-0.000459697
0.000980999
-0.000526627
0.000993611
-0.000596321
0.000998739
-0.000669358
0.000992772
-0.000746062
0.000970236
-0.000826436
0.000924354
-0.000910124
0.000847799
-0.000996391
0.000733598
-0.00108407
0.000576066
-0.00117135
0.000371571
-0.0012558
0.000118865
-0.00133234
-0.000179788
-0.00139434
-0.00051976
-0.00143079
-0.000892285
-0.00142611
-0.00128115
-0.00136082
-0.00165801
-0.00121557
-0.00197553
-0.000980647
-0.00216233
-0.000671717
-0.00212867
-0.000345399
-0.00179761
-9.40762e-05
-0.00116964
-0.000376751
-1.32833e-05
0.000188548
-4.67352e-05
0.000471454
-9.29127e-05
0.000672241
-0.000145687
0.000808149
-0.00020084
0.00089675
-0.000255924
0.000953381
-0.00030986
0.000990003
-0.000362507
0.00101489
-0.000414286
0.00103278
-0.000465918
0.00104524
-0.000518234
0.00105106
-0.000572073
0.00104661
-0.000628225
0.00102639
-0.000687416
0.000983545
-0.000750309
0.000910692
-0.000817494
0.000800783
-0.000889422
0.000647994
-0.000966208
0.000448357
-0.00104735
0.000200009
-0.00113031
-9.68312e-05
-0.00121043
-0.000439636
-0.00127849
-0.000824228
-0.00131924
-0.0012404
-0.00131053
-0.00166672
-0.00122533
-0.00206073
-0.00104005
-0.00234761
-0.000752782
-0.00241594
-0.000409732
-0.00214066
-0.00011815
-0.00146122
-0.000494901
-1.40577e-05
0.000202605
-4.88696e-05
0.000506266
-9.52914e-05
0.000718663
-0.000146037
0.000858895
-0.000196352
0.000947065
-0.000243644
0.00100067
-0.00028687
0.00103323
-0.000325974
0.00105399
-0.000361469
0.00106827
-0.000394182
0.00107795
-0.000425123
0.001082
-0.000455447
0.00107693
-0.000486457
0.0010574
-0.000519647
0.00101674
-0.000556716
0.000947761
-0.000599559
0.000843626
-0.00065017
0.000698605
-0.000710422
0.000508609
-0.0007817
0.000271287
-0.00086389
-1.46413e-05
-0.000954743
-0.000348783
-0.00104769
-0.000731282
-0.00112973
-0.00115836
-0.00117888
-0.00161757
-0.00116358
-0.00207603
-0.00104783
-0.00246336
-0.000808729
-0.00265504
-0.000471308
-0.00247808
-0.000145957
-0.00178657
-0.000640858
-1.60836e-05
0.000218689
-5.4317e-05
0.0005445
-0.000102536
0.000766882
-0.000151766
0.000908126
-0.000196698
0.000991997
-0.000234788
0.00103876
-0.000265259
0.0010637
-0.000288336
0.00107707
-0.000304771
0.00108471
-0.000315616
0.0010888
-0.000322144
0.00108853
-0.000325884
0.00108067
-0.000328692
0.00106021
-0.000332833
0.00102088
-0.000340982
0.00095591
-0.000356217
0.000858861
-0.000381874
0.000724263
-0.000421299
0.000548033
-0.000477414
0.000327402
-0.000552377
6.03219e-05
-0.000645846
-0.000255314
-0.000754595
-0.000622532
-0.000869207
-0.00104375
-0.000970763
-0.00151601
-0.00102737
-0.00201942
-0.00099463
-0.0024961
-0.000828666
-0.00282101
-0.000524234
-0.00278251
-0.000177707
-0.0021331
-0.000818564
-2.03208e-05
0.00023901
-6.52797e-05
0.000589459
-0.000117635
0.000819237
-0.000166131
0.000956622
-0.000205089
0.00103095
-0.000232428
0.0010661
-0.000248036
0.00107931
-0.000252723
0.00108176
-0.000247701
0.00107969
-0.00023439
0.00107549
-0.000214426
0.00106856
-0.000189761
0.00105601
-0.000162785
0.00103323
-0.000136523
0.000994615
-0.000114462
0.000933849
-0.00010067
0.000845069
-9.95261e-05
0.000723119
-0.000115464
0.00056397
-0.000152635
0.000364574
-0.000214503
0.000122189
-0.000302986
-0.000166831
-0.000417643
-0.000507875
-0.000553408
-0.000907984
-0.000696696
-0.00137272
-0.000819761
-0.00189635
-0.000875648
-0.00244021
-0.000803298
-0.00289336
-0.00056177
-0.00302404
-0.000213523
-0.00248134
-0.00103209
-2.84424e-05
0.000267452
-8.51005e-05
0.000646117
-0.000144595
0.000878731
-0.000192962
0.00100499
-0.000224773
0.00106276
-0.000239183
0.00108051
-0.000237348
0.00107747
-0.000221076
0.00106548
-0.000192295
0.00105091
-0.000152947
0.00103614
-0.000105111
0.00102072
-5.11744e-05
0.00100207
5.92659e-06
0.000976129
6.28373e-05
0.000937704
0.000115244
0.000881442
0.00015841
0.000801903
0.000187206
0.000694323
0.000196418
0.000554758
0.000181088
0.000379904
0.000136828
0.000166449
6.00814e-05
-9.00845e-05
-5.09007e-05
-0.000396893
-0.000195503
-0.000763381
-0.000366994
-0.00120123
-0.000545462
-0.00171788
-0.000688202
-0.00229747
-0.00072397
-0.00285759
-0.000575725
-0.00317229
-0.000252665
-0.0028044
-0.00128475
-4.34693e-05
0.000310921
-0.000118833
0.00072148
-0.00018843
0.000948328
-0.000235942
0.0010525
-0.000257671
0.00108449
-0.000255293
0.00107813
-0.00023207
0.00105425
-0.000191301
0.00102471
-0.00013589
0.000995494
-6.84237e-05
0.000968674
8.57583e-06
0.000943725
9.23344e-05
0.000918315
0.00017968
0.000888784
0.000266698
0.000850685
0.000348917
0.000799224
0.000421201
0.000729619
0.000478033
0.000637491
0.000513787
0.000519004
0.000523014
0.000370677
0.000500653
0.00018881
0.000441899
-3.13306e-05
0.000342895
-0.000297889
0.000200448
-0.000620935
1.47148e-05
-0.0010155
-0.000205175
-0.00149799
-0.00042748
-0.00207517
-0.000580036
-0.00270503
-0.000554463
-0.00319786
-0.000291641
-0.00306723
-0.00157639
-7.08984e-05
0.00038182
-0.000173694
0.000824276
-0.00025402
0.00102865
-0.000295844
0.00109433
-0.000300217
0.00108887
-0.000273305
0.00105122
-0.000221553
0.0010025
-0.000150264
0.000953426
-6.35341e-05
0.000908764
3.53686e-05
0.000869772
0.000143543
0.00083555
0.000258078
0.00080378
0.00037567
0.000771191
0.000492459
0.000733896
0.000603949
0.000687734
0.00070504
0.000628528
0.000790194
0.000552337
0.000853664
0.000455534
0.000889701
0.000334639
0.000892666
0.000185846
0.000856658
4.6777e-06
0.000776117
-0.000217348
0.000644521
-0.000489339
0.000455877
-0.000826856
0.000208887
-0.001251
-8.03882e-05
-0.00178589
-0.000354528
-0.00243089
-0.000479322
-0.00307307
-0.000321204
-0.00322534
-0.0018976
-0.000120456
0.000502275
-0.000257887
0.000961707
-0.000340474
0.00111124
-0.000361089
0.00111494
-0.000331037
0.00105881
-0.000263731
0.000983917
-0.000169957
0.000908724
-5.7389e-05
0.000840858
6.87126e-05
0.000782663
0.000204621
0.000733863
0.0003474
0.000692772
0.000494315
0.000656865
0.000642428
0.000623079
0.000788314
0.00058801
0.00092794
0.000548108
0.00105664
0.000499824
0.00116922
0.000439756
0.00126009
0.000364673
0.00132333
0.000271392
0.00135271
0.000156473
0.00134152
1.58599e-05
0.00128216
-0.000157981
0.00116561
-0.000372788
0.000981044
-0.000642293
0.000717575
-0.000987535
0.000374326
-0.00144265
-8.32689e-06
-0.00204824
-0.000319293
-0.0027621
-0.000327784
-0.00321685
-0.00222538
-0.000208061
0.000710336
-0.000370225
0.00112387
-0.000418687
0.0011597
-0.000377496
0.00107375
-0.000276744
0.000958062
-0.000139762
0.000846935
1.82085e-05
0.000750753
0.000187895
0.000671172
0.000363859
0.000606699
0.000542893
0.000554829
0.000722884
0.000512781
0.000902063
0.000477686
0.00107851
0.000446636
0.0012498
0.000416712
0.00141289
0.000385021
0.00156397
0.000348747
0.00169852
0.000305199
0.0018114
0.000251793
0.00189683
0.000185962
0.00194827
0.000105034
0.00195739
6.73916e-06
0.00191621
-0.000116793
0.00181283
-0.000269409
0.00163304
-0.000462505
0.00135909
-0.000713588
0.000973192
-0.00105675
0.000478389
-0.00155343
-1.94149e-05
-0.0022643
-0.000269149
-0.00296712
-0.00249453
-0.000344713
0.00105505
-0.000437793
0.00121695
-0.000347964
0.00106988
-0.000160715
0.0008865
6.89127e-05
0.000728435
0.000312422
0.000603426
0.000555592
0.000507583
0.000792079
0.000434684
0.00101964
0.000379137
0.00123795
0.000336517
0.00144738
0.000303351
0.00164828
0.000276785
0.00184056
0.000254355
0.00202343
0.000233849
0.00219522
0.000213233
0.00235334
0.000190623
0.00249427
0.000164271
0.00261353
0.000132534
0.00270573
9.37569e-05
0.00276449
4.62814e-05
0.00278217
-1.09467e-05
0.00274833
-8.29509e-05
0.00265064
-0.000171719
0.0024728
-0.000284667
0.00219288
-0.000433668
0.00178191
-0.000645771
0.00120909
-0.000980618
0.000518068
-0.00157327
-2.23598e-05
-0.00242669
-0.00251689
-0.000304893
0.00135994
-5.48331e-05
0.00096689
0.000371668
0.000643374
0.000791468
0.0004667
0.00117409
0.000345817
0.00151553
0.000261982
0.00181838
0.000204731
0.00208778
0.00016529
0.00232941
0.000137507
0.00254843
0.0001175
0.00274903
0.00010275
0.00293433
9.14838e-05
0.00310633
8.23543e-05
0.0032659
7.42801e-05
0.00341278
6.6352e-05
0.00354562
5.77818e-05
0.00366201
4.78802e-05
0.00375851
3.60362e-05
0.0038305
2.17682e-05
0.00387198
4.79636e-06
0.0038783
-1.72627e-05
0.00383834
-4.29914e-05
0.00374111
-7.44926e-05
0.00357122
-0.000114772
0.0033058
-0.000168251
0.00290913
-0.000249104
0.00232184
-0.000393326
0.00148736
-0.000738795
0.00050545
-0.00144478
-0.00201144
0.00135994
0.00232683
0.00297021
0.00343691
0.00378272
0.00404471
0.00424944
0.00441473
0.00455223
0.00466973
0.00477248
0.00486397
0.00494632
0.0050206
0.00508695
0.00514474
0.00519262
0.00522865
0.00525042
0.00525522
0.00523795
0.00519496
0.00512047
0.0050057
0.00483745
0.00458834
0.00419502
0.00345622
0.00201144
)
;

boundaryField
{
    movingWall
    {
        type            calculated;
        value           uniform 0;
    }
    fixedWalls
    {
        type            calculated;
        value           uniform 0;
    }
    frontAndBack
    {
        type            empty;
        value           nonuniform 0();
    }
}


// ************************************************************************* //
