/*--------------------------------*- C++ -*----------------------------------*\
  =========                 |
  \\      /  F ield         | OpenFOAM: The Open Source CFD Toolbox
   \\    /   O peration     | Website:  https://openfoam.org
    \\  /    A nd           | Version:  7
     \\/     M anipulation  |
\*---------------------------------------------------------------------------*/
FoamFile
{
    version     2.0;
    format      ascii;
    class       surfaceScalarField;
    location    "0.45";
    object      phi;
}
// * * * * * * * * * * * * * * * * * * * * * * * * * * * * * * * * * * * * * //

dimensions      [0 3 -1 0 0 0 0];

internalField   nonuniform List<scalar> 
3784
(
-0.00232378
0.00232378
-0.00247988
0.000156097
-0.0012554
-0.00122448
-0.000358665
-0.000896733
-0.000108794
-0.000249871
0.000328599
-0.000437393
0.000884723
-0.000556124
0.00109413
-0.000209413
0.000654404
0.00043973
-0.000209748
0.000864154
-0.000878562
0.000668815
-0.000613238
-0.000265327
0.000619041
-0.00123228
0.001824
-0.00120495
0.00198984
-0.000165839
0.000886824
0.00110301
-0.000504158
0.00139098
-0.00106028
0.000556118
-0.000384491
-0.000675785
0.00109418
-0.00147867
0.00196275
-0.000868565
0.00114848
0.000814275
-0.00037182
0.00152029
-0.00121681
0.000844987
-0.000909418
-0.000307388
0.000311788
-0.00122121
0.0011463
-0.000834514
0.000361126
0.000785177
-0.00123955
0.00160068
-0.00167655
0.000437002
-0.000313483
-0.00136307
0.00127429
-0.00158777
0.00179938
-0.000525088
0.0011867
0.000612677
-0.000165681
0.00135238
-0.00125482
0.00108914
-0.00110983
-0.000144986
0.00016475
-0.00127458
0.00149844
-0.00133369
0.00145435
4.40884e-05
4.08516e-05
0.0014135
-0.0012807
0.00132155
-0.00124748
-3.32249e-05
-0.00124748
-0.00323024
0.00555402
-0.0035782
0.000504056
-0.00141288
-0.0033898
-0.000462858
-0.00184676
-0.000338981
-0.00037375
0.000290511
-0.00106688
0.000975919
-0.00124153
0.00114463
-0.000378127
0.000646472
0.00093789
-8.96463e-05
0.00160027
-0.000841033
0.0014202
-0.000905501
-0.000200857
0.000677062
-0.00281484
0.0022491
-0.002777
0.00197759
0.000105671
0.000837534
0.00224307
-0.000326122
0.00255464
-0.00135809
0.00158808
-0.000712091
-0.00132178
0.00143727
-0.00362804
0.00209445
-0.00152574
0.00101988
0.00188884
-0.000215898
0.00275608
-0.00144542
0.00207451
-0.00137141
-0.000381395
0.000525853
-0.00311847
0.00132666
-0.00163532
0.000239483
0.00187235
-0.00110305
0.00294321
-0.00183177
0.00116572
-0.000500063
-0.00269478
0.00175902
-0.00384686
0.00208075
-0.000846815
0.00104659
0.00164684
-4.13122e-05
0.00244029
-0.0012693
0.00231713
-0.00159682
0.000182529
0.000220112
-0.00309151
0.00186628
-0.00297985
0.00131974
0.000590624
8.30085e-05
0.00265023
-0.0011551
0.00255966
-0.00172052
0.000532192
-0.002968
-0.00313072
0.00868475
-0.00379942
0.00117275
-0.00177561
-0.00541361
-0.000524689
-0.00309767
-0.000275343
-0.000623098
0.000334801
-0.00167703
0.00107456
-0.0019813
0.00124843
-0.000551991
0.000655927
0.0015304
-0.000233272
0.00248947
-0.00110762
0.00229455
-0.00111456
-0.00019392
0.000717147
-0.00464655
0.00249781
-0.00455766
0.00212235
0.000481136
0.000624959
0.00374046
-0.000809423
0.00398902
-0.00177058
0.00254924
-0.000747106
-0.00234525
0.00170738
-0.00608252
0.00228398
-0.00210234
0.000862752
0.00331006
-0.000701365
0.00432019
-0.00192874
0.00330189
-0.0014443
-0.000865839
0.000855611
-0.00541838
0.00179505
-0.00257476
0.000674277
0.00299313
-0.000882239
0.00449972
-0.00201258
0.00229607
-0.000874389
-0.00383297
0.00170253
-0.00642377
0.00238375
-0.00152804
0.00120119
0.0028294
-0.000310578
0.00395205
-0.00171946
0.00372601
-0.00181726
0.000280326
0.000406262
-0.00531503
0.00224089
-0.00481448
0.00156755
0.00126396
-1.21238e-05
0.00422991
-0.00153895
0.00408648
-0.00204303
0.00103628
-0.00501103
-0.002528
0.0112127
-0.00338483
0.00202957
-0.00211478
-0.00668366
-0.000959159
-0.00425329
-0.000410173
-0.00117208
0.000170384
-0.00225759
0.000708599
-0.00251951
0.000779167
-0.00062256
0.000333483
0.00197608
-0.000227225
0.00305018
-0.000744241
0.00281157
-0.00069466
-0.0002435
0.000591763
-0.00593297
0.00181068
-0.00577658
0.00140763
0.000884184
0.000246429
0.00490167
-0.000735078
0.00497053
-0.00129011
0.00310427
-0.000434223
-0.00320114
0.0012528
-0.00776955
0.00144009
-0.00228963
0.000326861
0.0044233
-0.000738923
0.00538598
-0.00150202
0.00406499
-0.000962013
-0.00140585
0.00071525
-0.00709564
0.00133735
-0.00319686
0.000705265
0.00362521
-0.000158008
0.005363
-0.00113691
0.00327497
-0.000730642
-0.00423924
0.00105569
-0.0082101
0.00170186
-0.00217421
0.000816069
0.00371519
-0.000341627
0.00510975
-0.00128782
0.00467221
-0.00122597
0.000218473
0.000398991
-0.00693999
0.00158791
-0.0060034
0.0010287
0.00182317
-5.7774e-05
0.00531638
-0.00108447
0.00511317
-0.00141177
0.00136358
-0.00642279
-0.00186353
0.0130763
-0.00288444
0.00305048
-0.00233424
-0.00723386
-0.00140245
-0.00518509
-0.000630436
-0.00194409
-0.000131836
-0.00275619
0.000178439
-0.00282978
0.000172069
-0.000616193
-6.19432e-05
0.0022101
-0.000279171
0.00326741
-0.000415638
0.00294803
-0.000284938
-0.000374203
0.000407197
-0.00662511
0.00103642
-0.0064058
0.000654645
0.00126596
-3.58913e-05
0.0055922
-0.000547905
0.00548254
-0.000775641
0.00333201
-0.000123916
-0.00385286
0.0007347
-0.00862816
0.000566624
-0.00212156
-7.64581e-05
0.00506638
-0.000639687
0.00594921
-0.000974211
0.00439951
-0.000413777
-0.00196629
0.000566996
-0.00807642
0.000854877
-0.00348474
0.000628345
0.00385175
0.00037616
0.00561518
-0.000290735
0.00394186
-0.000537802
-0.00399218
0.000308101
-0.00905601
0.000884946
-0.00275106
0.000415983
0.00418415
-0.000286928
0.00581266
-0.000723997
0.00510927
-0.000597433
9.19071e-05
0.000371026
-0.00790845
0.00089454
-0.00652691
0.000453415
0.0022643
-8.78641e-05
0.00585766
-0.000566497
0.00559181
-0.000762316
0.0015594
-0.00718511
-0.00106903
0.0141453
-0.00221236
0.0041938
-0.00234313
-0.00710309
-0.00174131
-0.0057869
-0.000932543
-0.00275286
-0.000558918
-0.00312982
-0.000475199
-0.0029135
-0.000520745
-0.000570648
-0.000468708
0.00215806
-0.000334336
0.00313304
-9.48543e-05
0.00270855
6.9067e-05
-0.000538127
0.000187714
-0.00674375
0.000223468
-0.00644155
-2.94147e-05
0.00151884
-0.000186305
0.00574909
-0.000241538
0.00553777
-0.000158264
0.00324874
0.000180343
-0.00419147
0.000207241
-0.00865506
-0.000203225
-0.00171109
-0.000327941
0.0051911
-0.000369463
0.00599073
-0.000295033
0.00432507
0.000150221
-0.00241154
0.000401479
-0.00832768
0.000280889
-0.00336415
0.000394556
0.00373808
0.000627114
0.00538262
0.000421457
0.00414752
-0.000286498
-0.00328422
-0.000390971
-0.00895153
1.27252e-05
-0.00315476
1.416e-05
0.00418272
-0.000111221
0.00593804
-8.79375e-05
0.00508599
5.43843e-05
-5.04151e-05
0.000303723
-0.00815779
0.000175038
-0.00639822
-8.27274e-05
0.00252206
-8.63316e-05
0.00586126
-6.76561e-05
0.00557313
-0.000130056
0.0016218
-0.00731517
-0.000134037
0.0142793
-0.00121579
0.00527555
-0.00203093
-0.00628795
-0.00190129
-0.00591654
-0.00124557
-0.00340858
-0.00101628
-0.0033591
-0.00112432
-0.00280546
-0.00112819
-0.000566774
-0.000811323
0.00184119
-0.000346558
0.00266827
0.000130955
0.00223104
0.000361592
-0.000768761
-5.22197e-05
-0.00632994
-0.000578936
-0.00591484
-0.000604573
0.00154447
-0.00022591
0.00537043
0.000163833
0.00514802
0.000475144
0.00293743
0.00045106
-0.00416739
-0.00028798
-0.00791602
-0.000793165
-0.0012059
-0.000442735
0.00484067
1.77694e-05
0.00553023
0.000413289
0.00392955
0.000652856
-0.0026511
0.000187898
-0.00786272
-0.000290905
-0.00288535
3.32082e-05
0.00341396
0.000636548
0.00477929
0.000869926
0.00391414
-1.12071e-05
-0.00240309
-0.000896376
-0.00806636
-0.000782025
-0.00326911
-0.000348128
0.00374882
0.000110381
0.00547953
0.000531192
0.00466518
0.000657127
-0.00017635
0.000183338
-0.007684
-0.000507411
-0.00570748
-0.000528444
0.00254309
-7.22788e-05
0.00540509
0.000367086
0.00513376
0.000475656
0.00151323
-0.00683951
0.000982165
0.0132972
0.000160444
0.00609728
-0.00132438
-0.00480313
-0.00175601
-0.00548492
-0.0014263
-0.00373828
-0.00140409
-0.00338132
-0.00160885
-0.0026007
-0.001541
-0.000634621
-0.0010179
0.00131808
-0.000357299
0.00200767
0.000273437
0.0016003
0.000547515
-0.00104284
-0.000291159
-0.00549126
-0.00125431
-0.00495169
-0.00105525
0.0013454
-0.000225575
0.00454077
0.000529432
0.00439302
0.00107368
0.00239318
0.000630091
-0.0037238
-0.000705998
-0.00657993
-0.00114802
-0.000763873
-0.00045213
0.00414478
0.000412371
0.00466572
0.00106141
0.00328052
0.000981349
-0.00257104
-9.60119e-05
-0.00678536
-0.000734257
-0.00224711
-0.000285489
0.00296519
0.00054334
0.00395046
0.00110577
0.00335172
0.000315891
-0.00161322
-0.00111595
-0.00663452
-0.00138124
-0.00300381
-0.000645181
0.00301276
0.000262951
0.0045714
0.000944319
0.00398381
0.0011041
-0.000336132
1.92833e-06
-0.00658182
-0.00110177
-0.00460378
-0.000863865
0.00230519
-4.73638e-05
0.00458859
0.000710662
0.00437574
0.000968364
0.00125552
-0.00587115
0.00203985
0.0112573
0.00177233
0.00636479
-0.00019834
-0.00283246
-0.00120169
-0.00448157
-0.00132139
-0.00361858
-0.00153182
-0.00317088
-0.0017988
-0.00233372
-0.00167316
-0.000760269
-0.00105957
0.000704486
-0.000312248
0.00126036
0.000398288
0.000889764
0.000605509
-0.00125007
-0.000514002
-0.00437175
-0.00172996
-0.00373573
-0.00132865
0.000944098
-0.000245955
0.00345807
0.000750709
0.00339635
0.00145663
0.00168727
0.000671131
-0.00293831
-0.00100992
-0.00489888
-0.00130434
-0.000469454
-0.000420909
0.00326135
0.000639212
0.0036056
0.00148491
0.00243482
0.00109392
-0.00218006
-0.000412007
-0.00527943
-0.0010411
-0.00161801
-0.000449998
0.00237409
0.000468781
0.00303168
0.00121541
0.00260508
0.000649474
-0.00104728
-0.00106819
-0.00491686
-0.00166067
-0.00241132
-0.000791439
0.00214352
0.000312844
0.00346712
0.00121995
0.00307671
0.00134804
-0.000464225
-0.000185894
-0.00504789
-0.00150062
-0.00328906
-0.00103022
0.00183479
-1.12094e-05
0.00356959
0.000897614
0.00346691
0.00131534
0.000837792
-0.0045558
0.00261504
0.0086423
0.00316206
0.00581777
0.00117141
-0.000841808
-0.000259627
-0.00305053
-0.000858916
-0.00301928
-0.00132542
-0.00270438
-0.00165348
-0.00200566
-0.00152977
-0.000883987
-0.000953723
0.000128435
-0.000227436
0.000534069
0.00044087
0.00022146
0.000498977
-0.00130818
-0.000707248
-0.00316553
-0.0019112
-0.00253177
-0.00146022
0.000493116
-0.000296361
0.00229422
0.000797917
0.00230207
0.00148722
0.000997967
0.000566783
-0.00201787
-0.00115126
-0.00318083
-0.00135176
-0.000268954
-0.000382628
0.00229221
0.000726083
0.00249689
0.00159463
0.00156626
0.00102191
-0.00160733
-0.000642572
-0.00361495
-0.0011895
-0.00107107
-0.000500566
0.00168515
0.000418372
0.00211274
0.00122364
0.00179982
0.00084157
-0.000665216
-0.00086896
-0.00320633
-0.00161248
-0.0016678
-0.000797602
0.00132864
0.0003186
0.00235092
0.00132785
0.00206746
0.00135198
-0.000488353
-0.000323361
-0.00337254
-0.00158852
-0.0020239
-0.00102954
0.00127581
2.85824e-05
0.00251146
0.00104693
0.00244857
0.00144744
0.000437277
-0.00310836
0.00251744
0.00612485
0.00365359
0.00468162
0.00228263
0.000529152
0.000795578
-0.00156348
-0.000136169
-0.00208753
-0.000814121
-0.00202643
-0.00121663
-0.00160315
-0.00117124
-0.000929378
-0.000729323
-0.000313487
-0.00013585
-5.94094e-05
0.000379653
-0.000294046
0.000265578
-0.00119411
-0.00081715
-0.0020828
-0.00177781
-0.00157111
-0.00139989
0.000115202
-0.000353744
0.00124807
0.000640936
0.00130739
0.00117612
0.000462785
0.000346832
-0.00118859
-0.00109619
-0.00173781
-0.00123186
-0.000133285
-0.000314381
0.00137474
0.000668058
0.00151446
0.00139731
0.00083701
0.000811954
-0.00102198
-0.000706303
-0.0020967
-0.00114777
-0.00062961
-0.000487796
0.00102518
0.000290208
0.00133474
0.00105098
0.00103905
0.000794525
-0.000408757
-0.000629184
-0.00178262
-0.00132147
-0.000975511
-0.000688663
0.000695831
0.000284587
0.00137767
0.00119519
0.00115686
0.00109742
-0.000390589
-0.000391007
-0.00188412
-0.00138215
-0.00103276
-0.000890709
0.000784367
6.62115e-05
0.00155454
0.00103345
0.00148132
0.00130526
0.000165479
-0.00180311
0.00203234
0.00409251
0.00331114
0.00340282
0.00264124
0.00119906
0.00153706
-0.000459295
0.000566946
-0.00111741
-0.000170586
-0.0012889
-0.000610865
-0.00116287
-0.000674812
-0.000865432
-0.000410339
-0.00057796
-1.35463e-05
-0.000456204
0.000265668
-0.000573262
3.8218e-05
-0.00096666
-0.000777143
-0.00126744
-0.00141253
-0.000935725
-0.00116501
-0.000132318
-0.000396536
0.000479601
0.000352958
0.000557901
0.000685829
0.000129912
8.9962e-05
-0.00059272
-0.000870792
-0.000777056
-0.000950776
-5.32966e-05
-0.00025249
0.000676452
0.000492575
0.000769388
0.000983681
0.000345902
0.000510058
-0.000548356
-0.000596981
-0.000989654
-0.00092399
-0.000302599
-0.000426096
0.00052728
0.000179584
0.000729054
0.000727698
0.000490937
0.00054779
-0.00022885
-0.000415995
-0.000818839
-0.00091911
-0.000472394
-0.000514813
0.000291535
0.00019978
0.000663076
0.000845113
0.000511531
0.000688598
-0.000234076
-0.00036722
-0.000828298
-0.00100276
-0.000397212
-0.000652881
0.000434487
7.60093e-05
0.00082565
0.00081857
0.000738761
0.000949297
3.47547e-05
-0.000853811
0.00127166
0.00282085
0.00234479
0.00232969
0.00233266
0.0012112
0.00167063
0.000202741
0.000950344
-0.00039712
0.000351161
-0.000689715
-3.11063e-05
-0.0007806
-0.000150238
-0.000746297
-5.75229e-05
-0.00067068
0.000108767
-0.000622498
0.000178947
-0.000643442
-6.74846e-05
-0.00072023
-0.000595987
-0.000738941
-0.000961526
-0.000570184
-0.000844018
-0.000249822
-0.000389677
2.52603e-05
6.86738e-05
9.95463e-05
0.000243428
-4.4842e-05
-9.14169e-05
-0.000257873
-0.000585829
-0.000282641
-0.000622552
-1.65742e-05
-0.000204604
0.0002585
0.000269629
0.000295152
0.000523722
9.18088e-05
0.000207621
-0.000232252
-0.000417918
-0.000364115
-0.000624264
-9.62531e-05
-0.000329491
0.000232506
7.51014e-05
0.000324459
0.000381246
0.000184793
0.000258544
-0.000106148
-0.0002585
-0.000301796
-0.000545923
-0.000184968
-0.000338745
8.43589e-05
9.35053e-05
0.000230824
0.000442332
0.000162705
0.000303915
-9.56585e-05
-0.000274259
-0.000250123
-0.000603371
-6.80998e-05
-0.000398844
0.000229961
6.07341e-05
0.00036607
0.000509959
0.000289531
0.000545902
-1.18838e-06
-0.000307907
0.000801334
0.00201952
0.0014367
0.00169432
0.00161948
0.00102841
0.00135375
0.000468482
0.000968403
-1.17725e-05
0.000599393
-0.000320709
0.000338881
-0.00052009
0.000214033
-0.000621443
0.000190953
-0.000647602
0.000194444
-0.000625999
0.000130349
-0.00057935
-6.68312e-05
-0.000523046
-0.000346531
-0.000459239
-0.00053833
-0.000378386
-0.000515254
-0.000272898
-0.000319454
-0.000170538
-9.2183e-05
-0.000127725
-2.11578e-05
-0.000115865
-0.000158222
-0.000120805
-0.000348062
-9.28019e-05
-0.000349546
-1.50958e-05
-0.000149403
5.8354e-05
8.0553e-05
6.51975e-05
0.000168548
3.81757e-06
1.27214e-05
-7.64233e-05
-0.000266419
-8.49762e-05
-0.000362325
-3.49111e-07
-0.000224538
9.47167e-05
-7.03558e-06
0.000106956
0.000130707
4.70524e-05
6.23731e-05
-3.7812e-05
-0.000154439
-8.49852e-05
-0.000278713
-6.06939e-05
-0.000195971
1.61892e-06
5.19082e-06
2.96617e-05
0.000143738
2.41603e-05
6.45589e-05
-1.64773e-05
-0.000169993
-1.5569e-05
-0.000294556
5.64615e-05
-0.000188628
0.000124029
4.45954e-05
0.000132845
0.000247155
8.69705e-05
0.000247537
-1.57357e-06
-6.03691e-05
0.000560859
0.00145866
0.000935434
0.00131975
0.00107233
0.000891514
0.00103201
0.000508802
0.000835329
0.000184914
0.000641529
-0.000126902
0.000474053
-0.000352618
0.000348812
-0.000496206
0.000259468
-0.000558258
0.000179763
-0.000546297
8.57194e-05
-0.00048531
-3.08166e-05
-0.000406507
-0.000151262
-0.00033879
-0.000235454
-0.000294194
-0.000246744
-0.000261608
-0.000190871
-0.000226406
-0.000134312
-0.00018428
-0.000113916
-0.000136263
-0.000145011
-8.97143e-05
-0.00018603
-5.17862e-05
-0.000175915
-2.52127e-05
-0.00010429
-1.32706e-05
-2.67912e-05
-1.22981e-05
-1.04589e-05
-1.25131e-05
-7.66226e-05
-1.02614e-05
-0.000165783
4.17995e-06
-0.000191798
2.5665e-05
-0.000133552
3.6473e-05
-4.57925e-05
1.91979e-05
2.02928e-06
-7.70537e-07
-2.07918e-05
-1.49903e-05
-8.5737e-05
-2.00405e-05
-0.000122464
-2.39674e-05
-9.70286e-05
-2.38138e-05
-4.31474e-05
-2.42156e-05
-4.91534e-06
-1.40685e-05
-2.9768e-05
8.37454e-06
-9.09517e-05
4.56127e-05
-0.000108023
7.35337e-05
-5.31614e-05
6.91666e-05
3.40538e-05
4.56278e-05
9.6302e-05
2.47234e-05
7.95842e-05
1.51443e-05
1.92129e-05
0.000435018
0.00102364
0.000742647
0.00101212
0.000868642
0.000765523
0.000871018
0.000506423
0.000803631
0.000252302
0.000656911
1.98222e-05
0.000509611
-0.000205316
0.000367208
-0.00035381
0.000238521
-0.000429574
0.000131438
-0.000439211
4.72672e-05
-0.000401137
-1.4584e-05
-0.000344656
-5.68759e-05
-0.000296496
-8.5039e-05
-0.000266027
-0.000100151
-0.000246491
-0.000103973
-0.000222581
-0.000103924
-0.00018433
-0.00010522
-0.000134971
-0.000106658
-8.82801e-05
-0.000103883
-5.45621e-05
-9.01377e-05
-3.89571e-05
-7.13593e-05
-3.20473e-05
-6.00787e-05
-2.35782e-05
-6.18638e-05
-1.07297e-05
-7.97287e-05
7.60113e-06
-9.59734e-05
2.04227e-05
-9.19278e-05
2.16195e-05
-6.75116e-05
1.20596e-05
-4.46391e-05
-3.67375e-06
-3.41311e-05
-1.12818e-05
-3.74535e-05
-1.16688e-05
-4.70387e-05
-1.04523e-05
-5.3621e-05
-1.73822e-05
-5.12995e-05
-2.6134e-05
-4.73671e-05
-2.81472e-05
-4.69037e-05
-1.45291e-05
-5.00501e-05
1.15232e-05
-4.29499e-05
3.85109e-05
-2.07367e-05
5.13199e-05
5.6912e-06
4.27413e-05
2.53208e-05
2.59965e-05
2.96134e-05
2.0428e-05
1.70923e-05
2.76681e-05
3.63063e-05
0.000330438
0.000693196
0.000612111
0.000730448
0.0007682
0.000609438
0.000819679
0.000454947
0.00079124
0.000280738
0.000708361
0.000102699
0.000569034
-6.59872e-05
0.000416304
-0.000201079
0.000271458
-0.000284729
0.000150742
-0.000318495
6.47233e-05
-0.000315116
1.35556e-05
-0.000293489
-1.47773e-05
-0.00026816
-3.30399e-05
-0.000247756
-5.03768e-05
-0.00022915
-6.78371e-05
-0.000205124
-8.06354e-05
-0.000171539
-8.37338e-05
-0.000131875
-7.72247e-05
-9.47877e-05
-6.46322e-05
-6.71533e-05
-5.36813e-05
-4.99077e-05
-4.82684e-05
-3.74599e-05
-4.76995e-05
-2.41491e-05
-5.01707e-05
-8.2621e-06
-4.85362e-05
5.96552e-06
-4.15789e-05
1.34669e-05
-3.06288e-05
1.06695e-05
-2.06552e-05
2.08524e-06
-1.76914e-05
-6.63768e-06
-1.81748e-05
-1.07987e-05
-1.86391e-05
-1.12037e-05
-1.70757e-05
-1.2013e-05
-1.85568e-05
-1.58981e-05
-2.41491e-05
-2.05413e-05
-3.30821e-05
-1.92157e-05
-3.87852e-05
-8.82492e-06
-3.47994e-05
7.54355e-06
-1.90973e-05
2.2814e-05
1.86186e-06
3.0358e-05
1.55352e-05
2.90649e-05
1.62195e-05
2.53125e-05
9.71169e-06
2.69334e-05
2.12833e-06
3.52519e-05
3.84376e-05
0.000232924
0.000460275
0.000460904
0.000502467
0.000624276
0.000446064
0.000716299
0.000362925
0.000739511
0.000257526
0.000703097
0.000139115
0.000612735
2.43768e-05
0.00049253
-8.08698e-05
0.000364156
-0.000156354
0.000248087
-0.000202427
0.000156111
-0.000223139
8.98533e-05
-0.000227227
4.45137e-05
-0.000222815
1.05149e-05
-0.000213754
-1.8093e-05
-0.000200544
-4.19178e-05
-0.000181306
-5.76013e-05
-0.000155857
-6.24712e-05
-0.000127001
-5.7867e-05
-9.93898e-05
-4.86981e-05
-7.63238e-05
-4.05823e-05
-5.80246e-05
-3.55933e-05
-4.24487e-05
-3.13614e-05
-2.83824e-05
-2.53817e-05
-1.42452e-05
-1.56141e-05
-3.80331e-06
-3.12798e-06
9.8162e-07
6.75418e-06
7.87007e-07
1.17078e-05
-2.86919e-06
1.16748e-05
-6.60383e-06
9.51454e-06
-8.63627e-06
7.95205e-06
-9.63936e-06
6.86019e-06
-1.09215e-05
3.04562e-06
-1.20849e-05
-4.87405e-06
-1.26216e-05
-1.43624e-05
-9.7248e-06
-2.07235e-05
-2.46064e-06
-1.90373e-05
5.85955e-06
-1.0819e-05
1.46011e-05
-1.03043e-06
2.05701e-05
4.28781e-06
2.37395e-05
3.02224e-06
2.65762e-05
-1.10456e-06
3.10629e-05
-2.72666e-06
3.68754e-05
3.57112e-05
0.000156125
0.000304151
0.000321273
0.000337316
0.000458587
0.000308748
0.000557748
0.000263764
0.000611715
0.000203561
0.00061817
0.000132661
0.000584132
5.84161e-05
0.000515562
-1.22993e-05
0.000428709
-6.95014e-05
0.000338751
-0.00011247
0.000256349
-0.000140736
0.000186113
-0.000156987
0.00012776
-0.00016446
7.92141e-05
-0.00016521
3.86121e-05
-0.000159946
6.27104e-06
-0.000148965
-1.65259e-05
-0.000133057
-2.91549e-05
-0.00011437
-3.32825e-05
-9.52646e-05
-3.21093e-05
-7.74985e-05
-2.85974e-05
-6.15355e-05
-2.39782e-05
-4.70692e-05
-1.84443e-05
-3.39206e-05
-1.00077e-05
-2.26843e-05
1.29108e-06
-1.51023e-05
1.15918e-05
-9.32027e-06
1.94804e-05
-7.1024e-06
2.35279e-05
-6.91483e-06
2.39983e-05
-7.07277e-06
2.23278e-05
-6.9661e-06
1.94054e-05
-6.71775e-06
1.51459e-05
-6.66321e-06
9.39181e-06
-6.33199e-06
1.53871e-06
-4.76983e-06
-6.24387e-06
-1.93995e-06
-1.1008e-05
2.31008e-06
-1.28798e-05
7.73002e-06
-1.1494e-05
1.32125e-05
-8.87386e-06
1.79534e-05
-7.29107e-06
2.21568e-05
-7.0556e-06
2.63387e-05
-6.59524e-06
3.06042e-05
-4.10446e-06
3.4387e-05
3.1606e-05
0.000104762
0.000199386
0.000219498
0.000222578
0.000321966
0.000206281
0.00040519
0.000180542
0.000462851
0.0001459
0.000490934
0.000104576
0.000489308
6.00419e-05
0.000458113
1.88954e-05
0.000411947
-2.33345e-05
0.000355723
-5.62456e-05
0.000296539
-8.15502e-05
0.000239045
-9.94905e-05
0.00018548
-0.000110895
0.000136838
-0.00011657
9.39807e-05
-0.000117088
5.79579e-05
-0.000112938
2.98607e-05
-0.000104956
9.83508e-06
-9.43469e-05
-2.99478e-06
-8.24383e-05
-1.02262e-05
-7.02651e-05
-1.33031e-05
-5.84555e-05
-1.30965e-05
-4.72797e-05
-1.00239e-05
-3.69991e-05
-4.68802e-06
-2.80202e-05
1.05943e-06
-2.0848e-05
7.21999e-06
-1.54827e-05
1.18863e-05
-1.17694e-05
1.41575e-05
-9.18316e-06
1.42846e-05
-7.19858e-06
1.28668e-05
-5.54978e-06
1.01363e-05
-3.99042e-06
6.03726e-06
-2.56684e-06
8.37316e-07
-1.12967e-06
-4.58597e-06
6.54558e-07
-9.83292e-06
3.30386e-06
-1.40474e-05
6.52855e-06
-1.64853e-05
1.0171e-05
-1.71597e-05
1.38819e-05
-1.66453e-05
1.7438e-05
-1.53371e-05
2.0853e-05
-1.3157e-05
2.41608e-05
-9.75931e-06
2.72062e-05
-4.98325e-06
2.96101e-05
2.66217e-05
7.15275e-05
0.000127856
0.000150806
0.000143297
0.000223457
0.000133629
0.00028534
0.000118656
0.000332488
9.87459e-05
0.000362054
7.50069e-05
0.000372979
4.91153e-05
0.000368701
2.31717e-05
0.000346082
-7.15371e-07
0.000314557
-2.47209e-05
0.000276786
-4.37802e-05
0.000236039
-5.87449e-05
0.000194763
-6.96189e-05
0.00015475
-7.65577e-05
0.000117468
-7.98051e-05
8.42516e-05
-7.97192e-05
5.61101e-05
-7.6815e-05
3.34619e-05
-7.17022e-05
1.61491e-05
-6.51271e-05
3.5408e-06
-5.76557e-05
-4.99058e-06
-4.99257e-05
-1.00538e-05
-4.22219e-05
-1.22193e-05
-3.48364e-05
-1.2173e-05
-2.80652e-05
-1.08972e-05
-2.21244e-05
-9.26252e-06
-1.71195e-05
-8.02793e-06
-1.30027e-05
-7.60831e-06
-9.60193e-06
-8.07506e-06
-6.73416e-06
-9.36055e-06
-4.26395e-06
-1.11698e-05
-2.18147e-06
-1.35465e-05
-1.9551e-07
-1.64433e-05
1.76783e-06
-1.97006e-05
3.91718e-06
-2.25108e-05
6.11098e-06
-2.44601e-05
8.47561e-06
-2.52309e-05
1.09465e-05
-2.47735e-05
1.34256e-05
-2.31813e-05
1.5843e-05
-2.04826e-05
1.81536e-05
-1.66255e-05
2.03046e-05
-1.16113e-05
2.21922e-05
-5.63011e-06
2.36283e-05
2.09919e-05
4.95571e-05
7.82977e-05
0.000104761
8.80922e-05
0.000155903
8.24867e-05
0.000200559
7.39954e-05
0.000236432
6.28692e-05
0.00026181
4.96286e-05
0.000275926
3.50013e-05
0.0002792
1.98997e-05
0.000272695
5.79143e-06
0.000256621
-8.64513e-06
0.000234225
-2.13832e-05
0.000207446
-3.1966e-05
0.000178133
-4.03048e-05
0.000147915
-4.63376e-05
0.000118215
-5.01032e-05
9.0236e-05
-5.17394e-05
6.48936e-05
-5.14739e-05
4.28083e-05
-4.96172e-05
2.42013e-05
-4.65188e-05
9.16416e-06
-4.26191e-05
-2.66623e-06
-3.8099e-05
-1.15865e-05
-3.33037e-05
-1.79538e-05
-2.84662e-05
-2.22591e-05
-2.3758e-05
-2.5029e-05
-1.93576e-05
-2.67944e-05
-1.53545e-05
-2.80134e-05
-1.17783e-05
-2.90013e-05
-8.61303e-06
-2.99234e-05
-5.81687e-06
-3.08423e-05
-3.34339e-06
-3.18577e-05
-1.16153e-06
-3.27363e-05
6.79202e-07
-3.37208e-05
2.74945e-06
-3.43466e-05
4.54824e-06
-3.44956e-05
6.26193e-06
-3.39605e-05
7.9378e-06
-3.25888e-05
9.57591e-06
-3.03271e-05
1.11673e-05
-2.71609e-05
1.26776e-05
-2.30846e-05
1.40762e-05
-1.81088e-05
1.53279e-05
-1.22986e-05
1.63818e-05
-5.82793e-06
1.71581e-05
1.51652e-05
3.21819e-05
4.61125e-05
6.82592e-05
5.20111e-05
0.000101921
4.8821e-05
0.000131853
4.40566e-05
0.000156845
3.78727e-05
0.000175937
3.05366e-05
0.000188559
2.23803e-05
0.000194661
1.37959e-05
0.000195207
5.24445e-06
0.000189515
-2.95426e-06
0.000178798
-1.06672e-05
0.000164188
-1.73572e-05
0.000146781
-2.28989e-05
0.00012763
-2.71875e-05
0.000107711
-3.0186e-05
8.78926e-05
-3.19236e-05
6.89045e-05
-3.24882e-05
5.13032e-05
-3.20165e-05
3.54616e-05
-3.06772e-05
2.14949e-05
-2.86551e-05
9.52177e-06
-2.61302e-05
-5.04317e-07
-2.32778e-05
-8.71348e-06
-2.02531e-05
-1.52647e-05
-1.72058e-05
-2.04387e-05
-1.41872e-05
-2.44552e-05
-1.13382e-05
-2.75427e-05
-8.68535e-06
-2.98997e-05
-6.25469e-06
-3.167e-05
-4.05065e-06
-3.29445e-05
-2.06824e-06
-3.38118e-05
-2.89325e-07
-3.44434e-05
1.30993e-06
-3.44605e-05
2.76317e-06
-3.39918e-05
4.08144e-06
-3.3024e-05
5.29715e-06
-3.15131e-05
6.42643e-06
-2.94181e-05
7.48007e-06
-2.67073e-05
8.45776e-06
-2.33814e-05
9.35324e-06
-1.94613e-05
1.01567e-05
-1.49867e-05
1.08532e-05
-1.00266e-05
1.14218e-05
-4.69719e-06
1.1829e-05
1.04679e-05
2.0642e-05
2.54696e-05
4.39828e-05
2.86719e-05
6.59515e-05
2.68526e-05
8.58336e-05
2.41724e-05
0.000102988
2.07208e-05
0.000116896
1.66337e-05
0.000127201
1.20788e-05
0.000133746
7.2519e-06
0.000136634
2.35658e-06
0.000136059
-2.37903e-06
0.000132199
-6.80644e-06
0.000125584
-1.0742e-05
0.00011675
-1.40649e-05
0.000106254
-1.66919e-05
9.46478e-05
-1.85811e-05
8.24527e-05
-1.973e-05
7.01363e-05
-2.01723e-05
5.80921e-05
-1.9971e-05
4.66279e-05
-1.92116e-05
3.59647e-05
-1.79929e-05
2.62529e-05
-1.642e-05
1.75741e-05
-1.45974e-05
9.94787e-06
-1.26225e-05
3.32613e-06
-1.05822e-05
-2.28877e-06
-8.57398e-06
-7.0147e-06
-6.6115e-06
-1.09321e-05
-4.76329e-06
-1.41289e-05
-3.05567e-06
-1.66784e-05
-1.50314e-06
-1.86618e-05
-8.43103e-08
-2.01046e-05
1.15728e-06
-2.10406e-05
2.247e-06
-2.14928e-05
3.21338e-06
-2.14826e-05
4.07092e-06
-2.1019e-05
4.83485e-06
-2.01119e-05
5.51916e-06
-1.87678e-05
6.13473e-06
-1.69991e-05
6.68819e-06
-1.48281e-05
7.18228e-06
-1.22875e-05
7.61641e-06
-9.42127e-06
7.98723e-06
-6.28723e-06
8.28764e-06
-2.96078e-06
8.50208e-06
7.50543e-06
1.44082e-05
1.10604e-05
3.07674e-05
1.23127e-05
4.62883e-05
1.13293e-05
6.05452e-05
9.91226e-06
7.31603e-05
8.10732e-06
8.38085e-05
5.98782e-06
9.22446e-05
3.64259e-06
9.832e-05
1.17511e-06
0.000102002
-1.32725e-06
0.000103379
-3.75777e-06
0.000102581
-6.00948e-06
9.98194e-05
-7.98184e-06
9.53637e-05
-9.61042e-06
8.95173e-05
-1.08471e-05
8.25993e-05
-1.16651e-05
7.49273e-05
-1.20599e-05
6.68038e-05
-1.20493e-05
5.85023e-05
-1.16682e-05
5.02561e-05
-1.09641e-05
4.22552e-05
-9.99256e-06
3.46524e-05
-8.81851e-06
2.75621e-05
-7.50605e-06
2.1059e-05
-6.11651e-06
1.51862e-05
-4.7084e-06
9.9312e-06
-3.32047e-06
5.32098e-06
-2.00122e-06
1.32664e-06
-7.65871e-07
-2.07297e-06
3.4591e-07
-4.92014e-06
1.34311e-06
-7.22383e-06
2.21937e-06
-9.04145e-06
2.97728e-06
-1.04043e-05
3.61113e-06
-1.13332e-05
4.14105e-06
-1.18461e-05
4.58258e-06
-1.19626e-05
4.95099e-06
-1.17047e-05
5.26057e-06
-1.10957e-05
5.52424e-06
-1.01614e-05
5.75194e-06
-8.93103e-06
5.95022e-06
-7.43916e-06
6.12312e-06
-5.72604e-06
6.27267e-06
-3.838e-06
6.39789e-06
-1.82959e-06
6.49166e-06
5.67408e-06
1.01882e-05
8.74932e-07
2.16913e-05
8.12809e-07
3.26059e-05
4.1434e-07
4.27093e-05
-1.91505e-07
5.18192e-05
-9.99194e-07
5.96934e-05
-1.88409e-06
6.61354e-05
-2.7991e-06
7.09087e-05
-3.59771e-06
7.41663e-05
-4.58482e-06
7.58816e-05
-5.47374e-06
7.60681e-05
-6.19655e-06
7.48368e-05
-6.75025e-06
7.23357e-05
-7.10857e-06
6.87442e-05
-7.25523e-06
6.42599e-05
-7.18109e-06
5.90849e-05
-6.88528e-06
5.34239e-05
-6.38775e-06
4.74705e-05
-5.71298e-06
4.13948e-05
-4.88668e-06
3.5354e-05
-3.95178e-06
2.94781e-05
-2.94351e-06
2.38785e-05
-1.90602e-06
1.86263e-05
-8.62709e-07
1.3812e-05
1.06412e-07
9.40914e-06
1.08108e-06
5.54678e-06
1.86095e-06
2.1043e-06
2.67885e-06
-8.83767e-07
3.33605e-06
-3.41212e-06
3.87159e-06
-5.49232e-06
4.29972e-06
-7.12891e-06
4.61548e-06
-8.35266e-06
4.83622e-06
-9.18722e-06
4.97526e-06
-9.65162e-06
5.04582e-06
-9.76538e-06
5.06385e-06
-9.55194e-06
5.04625e-06
-9.03811e-06
5.009e-06
-8.25329e-06
4.96506e-06
-7.2281e-06
4.92263e-06
-5.99621e-06
4.88868e-06
-4.59531e-06
4.8691e-06
-3.06601e-06
4.86583e-06
-1.45326e-06
4.87625e-06
4.21996e-06
6.60193e-06
-5.72538e-06
1.39974e-05
-6.58141e-06
2.10869e-05
-6.67673e-06
2.76863e-05
-6.79121e-06
3.35253e-05
-6.83599e-06
3.84824e-05
-6.84112e-06
4.24783e-05
-6.7951e-06
4.55619e-05
-6.68033e-06
4.74892e-05
-6.51193e-06
4.82778e-05
-6.26302e-06
4.79978e-05
-5.91659e-06
4.67175e-05
-5.46904e-06
4.4526e-05
-4.91574e-06
4.15363e-05
-4.26467e-06
3.78868e-05
-3.53169e-06
3.37348e-05
-2.73389e-06
2.92171e-05
-1.8703e-06
2.44831e-05
-9.78393e-07
1.96703e-05
-7.33398e-08
1.49175e-05
8.0027e-07
1.03011e-05
1.67135e-06
5.97889e-06
2.41568e-06
1.95532e-06
3.16147e-06
-1.75211e-06
3.81389e-06
-5.0364e-06
4.36433e-06
-7.96951e-06
4.79378e-06
-1.04113e-05
5.12225e-06
-1.24091e-05
5.3358e-06
-1.3973e-05
5.43603e-06
-1.51036e-05
5.43036e-06
-1.58307e-05
5.34335e-06
-1.61742e-05
5.18052e-06
-1.6158e-05
4.95892e-06
-1.58052e-05
4.69207e-06
-1.51382e-05
4.39605e-06
-1.41806e-05
4.08794e-06
-1.29576e-05
3.78531e-06
-1.14986e-05
3.50499e-06
-9.83655e-06
3.25906e-06
-8.00465e-06
3.05494e-06
-6.03753e-06
2.8999e-06
-3.97207e-06
2.79821e-06
-1.84444e-06
2.74664e-06
2.37517e-06
3.30896e-06
-9.03285e-06
7.04651e-06
-1.03171e-05
1.05686e-05
-1.0199e-05
1.36952e-05
-9.91598e-06
1.6342e-05
-9.48071e-06
1.84084e-05
-8.90783e-06
1.98138e-05
-8.19941e-06
2.05077e-05
-7.3721e-06
2.04406e-05
-6.44403e-06
1.96029e-05
-5.42498e-06
1.8019e-05
-4.33205e-06
1.57491e-05
-3.19826e-06
1.28948e-05
-2.06046e-06
9.52251e-06
-8.91975e-07
5.72712e-06
2.63043e-07
1.69605e-06
1.29565e-06
-2.56709e-06
2.39144e-06
-6.87736e-06
3.33123e-06
-1.09777e-05
4.02658e-06
-1.49344e-05
4.75593e-06
-1.86348e-05
5.37041e-06
-2.20704e-05
5.85064e-06
-2.51156e-05
6.20716e-06
-2.77308e-05
6.42944e-06
-2.98783e-05
6.51131e-06
-3.15462e-05
6.46145e-06
-3.27129e-05
6.28992e-06
-3.33833e-05
6.00764e-06
-3.35751e-05
5.62834e-06
-3.33146e-05
5.16978e-06
-3.26173e-05
4.64607e-06