/*--------------------------------*- C++ -*----------------------------------*\
  =========                 |
  \\      /  F ield         | OpenFOAM: The Open Source CFD Toolbox
   \\    /   O peration     | Website:  https://openfoam.org
    \\  /    A nd           | Version:  7
     \\/     M anipulation  |
\*---------------------------------------------------------------------------*/
FoamFile
{
    version     2.0;
    format      ascii;
    class       volVectorField;
    location    "9.7";
    object      U;
}
// * * * * * * * * * * * * * * * * * * * * * * * * * * * * * * * * * * * * * //

dimensions      [0 1 -1 0 0 0 0];

internalField   nonuniform List<vector> 
900
(
(0.000100111 -9.86813e-05 0)
(0.000116755 -1.27606e-05 0)
(-0.000221536 9.92213e-05 0)
(-0.000857186 0.000187685 0)
(-0.00170701 0.000244532 0)
(-0.00269808 0.000276092 0)
(-0.00376858 0.000290935 0)
(-0.00487228 0.000295284 0)
(-0.00597381 0.000292221 0)
(-0.00704208 0.000282248 0)
(-0.008045 0.000264091 0)
(-0.00894621 0.000235515 0)
(-0.00970395 0.000194104 0)
(-0.0102721 0.000138053 0)
(-0.0106035 6.69503e-05 0)
(-0.0106551 -1.75843e-05 0)
(-0.0103943 -0.000112059 0)
(-0.00980606 -0.00020961 0)
(-0.00890044 -0.000301338 0)
(-0.00771653 -0.000377063 0)
(-0.0063238 -0.000426713 0)
(-0.00481864 -0.000442089 0)
(-0.00331588 -0.000418574 0)
(-0.00193601 -0.000356433 0)
(-0.000789326 -0.00026147 0)
(3.672e-05 -0.00014557 0)
(0.000492473 -2.31039e-05 0)
(0.000579953 8.74935e-05 0)
(0.000376714 0.000150692 0)
(0.000109063 0.000109433 0)
(1.66411e-05 -0.000120904 0)
(-0.00038823 0.000382022 0)
(-0.00157167 0.000952323 0)
(-0.00336804 0.00141841 0)
(-0.00563724 0.00174623 0)
(-0.00823491 0.00194944 0)
(-0.0110269 0.00205438 0)
(-0.0139007 0.00208329 0)
(-0.0167601 0.00204853 0)
(-0.0195163 0.00195277 0)
(-0.0220789 0.00179151 0)
(-0.024351 0.00155648 0)
(-0.0262282 0.00123961 0)
(-0.0276012 0.000836869 0)
(-0.0283644 0.000351831 0)
(-0.0284269 -0.000201742 0)
(-0.0277252 -0.000797008 0)
(-0.0262372 -0.0013947 0)
(-0.0239975 -0.00194583 0)
(-0.0211031 -0.00239639 0)
(-0.0177151 -0.00269453 0)
(-0.0140503 -0.00279911 0)
(-0.0103642 -0.00268802 0)
(-0.00692389 -0.00236448 0)
(-0.00397656 -0.00185999 0)
(-0.00171592 -0.00123465 0)
(-0.000249153 -0.000571118 0)
(0.000420948 2.34121e-05 0)
(0.000434951 0.00040771 0)
(0.00015341 0.00037329 0)
(-0.000108136 0.000226463 0)
(-0.00104002 0.00158534 0)
(-0.00314966 0.00297113 0)
(-0.00608166 0.00410528 0)
(-0.00964241 0.00492556 0)
(-0.0136454 0.00545066 0)
(-0.0179107 0.00572611 0)
(-0.02228 0.00579348 0)
(-0.0266123 0.00567716 0)
(-0.0307729 0.00538267 0)
(-0.034625 0.00490109 0)
(-0.038024 0.0042166 0)
(-0.0408177 0.00331527 0)
(-0.0428511 0.00219418 0)
(-0.0439781 0.000869553 0)
(-0.0440742 -0.000617028 0)
(-0.0430551 -0.00219418 0)
(-0.0408953 -0.00376254 0)
(-0.0376449 -0.00520089 0)
(-0.033438 -0.00637779 0)
(-0.0284952 -0.00716823 0)
(-0.023114 -0.0074734 0)
(-0.017646 -0.00724003 0)
(-0.0124633 -0.00647557 0)
(-0.00791547 -0.00525581 0)
(-0.00428319 -0.00372417 0)
(-0.00173348 -0.00208461 0)
(-0.000285831 -0.000596775 0)
(0.00021066 0.000432639 0)
(0.000125621 0.000614403 0)
(-0.000229568 0.000945374 0)
(-0.0016895 0.00355854 0)
(-0.00472445 0.00599605 0)
(-0.0087577 0.00795413 0)
(-0.013527 0.00937041 0)
(-0.0188084 0.0102809 0)
(-0.0243883 0.0107541 0)
(-0.0300776 0.0108512 0)
(-0.0357042 0.0106074 0)
(-0.0411012 0.0100296 0)
(-0.0460973 0.00910334 0)
(-0.050512 0.00780454 0)
(-0.0541562 0.00611436 0)
(-0.0568385 0.00403377 0)
(-0.0583779 0.00159713 0)
(-0.05862 -0.00111766 0)
(-0.0574564 -0.00398566 0)
(-0.0548471 -0.00683304 0)
(-0.0508408 -0.00945 0)
(-0.0455867 -0.0116094 0)
(-0.0393404 -0.0130941 0)
(-0.0324553 -0.0137297 0)
(-0.0253601 -0.0134181 0)
(-0.0185195 -0.0121646 0)
(-0.0123819 -0.0100935 0)
(-0.00732136 -0.00744778 0)
(-0.00357996 -0.00457626 0)
(-0.00122161 -0.00191464 0)
(-0.000108084 3.51259e-05 0)
(8.37868e-05 0.000698525 0)
(-0.000336412 0.00200667 0)
(-0.00229276 0.0062797 0)
(-0.00621423 0.00999804 0)
(-0.0112963 0.0129099 0)
(-0.017202 0.0149954 0)
(-0.02367 0.0163293 0)
(-0.0304596 0.0170122 0)
(-0.037361 0.0171271 0)
(-0.0441832 0.0167191 0)
(-0.0507386 0.0157948 0)
(-0.0568328 0.0143316 0)
(-0.0622592 0.0122957 0)
(-0.0667993 0.00966194 0)
(-0.0702291 0.00643473 0)
(-0.072332 0.00266724 0)
(-0.0729179 -0.00152479 0)
(-0.071841 -0.00595809 0)
(-0.0690271 -0.0103756 0)
(-0.0645006 -0.0144669 0)
(-0.0584007 -0.0178922 0)
(-0.0509945 -0.0203209 0)
(-0.0426751 -0.0214794 0)
(-0.0339412 -0.0212021 0)
(-0.0253555 -0.0194761 0)
(-0.0174832 -0.016469 0)
(-0.0108177 -0.012532 0)
(-0.00570631 -0.00817941 0)
(-0.00228471 -0.00405009 0)
(-0.000452252 -0.000861205 0)
(4.68209e-05 0.00060539 0)
(-0.000429295 0.00338226 0)
(-0.00284029 0.00970549 0)
(-0.00758913 0.0149323 0)
(-0.0136549 0.0189236 0)
(-0.0206269 0.021745 0)
(-0.0282081 0.0235355 0)
(-0.0361361 0.0244412 0)
(-0.0441887 0.0245719 0)
(-0.0521658 0.0239836 0)
(-0.0598701 0.02268 0)
(-0.0670945 0.0206275 0)
(-0.0736143 0.0177779 0)
(-0.0791866 0.014095 0)
(-0.0835551 0.0095813 0)
(-0.0864627 0.00430343 0)
(-0.0876723 -0.00158881 0)
(-0.0869808 -0.00785565 0)
(-0.0842534 -0.0141527 0)
(-0.0794621 -0.0200589 0)
(-0.0727063 -0.025103 0)
(-0.0642384 -0.028813 0)
(-0.0544742 -0.0307813 0)
(-0.0439798 -0.0307388 0)
(-0.0334306 -0.0286236 0)
(-0.0235401 -0.0246298 0)
(-0.0149652 -0.0192202 0)
(-0.00820438 -0.0130974 0)
(-0.00350293 -0.00714064 0)
(-0.000821363 -0.00232303 0)
(1.80482e-05 0.000333795 0)
(-0.000510878 0.00504032 0)
(-0.00333283 0.0137777 0)
(-0.00883972 0.0207314 0)
(-0.0158152 0.0259254 0)
(-0.0237814 0.0295502 0)
(-0.0324099 0.0318363 0)
(-0.0414228 0.03299 0)
(-0.0505933 0.0331557 0)
(-0.0597218 0.0324015 0)
(-0.0686113 0.0307268 0)
(-0.0770508 0.0280821 0)
(-0.0848055 0.0243978 0)
(-0.0916119 0.0196174 0)
(-0.0971805 0.0137302 0)
(-0.101206 0.00680289 0)
(-0.103391 -0.000992244 0)
(-0.103453 -0.00935345 0)
(-0.101166 -0.017866 0)
(-0.0964176 -0.0259884 0)
(-0.0892318 -0.033096 0)
(-0.0798132 -0.0385403 0)
(-0.0685763 -0.0417325 0)
(-0.0561469 -0.0422453 0)
(-0.0433277 -0.0399171 0)
(-0.0310189 -0.0349347 0)
(-0.0200995 -0.027866 0)
(-0.0112848 -0.0196279 0)
(-0.0049852 -0.0113924 0)
(-0.00125483 -0.00445159 0)
(-9.12418e-06 -0.000128431 0)
(-0.000582688 0.00695063 0)
(-0.00377079 0.018434 0)
(-0.00995951 0.0273197 0)
(-0.0177625 0.0338383 0)
(-0.0266447 0.0383406 0)
(-0.0362532 0.0411737 0)
(-0.0463015 0.042621 0)
(-0.0565663 0.0428694 0)
(-0.0668575 0.0420022 0)
(-0.0769877 0.0400122 0)
(-0.0867516 0.0368282 0)
(-0.095911 0.0323498 0)
(-0.104187 0.0264865 0)
(-0.111256 0.0191986 0)
(-0.116761 0.0105352 0)
(-0.120315 0.000672835 0)
(-0.121548 -0.0100503 0)
(-0.120128 -0.0211479 0)
(-0.115807 -0.0319549 0)
(-0.108494 -0.0416749 0)
(-0.098306 -0.0494441 0)
(-0.0856187 -0.0544327 0)
(-0.0710955 -0.0559808 0)
(-0.0556688 -0.0537499 0)
(-0.0404615 -0.0478581 0)
(-0.0266431 -0.0389541 0)
(-0.0152335 -0.028195 0)
(-0.00688827 -0.0171145 0)
(-0.00180806 -0.00741657 0)
(-4.16455e-05 -0.000821603 0)
(-0.000644651 0.00908302 0)
(-0.00415081 0.0236082 0)
(-0.010937 0.0346151 0)
(-0.0194748 0.0425781 0)
(-0.0291837 0.0480396 0)
(-0.0396941 0.0514871 0)
(-0.0507185 0.0532968 0)
(-0.0620449 0.0537074 0)
(-0.0735008 0.0528206 0)
(-0.0849175 0.050621 0)
(-0.0961038 0.0470085 0)
(-0.106826 0.0418401 0)
(-0.116793 0.0349751 0)
(-0.125653 0.0263233 0)
(-0.132988 0.0158936 0)
(-0.13833 0.00384093 0)
(-0.141195 -0.00949619 0)
(-0.141112 -0.0235617 0)
(-0.137679 -0.0375734 0)
(-0.130647 -0.0505507 0)
(-0.119995 -0.0613767 0)
(-0.106005 -0.0689146 0)
(-0.0893309 -0.0721786 0)
(-0.0710116 -0.0705437 0)
(-0.0524102 -0.0639586 0)
(-0.0350549 -0.0530949 0)
(-0.0203793 -0.0393615 0)
(-0.0093997 -0.0247398 0)
(-0.00255089 -0.0114752 0)
(-9.008e-05 -0.00182288 0)
(-0.000695443 0.0114044 0)
(-0.00446549 0.0292266 0)
(-0.0117536 0.0425244 0)
(-0.0209192 0.0520474 0)
(-0.0313481 0.0585562 0)
(-0.042662 0.0626998 0)
(-0.0545792 0.0649622 0)
(-0.0669053 0.0656437 0)
(-0.0794927 0.0648682 0)
(-0.0921988 0.0626101 0)
(-0.104855 0.0587336 0)
(-0.117238 0.0530398 0)
(-0.129056 0.0453189 0)
(-0.139929 0.0354058 0)
(-0.149388 0.0232396 0)
(-0.15688 0.00892191 0)
(-0.161808 -0.00722687 0)
(-0.163551 -0.0246174 0)
(-0.161529 -0.042365 0)
(-0.155305 -0.0593034 0)
(-0.144662 -0.0740357 0)
(-0.129722 -0.085056 0)
(-0.111048 -0.0909478 0)
(-0.0897189 -0.0906582 0)
(-0.0673166 -0.0838128 0)
(-0.0457761 -0.0709894 0)
(-0.0270671 -0.0538234 0)
(-0.0127256 -0.0348345 0)
(-0.00356042 -0.016982 0)
(-0.00016529 -0.00324573 0)
(-0.00073296 0.0138768 0)
(-0.00470461 0.035205 0)
(-0.0123851 0.0509399 0)
(-0.0220531 0.0621304 0)
(-0.0330722 0.0697764 0)
(-0.0450617 0.0747065 0)
(-0.05775 0.0775268 0)
(-0.0709652 0.0786083 0)
(-0.0845888 0.0781016 0)
(-0.0985103 0.0759701 0)
(-0.112589 0.0720355 0)
(-0.126623 0.0660302 0)
(-0.140325 0.0576564 0)
(-0.153299 0.0466502 0)
(-0.165037 0.0328508 0)
(-0.174918 0.0162738 0)
(-0.18224 -0.00281348 0)
(-0.186243 -0.0238099 0)
(-0.186175 -0.0457717 0)
(-0.181386 -0.0673647 0)
(-0.171417 -0.0869081 0)
(-0.156146 -0.102486 0)
(-0.135939 -0.112153 0)
(-0.111795 -0.114263 0)
(-0.0854228 -0.107906 0)
(-0.0591612 -0.0933584 0)
(-0.0356285 -0.0723805 0)
(-0.0170832 -0.0480968 0)
(-0.00492086 -0.0243966 0)
(-0.000279075 -0.00524614 0)
(-0.000754833 0.0164557 0)
(-0.00485705 0.0414466 0)
(-0.0128051 0.0597366 0)
(-0.0228299 0.0726885 0)
(-0.0342819 0.0815562 0)
(-0.0467813 0.0873626 0)
(-0.0600692 0.0908484 0)
(-0.0739965 0.0924647 0)
(-0.0884758 0.0923935 0)
(-0.10343 0.0905876 0)
(-0.118753 0.0868207 0)
(-0.134267 0.0807464 0)
(-0.149702 0.0719631 0)
(-0.164663 0.060087 0)
(-0.178624 0.0448334 0)
(-0.190926 0.0261041 0)
(-0.200782 0.00407983 0)
(-0.207339 -0.0206829 0)
(-0.209709 -0.0472043 0)
(-0.207024 -0.0740334 0)
(-0.19856 -0.0992422 0)
(-0.183875 -0.120505 0)
(-0.163006 -0.135284 0)
(-0.136696 -0.141178 0)
(-0.106608 -0.136471 0)
(-0.0753803 -0.120822 0)
(-0.0463383 -0.095872 0)
(-0.0226903 -0.0653391 0)
(-0.00672488 -0.0342874 0)
(-0.000445585 -0.00802686 0)
(-0.00075902 0.0190904 0)
(-0.00491339 0.0478423 0)
(-0.012991 0.0687718 0)
(-0.023207 0.0835582 0)
(-0.0349056 0.0937171 0)
(-0.0477082 0.100476 0)
(-0.0613664 0.104721 0)
(-0.0757514 0.106992 0)
(-0.0908037 0.107508 0)
(-0.106479 0.106213 0)
(-0.122704 0.102831 0)
(-0.139335 0.0969293 0)
(-0.156126 0.0879932 0)
(-0.172705 0.075506 0)
(-0.188556 0.0590429 0)
(-0.20302 0.0383727 0)
(-0.2153 0.0135613 0)
(-0.224486 -0.0149299 0)
(-0.2296 -0.046126 0)
(-0.229629 -0.0785379 0)
(-0.223582 -0.110071 0)
(-0.210651 -0.138053 0)
(-0.190415 -0.159356 0)
(-0.16315 -0.170706 0)
(-0.130204 -0.169293 0)
(-0.0942819 -0.153718 0)
(-0.0593435 -0.125061 0)
(-0.0297451 -0.0874434 0)
(-0.00907315 -0.0473272 0)
(-0.000682711 -0.0118423 0)
(-0.000744477 0.021726 0)
(-0.00486915 0.054274 0)
(-0.0129306 0.0778881 0)
(-0.0231577 0.0945529 0)
(-0.034891 0.106045 0)
(-0.0477497 0.113804 0)
(-0.0614905 0.118868 0)
(-0.0759983 0.121875 0)
(-0.0912347 0.123087 0)
(-0.107183 0.122444 0)
(-0.123801 0.11962 0)
(-0.140981 0.114098 0)
(-0.158514 0.105248 0)
(-0.176071 0.0924168 0)
(-0.193182 0.0750378 0)
(-0.209242 0.0527389 0)
(-0.223502 0.0254583 0)
(-0.235071 -0.00645544 0)
(-0.242979 -0.042151 0)
(-0.246143 -0.0801427 0)
(-0.243362 -0.118302 0)
(-0.233467 -0.153752 0)
(-0.215495 -0.182875 0)
(-0.18905 -0.201502 0)
(-0.154833 -0.205493 0)
(-0.115227 -0.191869 0)
(-0.0745554 -0.160454 0)
(-0.0383865 -0.115275 0)
(-0.0120693 -0.0642758 0)
(-0.00101315 -0.0170031 0)
(-0.000711877 0.0243066 0)
(-0.00472835 0.0606214 0)
(-0.0126308 0.0869206 0)
(-0.0226836 0.105469 0)
(-0.0342229 0.118297 0)
(-0.0468583 0.127055 0)
(-0.0603432 0.132944 0)
(-0.0745668 0.136706 0)
(-0.0895026 0.138655 0)
(-0.105154 0.138729 0)
(-0.121505 0.136562 0)
(-0.138486 0.131558 0)
(-0.155938 0.122979 0)
(-0.173593 0.110051 0)
(-0.191066 0.0920735 0)
(-0.207848 0.0685431 0)
(-0.223312 0.0392679 0)
(-0.236713 0.00446105 0)
(-0.24714 -0.035179 0)
(-0.253524 -0.0782956 0)
(-0.254611 -0.122883 0)
(-0.248932 -0.166061 0)
(-0.234976 -0.203931 0)
(-0.211536 -0.231564 0)
(-0.178337 -0.243382 0)
(-0.136941 -0.234331 0)
(-0.0915159 -0.202059 0)
(-0.0486305 -0.149542 0)
(-0.0158085 -0.0859377 0)
(-0.00146506 -0.0238772 0)
(-0.000664333 0.0267815 0)
(-0.00450732 0.0667735 0)
(-0.0121257 0.0957099 0)
(-0.0218292 0.116098 0)
(-0.0329425 0.130209 0)
(-0.0450568 0.139905 0)
(-0.0579123 0.146552 0)
(-0.0713926 0.151005 0)
(-0.0854738 0.153636 0)
(-0.100171 0.154396 0)
(-0.115493 0.152885 0)
(-0.131407 0.148443 0)
(-0.147815 0.140247 0)
(-0.164534 0.127419 0)
(-0.181291 0.109155 0)
(-0.197725 0.0848429 0)
(-0.213389 0.0541738 0)
(-0.227729 0.0172278 0)
(-0.240019 -0.025451 0)
(-0.249348 -0.0727778 0)
(-0.254508 -0.123017 0)
(-0.253879 -0.173527 0)
(-0.245503 -0.220447 0)
(-0.227341 -0.258386 0)
(-0.197923 -0.280459 0)
(-0.157474 -0.279208 0)
(-0.109276 -0.249106 0)
(-0.0602894 -0.190581 0)
(-0.0203606 -0.113087 0)
(-0.00207288 -0.0328847 0)
(-0.000608137 0.0291128 0)
(-0.00423863 0.0726437 0)
(-0.011486 0.104119 0)
(-0.0206948 0.126245 0)
(-0.031166 0.141517 0)
(-0.0424616 0.152009 0)
(-0.0543011 0.15926 0)
(-0.0665551 0.164243 0)
(-0.0791962 0.1674 0)
(-0.0922467 0.168703 0)
(-0.105738 0.167738 0)
(-0.119682 0.163802 0)
(-0.134048 0.156011 0)
(-0.148756 0.14342 0)
(-0.163673 0.125156 0)
(-0.178616 0.100534 0)
(-0.193353 0.0691643 0)
(-0.207576 0.0310127 0)
(-0.220819 -0.0135655 0)
(-0.232429 -0.063815 0)
(-0.241379 -0.11838 0)
(-0.246081 -0.175112 0)
(-0.244332 -0.230559 0)
(-0.233402 -0.279335 0)
(-0.210576 -0.313646 0)
(-0.174366 -0.323656 0)
(-0.12636 -0.299819 0)
(-0.0728944 -0.238109 0)
(-0.0257529 -0.146351 0)
(-0.00287951 -0.0444851 0)
(-0.000553681 0.0312856 0)
(-0.00397566 0.07819 0)
(-0.010828 0.112056 0)
(-0.0194497 0.135745 0)
(-0.0290987 0.151972 0)
(-0.0392991 0.163029 0)
(-0.0497464 0.170631 0)
(-0.0602985 0.175883 0)
(-0.0709249 0.179305 0)
(-0.0816572 0.180905 0)
(-0.0925539 0.180274 0)
(-0.103676 0.176694 0)
(-0.115076 0.169252 0)
(-0.126788 0.156974 0)
(-0.138836 0.138956 0)
(-0.151229 0.114482 0)
(-0.163963 0.0831159 0)
(-0.176995 0.0447358 0)
(-0.190179 -0.000477926 0)
(-0.203147 -0.0520951 0)
(-0.215144 -0.109239 0)
(-0.22483 -0.170444 0)
(-0.230006 -0.233023 0)
(-0.227538 -0.292142 0)
(-0.213654 -0.339766 0)
(-0.185033 -0.364149 0)
(-0.140889 -0.35136 0)
(-0.0856614 -0.290964 0)
(-0.0319591 -0.186064 0)
(-0.00394236 -0.0591603 0)
(-0.000517059 0.0333209 0)
(-0.00379888 0.0834395 0)
(-0.0103251 0.119497 0)
(-0.0183447 0.144491 0)
(-0.0270466 0.161367 0)
(-0.0359132 0.172649 0)
(-0.044623 0.180251 0)
(-0.0530315 0.185413 0)
(-0.0611164 0.188747 0)
(-0.0689291 0.190314 0)
(-0.0765651 0.189731 0)
(-0.0841476 0.18629 0)
(-0.0918196 0.179087 0)
(-0.0997439 0.167153 0)
(-0.108105 0.149593 0)
(-0.117109 0.125695 0)
(-0.12697 0.0950059 0)
(-0.137894 0.0573421 0)
(-0.15003 0.0127417 0)
(-0.163316 -0.0386188 0)
(-0.177333 -0.0964051 0)
(-0.191105 -0.159918 0)
(-0.202704 -0.227496 0)
(-0.208966 -0.295386 0)
(-0.205469 -0.356131 0)
(-0.187264 -0.397004 0)
(-0.150852 -0.400052 0)
(-0.0975267 -0.346957 0)
(-0.0389032 -0.232089 0)
(-0.00534742 -0.0774035 0)
(-0.00052359 0.0352936 0)
(-0.00382702 0.0885194 0)
(-0.0102235 0.12652 0)
(-0.0177263 0.152452 0)
(-0.0254239 0.169545 0)
(-0.0327644 0.1806 0)
(-0.0394312 0.187745 0)
(-0.0453035 0.192376 0)
(-0.0503907 0.195202 0)
(-0.0547838 0.19635 0)
(-0.0586322 0.195485 0)
(-0.0621337 0.191938 0)
(-0.0655331 0.184841 0)
(-0.069124 0.173267 0)
(-0.0732518 0.15636 0)
(-0.0783053 0.133436 0)
(-0.0846974 0.104045 0)
(-0.0928427 0.0679707 0)
(-0.103118 0.025142 0)
(-0.115743 -0.0244895 0)
(-0.130641 -0.0810537 0)
(-0.14724 -0.144597 0)
(-0.164084 -0.214594 0)
(-0.178368 -0.288763 0)
(-0.185566 -0.361051 0)
(-0.17963 -0.419008 0)
(-0.154445 -0.441831 0)
(-0.10725 -0.402893 0)
(-0.0464734 -0.283645 0)
(-0.00723385 -0.0997256 0)
(-0.000615992 0.03736 0)
(-0.00423853 0.093697 0)
(-0.0108687 0.133327 0)
(-0.0180555 0.159685 0)
(-0.024757 0.17641 0)
(-0.0304163 0.186651 0)
(-0.0347668 0.192788 0)
(-0.0377564 0.196378 0)
(-0.0394631 0.198237 0)
(-0.0400458 0.198564 0)
(-0.0397277 0.197086 0)
(-0.0387944 0.193195 0)
(-0.037597 0.186086 0)
(-0.036554 0.174895 0)
(-0.0361612 0.158835 0)
(-0.0369716 0.13725 0)
(-0.0395568 0.109711 0)
(-0.0444887 0.0759774 0)
(-0.0523187 0.0358998 0)
(-0.0634777 -0.0107731 0)
(-0.0781551 -0.0645038 0)
(-0.0961747 -0.125968 0)
(-0.116657 -0.195708 0)
(-0.137469 -0.273074 0)
(-0.154566 -0.354073 0)
(-0.161558 -0.427904 0)
(-0.150275 -0.4728 0)
(-0.113533 -0.454805 0)
(-0.0545134 -0.339158 0)
(-0.00982235 -0.126686 0)
(-0.000872782 0.0398055 0)
(-0.00531359 0.0994325 0)
(-0.0127489 0.140272 0)
(-0.0199319 0.166336 0)
(-0.0256807 0.181906 0)
(-0.0295041 0.190599 0)
(-0.0312641 0.195083 0)
(-0.0310438 0.197082 0)
(-0.0290391 0.197508 0)
(-0.0255102 0.196632 0)
(-0.0207738 0.194247 0)
(-0.0152113 0.189818 0)
(-0.00927786 0.182621 0)
(-0.00349536 0.171871 0)
(0.00150479 0.156836 0)
(0.0050335 0.136921 0)
(0.00641129 0.111709 0)
(0.00496192 0.0809273 0)
(9.2882e-06 0.0443418 0)
(-0.00901805 0.00158107 0)
(-0.0224836 -0.0480425 0)
(-0.0405449 -0.105672 0)
(-0.0629014 -0.172688 0)
(-0.0882763 -0.249971 0)
(-0.113609 -0.335916 0)
(-0.133044 -0.422611 0)
(-0.1373 -0.489672 0)
(-0.115038 -0.498284 0)
(-0.0627385 -0.396146 0)
(-0.0134222 -0.158932 0)
(-0.0014484 0.0431338 0)
(-0.00751272 0.106451 0)
(-0.0165593 0.147871 0)
(-0.0241115 0.172603 0)
(-0.0289029 0.185971 0)
(-0.0306514 0.192214 0)
(-0.0294723 0.194322 0)
(-0.0256729 0.194165 0)
(-0.0196246 0.192725 0)
(-0.011721 0.190321 0)
(-0.0023848 0.186802 0)
(0.00790866 0.181706 0)
(0.0186141 0.174394 0)
(0.0291102 0.164163 0)
(0.0386897 0.150339 0)
(0.0465862 0.132382 0)
(0.0520279 0.10988 0)
(0.0542645 0.082522 0)
(0.052573 0.0499859 0)
(0.0463207 0.0118221 0)
(0.0349855 -0.0327989 0)
(0.0181528 -0.0852752 0)
(-0.00437198 -0.147525 0)
(-0.0322056 -0.221583 0)
(-0.0636056 -0.308183 0)
(-0.0940851 -0.403142 0)
(-0.114501 -0.489954 0)
(-0.110219 -0.528773 0)
(-0.0704989 -0.451108 0)
(-0.0183554 -0.197156 0)
(-0.00265584 0.048237 0)
(-0.0116128 0.115826 0)
(-0.0232706 0.156755 0)
(-0.0314636 0.178634 0)
(-0.0350497 0.188413 0)
(-0.0342221 0.191134 0)
(-0.0295307 0.190095 0)
(-0.0216154 0.187248 0)
(-0.01108 0.183581 0)
(0.00152502 0.179416 0)
(0.0156679 0.174631 0)
(0.0307944 0.168817 0)
(0.046297 0.161411 0)
(0.0614992 0.151789 0)
(0.0756543 0.139347 0)
(0.0879654 0.123571 0)
(0.0976232 0.104047 0)
(0.103842 0.0804233 0)
(0.105875 0.0523226 0)
(0.103041 0.0192149 0)
(0.0947018 -0.0198023 0)
(0.0802392 -0.0661857 0)
(0.0590549 -0.122062 0)
(0.0307216 -0.190133 0)
(-0.00445428 -0.272981 0)
(-0.0440126 -0.370377 0)
(-0.0803695 -0.471912 0)
(-0.0969487 -0.541624 0)
(-0.0763411 -0.499241 0)
(-0.024691 -0.241793 0)
(-0.00512414 0.0567285 0)
(-0.0189068 0.129041 0)
(-0.0340963 0.167492 0)
(-0.0426556 0.184252 0)
(-0.0441033 0.188653 0)
(-0.0395552 0.186634 0)
(-0.0302398 0.181692 0)
(-0.0172453 0.17572 0)
(-0.0014522 0.169601 0)
(0.0164259 0.163585 0)
(0.0357662 0.157527 0)
(0.055969 0.151048 0)
(0.0764091 0.143637 0)
(0.0964091 0.134735 0)
(0.115234 0.123798 0)
(0.132104 0.110338 0)
(0.146222 0.0939376 0)
(0.156799 0.0742142 0)
(0.163073 0.0507493 0)
(0.164308 0.0229735 0)
(0.159747 -0.0100073 0)
(0.148585 -0.0495898 0)
(0.129876 -0.0978214 0)
(0.102536 -0.157577 0)
(0.0656145 -0.23253 0)
(0.0191985 -0.325896 0)
(-0.0322401 -0.434551 0)
(-0.0718634 -0.531889 0)
(-0.0774282 -0.533932 0)
(-0.0317284 -0.292483 0)
(-0.0100606 0.0716135 0)
(-0.0313787 0.147876 0)
(-0.04993 0.180033 0)
(-0.0568514 0.18833 0)
(-0.0535307 0.185145 0)
(-0.0426804 0.177146 0)
(-0.0264913 0.167711 0)
(-0.00658922 0.158423 0)
(0.0158674 0.149887 0)
(0.0400424 0.14217 0)
(0.0652814 0.135043 0)
(0.0910058 0.128107 0)
(0.116643 0.120881 0)
(0.141583 0.112854 0)
(0.165168 0.103534 0)
(0.186689 0.0924661 0)
(0.205403 0.0792416 0)
(0.22055 0.0634723 0)
(0.231357 0.0447331 0)
(0.237023 0.0224744 0)
(0.236644 -0.00411463 0)
(0.229232 -0.0362643 0)
(0.213525 -0.075762 0)
(0.187915 -0.125251 0)
(0.15049 -0.188658 0)
(0.0993872 -0.271555 0)
(0.0346931 -0.378014 0)
(-0.0292136 -0.494546 0)
(-0.0690105 -0.546556 0)
(-0.0373795 -0.34778 0)
(-0.0195144 0.09815 0)
(-0.0512066 0.173086 0)
(-0.0684527 0.192045 0)
(-0.0670218 0.187267 0)
(-0.0525865 0.174164 0)
(-0.0301911 0.15937 0)
(-0.00310299 0.145463 0)
(0.0266291 0.133284 0)
(0.0577476 0.122919 0)
(0.0894745 0.114123 0)
(0.121285 0.106506 0)
(0.152761 0.0996123 0)
(0.183497 0.0929695 0)
(0.213051 0.0861113 0)
(0.240917 0.0785975 0)
(0.26652 0.0700251 0)
(0.289218 0.0600255 0)
(0.308312 0.0482436 0)
(0.323043 0.0342944 0)
(0.33256 0.0177044 0)
(0.335819 -0.00218725 0)
(0.331671 -0.0262775 0)
(0.318565 -0.0560153 0)
(0.294503 -0.0935763 0)
(0.256853 -0.14243 0)
(0.202348 -0.20889 0)
(0.12775 -0.302726 0)
(0.040891 -0.42647 0)
(-0.0434297 -0.527787 0)
(-0.0370221 -0.403217 0)
(-0.0350368 0.142405 0)
(-0.0747782 0.197654 0)
(-0.0709367 0.192595 0)
(-0.0447027 0.170431 0)
(-0.00756814 0.146988 0)
(0.0338926 0.126717 0)
(0.0763295 0.110236 0)
(0.118148 0.0971008 0)
(0.158653 0.0866614 0)
(0.197592 0.0782912 0)
(0.234898 0.0714288 0)
(0.270539 0.0655744 0)
(0.304437 0.0602812 0)
(0.336431 0.055149 0)
(0.366248 0.0498212 0)
(0.393509 0.0439811 0)
(0.417721 0.0373452 0)
(0.438285 0.0296465 0)
(0.454499 0.020605 0)
(0.465515 0.00988164 0)
(0.470318 -0.00301605 0)
(0.467653 -0.0185798 0)
(0.455728 -0.0377815 0)
(0.432382 -0.0621702 0)
(0.3945 -0.094315 0)
(0.338231 -0.139657 0)
(0.257151 -0.209789 0)
(0.152965 -0.32425 0)
(0.015418 -0.465551 0)
(-0.0171249 -0.441641 0)
(-0.0378432 0.235304 0)
(-0.049028 0.202284 0)
(0.0253039 0.151791 0)
(0.0969368 0.116481 0)
(0.164216 0.090581 0)
(0.22529 0.071781 0)
(0.279835 0.0583612 0)
(0.328503 0.0487118 0)
(0.372209 0.0416279 0)
(0.411812 0.0362995 0)
(0.448008 0.0321692 0)
(0.481308 0.0288259 0)
(0.512038 0.0259485 0)
(0.540345 0.0232782 0)
(0.566211 0.0206011 0)
(0.589461 0.0177381 0)
(0.609785 0.0145363 0)
(0.626732 0.0108569 0)
(0.639738 0.00657207 0)
(0.647992 0.00152319 0)
(0.650752 -0.00438938 0)
(0.646884 -0.0115936 0)
(0.634687 -0.0204999 0)
(0.612206 -0.0318334 0)
(0.576126 -0.046926 0)
(0.522816 -0.0692334 0)
(0.442393 -0.107088 0)
(0.33327 -0.187661 0)
(0.14322 -0.335607 0)
(0.0605812 -0.412634 0)
(0.231193 0.158575 0)
(0.29081 0.116732 0)
(0.43947 0.0755276 0)
(0.537603 0.050268 0)
(0.604238 0.0340925 0)
(0.653782 0.0235298 0)
(0.69239 0.016731 0)
(0.723351 0.0123682 0)
(0.748916 0.00952342 0)
(0.770633 0.00761905 0)
(0.789516 0.00629911 0)
(0.806213 0.00533612 0)
(0.821117 0.00457778 0)
(0.834435 0.00391809 0)
(0.846225 0.00328075 0)
(0.856429 0.00260877 0)
(0.864887 0.00185897 0)
(0.871361 0.00099256 0)
(0.875541 -1.25579e-05 0)
(0.877061 -0.0012078 0)
(0.875411 -0.00247872 0)
(0.869879 -0.00407136 0)
(0.859699 -0.00606977 0)
(0.843899 -0.00861669 0)
(0.820105 -0.0119893 0)
(0.786578 -0.0172525 0)
(0.731576 -0.0266117 0)
(0.655165 -0.0486485 0)
(0.453858 -0.109831 0)
(0.313126 -0.177391 0)
)
;

boundaryField
{
    movingWall
    {
        type            fixedValue;
        value           uniform (1 0 0);
    }
    fixedWalls
    {
        type            noSlip;
    }
    frontAndBack
    {
        type            empty;
    }
}


// ************************************************************************* //
