/*--------------------------------*- C++ -*----------------------------------*\
  =========                 |
  \\      /  F ield         | OpenFOAM: The Open Source CFD Toolbox
   \\    /   O peration     | Website:  https://openfoam.org
    \\  /    A nd           | Version:  7
     \\/     M anipulation  |
\*---------------------------------------------------------------------------*/
FoamFile
{
    version     2.0;
    format      ascii;
    class       volScalarField;
    location    "0.9";
    object      p;
}
// * * * * * * * * * * * * * * * * * * * * * * * * * * * * * * * * * * * * * //

dimensions      [0 2 -2 0 0 0 0];

internalField   nonuniform List<scalar> 
900
(
1.43384e-08
-0.000143785
-0.000202486
-0.00017431
-4.78423e-05
0.000177434
0.000496106
0.000902071
0.00138911
0.00195073
0.00257963
0.00326756
0.00400551
0.00478352
0.00559075
0.00641557
0.00724563
0.00806802
0.00886935
0.00963608
0.0103547
0.0110118
0.0115945
0.0120906
0.0124886
0.0127777
0.0129492
0.0130029
0.0129523
0.0128014
0.000142733
-2.54076e-06
-3.67576e-05
1.06242e-05
0.000142913
0.000364209
0.000672861
0.00106489
0.00153536
0.00207838
0.00268705
0.00335341
0.00406871
0.00482327
0.00560646
0.0064069
0.00721254
0.00801072
0.00878833
0.00953212
0.0102289
0.0108656
0.0114299
0.0119103
0.0122966
0.0125805
0.0127572
0.0128305
0.0128053
0.0126532
0.000203382
2.77308e-05
-8.61225e-06
4.14243e-05
0.000174366
0.000394228
0.000699858
0.00108778
0.00155347
0.0020914
0.00269488
0.00335613
0.00406653
0.00481653
0.00559559
0.00639238
0.00719488
0.00799043
0.0087659
0.009508
0.0102035
0.0108393
0.0114029
0.011883
0.0122696
0.0125544
0.0127332
0.0128095
0.0127814
0.0125967
0.000178142
-2.75914e-05
-7.18347e-05
-2.36283e-05
0.000108948
0.000329136
0.000635496
0.00102458
0.001492
0.00203244
0.00263934
0.003305
0.00402091
0.00477752
0.00556429
0.00636983
0.00718201
0.00798802
0.00877449
0.00952788
0.0102347
0.0108813
0.011455
0.0119441
0.0123382
0.0126286
0.0128105
0.0128862
0.0128497
0.0126327
5.1582e-05
-0.000176175
-0.000227708
-0.000181753
-4.88106e-05
0.000173876
0.000484549
0.000879658
0.00135484
0.00190485
0.00252319
0.00320216
0.00393328
0.00470693
0.00551248
0.00633835
0.0071722
0.00800089
0.00881066
0.00958747
0.0103172
0.0109858
0.0115796
0.0120864
0.0124949
0.0127958
0.0129832
0.0130592
0.0130154
0.0127742
-0.000182356
-0.000427854
-0.000485823
-0.000441462
-0.000306566
-7.85828e-05
0.000240477
0.00064692
0.00113633
0.00170344
0.00234176
0.00304354
0.00380018
0.00460197
0.00543806
0.00629659
0.00716488
0.00802931
0.00887551
0.00968876
0.0104542
0.0111565
0.0117814
0.0123152
0.0127459
0.013063
0.0132597
0.0133379
0.013288
0.0130263
-0.000525741
-0.000788321
-0.000852262
-0.000808434
-0.000669569
-0.000433151
-0.000101387
0.00032188
0.000832133
0.00142406
0.00209107
0.00282531
0.00361804
0.00445935
0.00533808
0.00624204
0.00715804
0.00807185
0.00896834
0.00983185
0.0106464
0.0113954
0.0120631
0.0126346
0.0130961
0.013436
0.0136464
0.013729
0.0136737
0.0133912
-0.000981854
-0.00126314
-0.001333
-0.00128858
-0.00114356
-0.000895403
-0.000546481
-0.000100796
0.000437013
0.00106153
0.00176606
0.00254257
0.00338213
0.00427456
0.00520839
0.00617096
0.00714852
0.00812607
0.00908754
0.0100161
0.0108944
0.0117042
0.012428
0.0130488
0.0135511
0.0139213
0.0141505
0.0142402
0.0141799
0.0138734
-0.00155633
-0.00185934
-0.0019355
-0.00188942
-0.00173603
-0.00147274
-0.00110208
-0.000628266
-5.60658e-05
0.000608963
0.00135998
0.00218877
0.00308615
0.00404167
0.00504347
0.00607838
0.00713205
0.00818858
0.00923081
0.0102406
0.0111987
0.0120851
0.0128798
0.0135635
0.014118
0.0145276
0.0147815
0.0148812
0.0148157
0.0144807
-0.00225707
-0.0025858
-0.00266894
-0.00262027
-0.00245627
-0.00217434
-0.00177726
-0.00126944
-0.000655857
5.7777e-05
0.000864453
0.00175575
0.00272224
0.00375316
0.00483629
0.00595792
0.00710305
0.00825481
0.00939488
0.0105035
0.0115595
0.0125403
0.0134231
0.0141854
0.0148058
0.0152654
0.0155512
0.0156644
0.0155933
0.0152235
-0.00309423
-0.00345342
-0.00354452
-0.00349239
-0.0033155
-0.00301131
-0.00258292
-0.00203505
-0.00137289
-0.000602345
0.000269388
0.00123367
0.00228083
0.00339985
0.00457815
0.00580149
0.00705426
0.00831865
0.00957509
0.0108021
0.0119762
0.0130718
0.0140627
0.0149224
0.015625
0.0161475
0.016474
0.0166049
0.0165276
0.0161157
-0.0040803
-0.00447549
-0.00457576
-0.0045193
-0.00432711
-0.00399684
-0.00353205
-0.00293781
-0.00221961
-0.00138359
-0.000437146
0.000610864
0.00175053
0.00297064
0.00425831
0.00559898
0.00697638
0.00837195
0.00976487
0.0111319
0.0124468
0.0136809
0.0148034
0.0157828
0.0165877
0.0171893
0.0175674
0.0177212
0.0176371
0.0171738
-0.00523029
-0.005668
-0.00577887
-0.00571715
-0.00550703
-0.00514655
-0.00463988
-0.00399259
-0.00321053
-0.00230014
-0.00126904
-0.000126316
0.00111794
0.00245233
0.00386389
0.00533798
0.00685765
0.00840403
0.00995512
0.0114858
0.0129674
0.0143671
0.0156492
0.0167758
0.0177078
0.018409
0.0188528
0.0190364
0.0189445
0.0184183
-0.00656212
-0.00705013
-0.00717325
-0.00710513
-0.00687406
-0.00647873
-0.00592416
-0.00521661
-0.00436238
-0.0033683
-0.00224227
-0.000993571
0.000367528
0.00182958
0.00337967
0.00500323
0.00668351
0.00840114
0.0101334
0.0118538
0.0135307
0.0151276
0.0166027
0.0179099
0.0190006
0.0198279
0.0203561
0.0205786
0.0204778
0.0198733
-0.00809713
-0.00864489
-0.00878212
-0.00870609
-0.00845038
-0.00801478
-0.00740551
-0.00662971
-0.0056943
-0.0046066
-0.00337489
-0.00200869
-0.000518369
0.00108472
0.00278794
0.00457714
0.00643604
0.00834559
0.010283
0.0122207
0.0141252
0.0159554
0.0176631
0.0191925
0.0204821
0.0214705
0.0221083
0.0223825
0.0222716
0.0215683
-0.00986088
-0.0104802
-0.0106335
-0.0105474
-0.0102622
-0.00977973
-0.00910773
-0.00825453
-0.00722789
-0.00603582
-0.00468706
-0.00319147
-0.0015595
0.00019772
0.00206812
0.0040384
0.00609333
0.00821505
0.0103816
0.0125658
0.0147324
0.0168371
0.0188246
0.0206275
0.0221682
0.0233646
0.0241473
0.0244917
0.0243695
0.0235382
-0.0118843
-0.0125902
-0.0127616
-0.0126618
-0.0123408
-0.0118029
-0.0110582
-0.0101168
-0.00898739
-0.00767892
-0.00620084
-0.00456346
-0.00277738
-0.000853395
0.00119726
0.00336267
0.00562942
0.00798194
0.0104006
0.0128598
0.0153251
0.0177497
0.0200721
0.022212
0.0240715
0.0255404
0.0265187
0.0269614
0.0268275
0.025825
-0.0142056
-0.0150178
-0.0152087
-0.0150895
-0.0147232
-0.0141185
-0.0132887
-0.0122456
-0.0109997
-0.00956091
-0.00793985
-0.00614748
-0.00419469
-0.00209193
0.000150636
0.00252298
0.00501447
0.00761312
0.0103034
0.013064
0.0158635
0.0186562
0.0213762
0.0239306
0.0261971
0.0280277
0.0292767
0.0298629
0.0297194
0.0284793
-0.0168728
-0.0178176
-0.0180281
-0.0178797
-0.0174545
-0.0167672
-0.0158355
-0.0146738
-0.0132942
-0.0117085
-0.00992862
-0.00796673
-0.00583424
-0.00354139
-0.00109714
0.00149084
0.00421559
0.00707017
0.0100455
0.0131274
0.0162921
0.0194997
0.0226848
0.0257453
0.0285327
0.0308501
0.0324836
0.0332896
0.0331477
0.0315638
-0.0199491
-0.0210617
-0.0212885
-0.0210942
-0.0205889
-0.0197968
-0.0187406
-0.0174378
-0.0159027
-0.0141493
-0.0121917
-0.0100435
-0.00771743
-0.00522373
-0.00257022
0.000238048
0.00319851
0.00631071
0.00957424
0.0129861
0.0165355
0.0201958
0.0239117
0.0275806
0.0310319
0.0340103
0.0362051
0.0373658
0.0372616
0.035163
-0.0235205
-0.0248483
-0.0250802
-0.0248112
-0.0241934
-0.0232642
-0.0220524
-0.0205784
-0.0188592
-0.0169114
-0.0147521
-0.0123976
-0.00986211
-0.00715679
-0.00428865
-0.00126017
0.00193098
0.00529144
0.0088319
0.0125639
0.016496
0.0206251
0.0249206
0.0292983
0.033582
0.0374596
0.0404927
0.0422549
0.0422908
0.0394149
-0.027712
-0.0293163
-0.029525
-0.0291305
-0.0283499
-0.027237
-0.0258262
-0.0241402
-0.0221983
-0.0200211
-0.0176293
-0.015043
-0.0122792
-0.00935059
-0.0062641
-0.00302026
0.000387709
0.00397405
0.00776127
0.0117775
0.0160559
0.0206283
0.025509
0.0306635
0.0359506
0.0410335
0.0453347
0.0481584
0.0485999
0.0446022
-0.0327201
-0.0346686
-0.0347883
-0.0341801
-0.0331585
-0.0317947
-0.0301244
-0.0281701
-0.0259536
-0.0234997
-0.0208347
-0.0179836
-0.0149675
-0.0118013
-0.00849297
-0.00504217
-0.00143893
0.0023377
0.00631951
0.0105509
0.0150915
0.0200152
0.0254016
0.0313096
0.0377081
0.0443336
0.0505384
0.0552707
0.056758
0.0513887
-0.0388822
-0.0412117
-0.0410958
-0.0401201
-0.0387374
-0.0370262
-0.0350116
-0.0327112
-0.0301484
-0.0273541
-0.0243615
-0.0212023
-0.0179023
-0.0144798
-0.0109443
-0.00729588
-0.00352299
0.000398687
0.00450458
0.00884961
0.0135143
0.0186108
0.0242918
0.0307493
0.0381668
0.0465611
0.0554836
0.0635833
0.0675624
0.0613375
-0.0468307
-0.0494144
-0.0487434
-0.0471351
-0.0452082
-0.0430103
-0.0405309
-0.0377747
-0.0347669
-0.0315462
-0.0281551
-0.0246324
-0.0210091
-0.0173065
-0.0135353
-0.00969623
-0.00577953
-0.00176262
0.00239526
0.00673848
0.0113556
0.0163753
0.0220014
0.0285577
0.0365277
0.0465105
0.0588591
0.0724622
0.0819066
0.0777312
-0.0578558
-0.0599842
-0.0580544
-0.0553616
-0.0526097
-0.0497181
-0.0465988
-0.0432343
-0.0396518
-0.0358998
-0.0320295
-0.0280855
-0.024101
-0.0200972
-0.0160841
-0.0120619
-0.00802231
-0.00394723
0.000192283
0.00444824
0.00886917
0.0135755
0.0187744
0.0248669
0.0326236
0.0434451
0.0593234
0.0807604
0.100738
0.105866
-0.0749584
-0.0739264
-0.069157
-0.0645987
-0.0605761
-0.0566795
-0.0526845
-0.0485373
-0.0442591
-0.0398988
-0.0355076
-0.0311263
-0.0267826
-0.0224911
-0.0182563
-0.0140743
-0.00993577
-0.00582709
-0.00172771
0.00239584
0.00657652
0.0108967
0.0155388
0.0209321
0.0280694
0.0391359
0.0582763
0.0895192
0.126233
0.152891
-0.10554
-0.0919195
-0.0814941
-0.0736865
-0.0676691
-0.0623962
-0.0573532
-0.0523824
-0.0474497
-0.0425693
-0.0377667
-0.0330631
-0.02847
-0.0239897
-0.0196174
-0.0153433
-0.0111546
-0.00703633
-0.00297137
0.00106079
0.00510178
0.00924437
0.013707
0.019055
0.0266294
0.0394293
0.0631575
0.106653
0.165005
0.236751
-0.160108
-0.108618
-0.0917324
-0.0786525
-0.0699949
-0.0635743
-0.058009
-0.0527755
-0.0477089
-0.042766
-0.0379416
-0.0332392
-0.0286608
-0.0242041
-0.0198623
-0.0156253
-0.0114808
-0.0074135
-0.00340238
0.000588114
0.0046294
0.0088837
0.0137401
0.0200981
0.0299537
0.0476596
0.0809735
0.143119
0.236762
0.404217
-0.330946
-0.11809
-0.0738417
-0.0604728
-0.0540207
-0.050408
-0.04774
-0.0449734
-0.0418083
-0.0382851
-0.0345158
-0.0306
-0.0266131
-0.0226075
-0.0186168
-0.0146593
-0.0107422
-0.00686248
-0.00300409
0.000871045
0.00484565
0.00913462
0.0142702
0.0214393
0.0331514
0.0551864
0.0983006
0.187847
0.349069
0.690951
)
;

boundaryField
{
    movingWall
    {
        type            zeroGradient;
    }
    fixedWalls
    {
        type            zeroGradient;
    }
    frontAndBack
    {
        type            empty;
    }
}


// ************************************************************************* //
