/*--------------------------------*- C++ -*----------------------------------*\
  =========                 |
  \\      /  F ield         | OpenFOAM: The Open Source CFD Toolbox
   \\    /   O peration     | Website:  https://openfoam.org
    \\  /    A nd           | Version:  7
     \\/     M anipulation  |
\*---------------------------------------------------------------------------*/
FoamFile
{
    version     2.0;
    format      ascii;
    class       surfaceScalarField;
    location    "0.9";
    object      phi;
}
// * * * * * * * * * * * * * * * * * * * * * * * * * * * * * * * * * * * * * //

dimensions      [0 3 -1 0 0 0 0];

internalField   nonuniform List<scalar> 
1740
(
-4.02076e-07
4.02062e-07
-2.69723e-06
2.29515e-06
-6.19785e-06
3.50063e-06
-1.01688e-05
3.97099e-06
-1.41984e-05
4.02955e-06
-1.80889e-05
3.89049e-06
-2.17494e-05
3.66051e-06
-2.51281e-05
3.37871e-06
-2.81857e-05
3.05762e-06
-3.0886e-05
2.70024e-06
-3.31945e-05
2.30848e-06
-3.5081e-05
1.88654e-06
-3.65185e-05
1.43755e-06
-3.74834e-05
9.64814e-07
-3.79562e-05
4.72804e-07
-3.79225e-05
-3.36195e-08
-3.73732e-05
-5.49334e-07
-3.6305e-05
-1.06821e-06
-3.47217e-05
-1.5833e-06
-3.26336e-05
-2.08811e-06
-3.00579e-05
-2.57565e-06
-2.70214e-05
-3.03654e-06
-2.35578e-05
-3.46356e-06
-1.97107e-05
-3.84716e-06
-1.55449e-05
-4.16582e-06
-1.11762e-05
-4.36867e-06
-6.84304e-06
-4.33314e-06
-3.01112e-06
-3.83192e-06
-4.80642e-07
-2.53048e-06
-4.80642e-07
-2.30165e-06
2.70371e-06
-8.10954e-06
8.10305e-06
-1.59412e-05
1.13323e-05
-2.46304e-05
1.26602e-05
-3.345e-05
1.28491e-05
-4.19984e-05
1.24389e-05
-5.0059e-05
1.17211e-05
-5.74963e-05
1.0816e-05
-6.42108e-05
9.77215e-06
-7.01175e-05
8.60695e-06
-7.51417e-05
7.33262e-06
-7.92181e-05
5.96296e-06
-8.22905e-05
4.50995e-06
-8.43119e-05
2.98624e-06
-8.52456e-05
1.40645e-06
-8.50657e-05
-2.13511e-07
-8.37577e-05
-1.8573e-06
-8.13204e-05
-3.50556e-06
-7.77663e-05
-5.13738e-06
-7.31229e-05
-6.73147e-06
-6.74336e-05
-8.26493e-06
-6.07599e-05
-9.71028e-06
-5.31832e-05
-1.10402e-05
-4.48113e-05
-1.22191e-05
-3.58028e-05
-1.31743e-05
-2.64166e-05
-1.37549e-05
-1.71191e-05
-1.36306e-05
-8.72209e-06
-1.22289e-05
-2.48839e-06
-8.76418e-06
-2.96904e-06
-3.59223e-06
6.29595e-06
-1.162e-05
1.61308e-05
-2.20314e-05
2.17436e-05
-3.34088e-05
2.40377e-05
-4.48941e-05
2.43344e-05
-5.60099e-05
2.35547e-05
-6.64839e-05
2.21951e-05
-7.61407e-05
2.04727e-05
-8.48468e-05
1.84783e-05
-9.24918e-05
1.62519e-05
-9.89795e-05
1.38204e-05
-0.000104227
1.12101e-05
-0.000108162
8.44575e-06
-0.000110729
5.55299e-06
-0.000111882
2.55972e-06
-0.000111592
-5.04276e-07
-0.000109842
-3.6074e-06
-0.000106633
-6.71425e-06
-0.000101984
-9.7864e-06
-9.5932e-05
-1.27833e-05
-8.85359e-05
-1.56611e-05
-7.98763e-05
-1.83699e-05
-7.00604e-05
-2.08561e-05
-5.92318e-05
-2.30477e-05
-4.75931e-05
-2.4813e-05
-3.54642e-05
-2.58839e-05
-2.33933e-05
-2.57015e-05
-1.23325e-05
-2.32897e-05
-3.80995e-06
-1.72867e-05
-6.77899e-06
-4.25594e-06
1.05519e-05
-1.35764e-05
2.54512e-05
-2.54879e-05
3.36552e-05
-3.83874e-05
3.69372e-05
-5.13461e-05
3.72932e-05
-6.38597e-05
3.60682e-05
-7.56375e-05
3.39729e-05
-8.64883e-05
3.13236e-05
-9.62641e-05
2.82541e-05
-0.000104842
2.48294e-05
-0.000112115
2.10936e-05
-0.000117992
1.70869e-05
-0.000122395
1.28486e-05
-0.00012526
8.41886e-06
-0.000126541
3.84024e-06
-0.000126203
-8.42294e-07
-0.00012423
-5.58076e-06
-0.000120622
-1.03221e-05
-0.000115399
-1.50091e-05
-0.000108602
-1.95799e-05
-0.000100296
-2.3967e-05
-9.05705e-05
-2.80959e-05
-7.95436e-05
-3.1883e-05
-6.73755e-05
-3.52158e-05
-5.4287e-05
-3.79015e-05
-4.06212e-05
-3.95497e-05
-2.69601e-05
-3.93625e-05
-1.43371e-05
-3.59127e-05
-4.48035e-06
-2.71435e-05
-1.12593e-05
-4.61055e-06
1.51624e-05
-1.47317e-05
3.55724e-05
-2.76104e-05
4.65339e-05
-4.14957e-05
5.08225e-05
-5.54022e-05
5.11997e-05
-6.88071e-05
4.94731e-05
-8.14114e-05
4.65772e-05
-9.30173e-05
4.29295e-05
-0.00010347
3.87072e-05
-0.000112642
3.40007e-05
-0.00012042
2.8872e-05
-0.000126709
2.33762e-05
-0.000131428
1.75677e-05
-0.000134511
1.15016e-05
-0.000135906
5.23515e-06
-0.000135577
-1.17125e-06
-0.000133504
-7.65357e-06
-0.000129686
-1.41408e-05
-0.000124139
-2.05563e-05
-0.000116902
-2.68162e-05
-0.000108041
-3.28282e-05
-9.76458e-05
-3.84912e-05
-8.58399e-05
-4.36889e-05
-7.27902e-05
-4.82655e-05
-5.87277e-05
-5.1964e-05
-4.40119e-05
-5.42654e-05
-2.92567e-05
-5.41178e-05
-1.55706e-05
-4.95988e-05
-4.85009e-06
-3.78641e-05
-1.61094e-05
-4.8701e-06
2.00325e-05
-1.56259e-05
4.63282e-05
-2.93069e-05
6.02148e-05
-4.40317e-05
6.55473e-05
-5.87546e-05
6.59226e-05
-7.2929e-05
6.36475e-05
-8.62461e-05
5.98943e-05
-9.85032e-05
5.51866e-05
-0.000109542
4.97461e-05
-0.00011923
4.3689e-05
-0.000127455
3.70961e-05
-0.000134116
3.0038e-05
-0.000139133
2.25839e-05
-0.000142434
1.48034e-05
-0.000143967
6.76787e-06
-0.000143691
-1.44761e-06
-0.00014158
-9.76395e-06
-0.000137628
-1.80927e-05
-0.000131847
-2.63382e-05
-0.000124268
-3.43943e-05
-0.000114953
-4.21432e-05
-0.00010399
-4.94549e-05
-9.15008e-05
-5.61776e-05
-7.76577e-05
-6.21086e-05
-6.27017e-05
-6.692e-05
-4.70139e-05
-6.99532e-05
-3.12516e-05
-6.98801e-05
-1.66106e-05
-6.42398e-05
-5.14763e-06
-4.9327e-05
-2.12571e-05
-5.1408e-06
2.51733e-05
-1.65488e-05
5.77362e-05
-3.10693e-05
7.47354e-05
-4.66886e-05
8.11666e-05
-6.22915e-05
8.15255e-05
-7.72991e-05
7.86551e-05
-9.13888e-05
7.39841e-05
-0.000104351
6.81489e-05
-0.000116025
6.14196e-05
-0.000126275
5.39393e-05
-0.000134987
4.58083e-05
-0.000142062
3.71129e-05
-0.000147415
2.79369e-05
-0.000150975
1.83633e-05
-0.000152684
8.47664e-06
-0.000152496
-1.6351e-06
-0.000150381
-1.18796e-05
-0.000146321
-2.2152e-05
-0.000140321
-3.23389e-05
-0.000132403
-4.23121e-05
-0.000122619
-5.19274e-05
-0.00011105
-6.10237e-05
-9.78178e-05
-6.94098e-05
-8.3096e-05
-7.68304e-05
-6.7139e-05
-8.2877e-05
-5.0357e-05
-8.67353e-05
-3.34649e-05
-8.67721e-05
-1.77637e-05
-7.99411e-05
-5.48443e-06
-6.16062e-05
-2.67415e-05
-5.46779e-06
3.06411e-05
-1.7635e-05
6.99034e-05
-3.31308e-05
9.02312e-05
-4.97937e-05
9.78295e-05
-6.64268e-05
9.81586e-05
-8.24108e-05
9.46392e-05
-9.74047e-05
8.8978e-05
-0.000111191
8.1935e-05
-0.000123604
7.38331e-05
-0.00013451
6.48446e-05
-0.000143792
5.50903e-05
-0.000151351
4.46727e-05
-0.000157104
3.36895e-05
-0.000160976
2.22358e-05
-0.000162907
1.04071e-05
-0.000162844
-1.6977e-06
-0.000160748
-1.3976e-05
-0.000156591
-2.63089e-05
-0.000150363
-3.85667e-05
-0.000142075
-5.06001e-05
-0.000131764
-6.22383e-05
-0.000119501
-7.32864e-05
-0.000105402
-8.35088e-05
-8.96431e-05
-9.25898e-05
-7.24935e-05
-0.000100027
-5.44004e-05
-0.000104828
-3.61516e-05
-0.000105021
-1.91752e-05
-9.69174e-05
-5.90768e-06
-7.48738e-05
-3.26492e-05
-5.87011e-06
3.65112e-05
-1.89484e-05
8.29816e-05
-3.56054e-05
0.000106888
-5.35069e-05
0.000115731
-7.13599e-05
0.000116012
-8.84972e-05
0.000111776
-0.000104556
0.000105037
-0.000119308
9.66875e-05
-0.000132587
8.71118e-05
-0.000144256
7.65139e-05
-0.000154203
6.50369e-05
-0.00016233
5.27997e-05
-0.000168553
3.99129e-05
-0.000172799
2.64821e-05
-0.000175003
1.26109e-05
-0.000175107
-1.59404e-06
-0.000173058
-1.60247e-05
-0.000168817
-3.05505e-05
-0.000162355
-4.50288e-05
-0.000153663
-5.92914e-05
-0.000142761
-7.31409e-05
-0.000129701
-8.63458e-05
-0.00011459
-9.86203e-05
-9.76017e-05
-0.000109578
-7.90245e-05
-0.000118604
-5.93495e-05
-0.000124503
-3.94535e-05
-0.000124917
-2.09212e-05
-0.00011545
-6.43862e-06
-8.93564e-05
-3.90878e-05
-6.3591e-06
4.28703e-05
-2.05287e-05
9.71513e-05
-3.85656e-05
0.000124925
-5.79302e-05
0.000135096
-7.72167e-05
0.000135298
-9.5702e-05
0.000130262
-0.000112998
0.000122333
-0.000128869
0.000112558
-0.000143143
0.000101386
-0.000155689
8.90597e-05
-0.000166397
7.5745e-05
-0.000175176
6.1578e-05
-0.000181944
4.66813e-05
-0.00018663
3.1168e-05
-0.000189165
1.51464e-05
-0.000189486
-1.27333e-06
-0.000187526
-1.79851e-05
-0.000183226
-3.48499e-05
-0.000176537
-5.17179e-05
-0.000167423
-6.84054e-05
-0.000155874
-8.46897e-05
-0.000141919
-0.000100301
-0.000125644
-0.000114895
-0.000107219
-0.000128003
-8.6948e-05
-0.000138875
-6.53752e-05
-0.000146076
-4.34869e-05
-0.000146805
-2.30617e-05
-0.000135875
-7.09303e-06
-0.000105325
-4.61808e-05
-6.94557e-06
4.98159e-05
-2.24129e-05
0.000112619
-4.20784e-05
0.00014459
-6.31572e-05
0.000156174
-8.41112e-05
0.000156252
-0.000104153
0.000150304
-0.000122869
0.000141049
-0.000140012
0.000129701
-0.000155413
0.000116787
-0.000168945
0.000102592
-0.000180508
8.73081e-05
-0.00019002
7.10895e-05
-0.000197407
5.40684e-05
-0.000202601
3.63623e-05
-0.000205534
1.8079e-05
-0.000206135
-6.71833e-07
-0.00020432
-1.98e-05
-0.000200011
-3.91594e-05
-0.000193126
-5.86024e-05
-0.000183596
-7.79364e-05
-0.000171369
-9.69166e-05
-0.000156436
-0.000115234
-0.000138851
-0.00013248
-0.000118769
-0.000148085
-9.65085e-05
-0.000161136
-7.26739e-05
-0.000169911
-4.83865e-05
-0.000171093
-2.56667e-05
-0.000158595
-7.89032e-06
-0.000123101
-5.40711e-05
-7.64275e-06
5.74587e-05
-2.46438e-05
0.00012962
-4.62204e-05
0.000166167
-6.9295e-05
0.000179249
-9.21731e-05
0.00017913
-0.000113995
0.000172126
-0.000134318
0.000161371
-0.000152887
0.00014827
-0.00016954
0.00013344
-0.000184161
0.000117213
-0.000196665
9.98121e-05
-0.000206984
8.14093e-05
-0.000215061
6.21449e-05
-0.000220834
4.21356e-05
-0.000224236
2.14804e-05
-0.000225198
2.9106e-07
-0.000223607
-2.13916e-05
-0.000219364
-4.34019e-05
-0.000212351
-6.56161e-05
-0.000202446
-8.7841e-05
-0.000189545
-0.000109817
-0.000173581
-0.000131198
-0.000154557
-0.000151504
-0.000132595
-0.000170047
-0.000108019
-0.000185712
-8.15017e-05
-0.000196428
-5.4331e-05
-0.000198263
-2.88314e-05
-0.000184094
-8.85781e-06
-0.000143075
-6.29289e-05
-8.46826e-06
6.59269e-05
-2.72769e-05
0.000148428
-5.10896e-05
0.00018998
-7.64777e-05
0.000204637
-0.000101562
0.000204215
-0.000125402
0.000195966
-0.000147522
0.000183491
-0.000167668
0.000168415
-0.000185687
0.000151459
-0.000201485
0.000133011
-0.000215001
0.000113328
-0.000226192
9.26007e-05
-0.000235021
7.09739e-05
-0.000241444
4.85582e-05
-0.000245401
2.54375e-05
-0.000246802
1.69289e-06
-0.000245547
-2.26468e-05
-0.000241488
-4.74614e-05
-0.000234458
-7.26457e-05
-0.000224276
-9.8023e-05
-0.000210761
-0.000123333
-0.000193761
-0.000148198
-0.0001732
-0.000172065
-0.000149141
-0.000194106
-0.000121894
-0.000212958
-9.2206e-05
-0.000226116
-6.15668e-05
-0.000228903
-3.26886e-05
-0.000212973
-1.00341e-05
-0.00016573
-7.29631e-05
-9.44631e-06
7.53732e-05
-3.03864e-05
0.000169368
-5.68145e-05
0.000216408
-8.48791e-05
0.000232702
-0.000112483
0.000231819
-0.000138591
0.000222074
-0.000162701
0.000207601
-0.00018456
0.000190275
-0.000204042
0.000170941
-0.000221083
0.000150051
-0.000235659
0.000127904
-0.000247765
0.000104706
-0.000257394
8.06036e-05
-0.000264529
5.56927e-05
-0.000269122
3.00308e-05
-0.000271086
3.65733e-06
-0.000270302
-2.34315e-05
-0.000266586
-5.1177e-05
-0.000259716
-7.95164e-05
-0.000249426
-0.000108312
-0.000235435
-0.000137324
-0.000217471
-0.000166161
-0.000195336
-0.0001942
-0.000168989
-0.000220453
-0.000138696
-0.000243252
-0.000105266
-0.000259545
-7.04402e-05
-0.000263729
-3.74264e-05
-0.000245986
-1.14735e-05
-0.000191682
-8.44366e-05
-1.06107e-05
8.59839e-05
-3.40745e-05
0.000192832
-6.35686e-05
0.000245902
-9.47289e-05
0.000263862
-0.000125199
0.00026229
-0.000153839
0.000250713
-0.000180122
0.000233884
-0.000203814
0.000213966
-0.000224823
0.00019195
-0.000243138
0.000168366
-0.000258788
0.000143554
-0.00027182
0.000117738
-0.000282275
9.10589e-05
-0.000290172
6.35894e-05
-0.000295488
3.53471e-05
-0.000298145
6.31448e-06
-0.000298007
-2.35696e-05
-0.000294855
-5.43287e-05
-0.000288398
-8.59734e-05
-0.000278272
-0.000118439
-0.000264057
-0.000151539
-0.00024532
-0.000184899
-0.000221676
-0.000217844
-0.000192913
-0.000249216
-0.00015919
-0.000276975
-0.000121357
-0.000297377
-8.14483e-05
-0.000303638
-4.33176e-05
-0.000284117
-1.32539e-05
-0.000221746
-9.76905e-05
-1.20095e-05
9.79934e-05
-3.84835e-05
0.000219306
-7.15887e-05
0.000279007
-0.000106334
0.000298608
-0.000140056
0.000296011
-0.000171498
0.000282156
-0.000200122
0.000262507
-0.000225726
0.000239571
-0.000248282
0.000214506
-0.000267851
0.000187935
-0.000284538
0.000160241
-0.000298463
0.000131663
-0.000309733
0.000102329
-0.00031842
7.22765e-05
-0.00032454
4.1467e-05
-0.000328034
9.80824e-06
-0.000328758
-2.28456e-05
-0.000326459
-5.6628e-05
-0.00032077
-9.16615e-05
-0.00031121
-0.000127999
-0.000297188
-0.000165561
-0.000278043
-0.000204044
-0.000253125
-0.000242763
-0.000221943
-0.000280398
-0.000184443
-0.000314475
-0.00014145
-0.00034037
-9.53265e-05
-0.000349762
-5.07725e-05
-0.000328671
-1.54908e-05
-0.000257028
-0.000113181
-1.37123e-05
0.000111706
-4.38151e-05
0.000249409
-8.12036e-05
0.000316396
-0.000120111
0.000337515
-0.000157508
0.000333409
-0.000192021
0.000316669
-0.000223116
0.000293602
-0.000250658
0.000267113
-0.000274711
0.00023856
-0.00029544
0.000208664
-0.000313056
0.000177857
-0.000327778
0.000146385
-0.000339801
0.000114352
-0.00034927
8.17457e-05
-0.000356258
4.84549e-05
-0.00036074
1.42909e-05
-0.000362581
-2.10049e-05
-0.000361499
-5.77099e-05
-0.000357056
-9.61042e-05
-0.000348637
-0.000136418
-0.000335443
-0.000178755
-0.00031652
-0.000222967
-0.000290835
-0.000268447
-0.000257466
-0.000313768
-0.000215962
-0.000355979
-0.00016698
-0.000389352
-0.000113205
-0.000403537
-6.04388e-05
-0.000381437
-1.83683e-05
-0.000299098
-0.00013155
-1.5823e-05
0.000127529
-5.03618e-05
0.000283948
-9.28759e-05
0.00035891
-0.000136627
0.000381266
-0.000178161
0.000374942
-0.000215992
0.0003545
-0.000249628
0.000327238
-0.000279045
0.00029653
-0.000304446
0.00026396
-0.00032614
0.000230358
-0.00034448
0.000196197
-0.000359815
0.00016172
-0.000372455
0.000126992
-0.000382644
9.19341e-05
-0.000390531
5.63424e-05
-0.00039615
1.99101e-05
-0.000399393
-1.7762e-05
-0.000399972
-5.71314e-05
-0.000397388
-9.86876e-05
-0.000390895
-0.000142911
-0.000379461
-0.000190189
-0.000361765
-0.000240663
-0.000336254
-0.000293957
-0.000301348
-0.000348674
-0.000255908
-0.000401419
-0.000200125
-0.000445135
-0.000136888
-0.000466774
-7.33985e-05
-0.000444926
-2.22044e-05
-0.000350292
-0.000153754
-1.85014e-05
0.00014603
-5.85567e-05
0.000324003
-0.000107267
0.00040762
-0.00015667
0.000430669
-0.000202824
0.000421095
-0.000244165
0.000395841
-0.000280308
0.000363381
-0.000311408
0.00032763
-0.000337866
0.000290419
-0.000360192
0.000252684
-0.000378922
0.000214928
-0.000394572
0.00017737
-0.000407597
0.000140017
-0.000418363
0.000102701
-0.000427127
6.5106e-05
-0.000434005
2.67875e-05
-0.000438948
-1.28187e-05
-0.000441695
-5.4384e-05
-0.000441726
-9.86569e-05
-0.000438187
-0.000146451
-0.000429815
-0.000198561
-0.000414871
-0.000255607
-0.000391133
-0.000317695
-0.000356066
-0.00038374
-0.000307382
-0.000450103
-0.000244247
-0.00050827
-0.00016936
-0.000541662
-9.15619e-05
-0.000522724
-2.76049e-05
-0.000414249
-0.000181359
-2.20041e-05
0.000168034
-6.90585e-05
0.000371058
-0.000125339
0.000463901
-0.000181334
0.000486664
-0.000232577
0.000472338
-0.000277509
0.000440773
-0.000315956
0.000401828
-0.000348352
0.000360025
-0.000375381
0.000317448
-0.000397819
0.000275121
-0.000416436
0.000233546
-0.000431954
0.000192887
-0.000445001
0.000153064
-0.000456095
0.000113795
-0.000465624
7.46347e-05
-0.00047382
3.49833e-05
-0.000480736
-5.90257e-06
-0.000486189
-4.89305e-05
-0.000489702
-9.51443e-05
-0.000490386
-0.000145766
-0.000486807
-0.000202141
-0.000476814
-0.0002656
-0.0004574
-0.000337109
-0.000424741
-0.0004164
-0.000374725
-0.000500118
-0.000304511
-0.000578483
-0.000215621
-0.000630552
-0.000118424
-0.000619921
-3.58127e-05
-0.000496861
-0.000217172
-2.67624e-05
0.000194797
-8.28946e-05
0.00042719
-0.000148504
0.000529511
-0.00021214
0.0005503
-0.000268845
0.000529043
-0.000317229
0.000489157
-0.000357503
0.000442103
-0.00039052
0.000393042
-0.000417358
0.000344286
-0.000439134
0.000296898
-0.000456913
0.000251324
-0.000471654
0.000207628
-0.000484189
0.000165599
-0.000495208
0.000124815
-0.000505254
8.46806e-05
-0.000514707
4.44365e-05
-0.000523772
3.16266e-06
-0.000532412
-4.02905e-05
-0.000540297
-8.72597e-05
-0.000546637
-0.000139426
-0.000549978
-0.0001988
-0.000547892
-0.000267686
-0.000536604
-0.000348396
-0.000510712
-0.000442292
-0.000463451
-0.00054738
-0.000388379
-0.000653555
-0.000283766
-0.000735165
-0.000160331
-0.000743356
-4.94384e-05
-0.000607754
-0.00026661
-3.35344e-05
0.000228331
-0.0001017
0.000495356
-0.000178833
0.000606644
-0.000251153
0.000622619
-0.000313407
0.000591298
-0.000364685
0.000540435
-0.000405847
0.000483264
-0.000438359
0.000425554
-0.000463828
0.000369755
-0.000483806
0.000316876
-0.000499702
0.00026722
-0.000512747
0.000220673
-0.00052399
0.000176841
-0.000534303
0.000135128
-0.000544398
9.47752e-05
-0.000554829
5.48678e-05
-0.000565981
1.43143e-05
-0.000578068
-2.82038e-05
-0.000591026
-7.43015e-05
-0.000604368
-0.000126084
-0.0006169
-0.000186268
-0.000626256
-0.00025833
-0.00062819
-0.000346463
-0.000615724
-0.000454758
-0.000578658
-0.000584446
-0.000504779
-0.000727434
-0.000385375
-0.000854569
-0.00022792
-0.000900812
-7.37251e-05
-0.000761948
-0.000340335
-4.37024e-05
0.000272033
-0.00012809
0.000579743
-0.000219272
0.000697826
-0.000300947
0.000704293
-0.000368108
0.000658459
-0.000420867
0.000593195
-0.000461124
0.000523521
-0.000491217
0.000455647
-0.000513444
0.000391983
-0.000529885
0.000333317
-0.000542339
0.000279673
-0.000552322
0.000230656
-0.000561092
0.000185612
-0.00056969
0.000143727
-0.000578982
0.000104067
-0.000589695
6.55808e-05
-0.000602433
2.7052e-05
-0.000617675
-1.2962e-05
-0.000635808
-5.61681e-05
-0.000656865
-0.000105028
-0.000680302
-0.00016283
-0.000704402
-0.000234231
-0.000725186
-0.000325678
-0.000734748
-0.000445195
-0.000719318
-0.000599877
-0.000658775
-0.000787976
-0.00053207
-0.000981274
-0.000335688
-0.00109719
-0.000117959
-0.000979677
-0.000458294
-5.98276e-05
0.000331861
-0.000166114
0.000686029
-0.000273533
0.000805245
-0.000363808
0.000794569
-0.0004334
0.00072805
-0.000484345
0.00064414
-0.000520139
0.000559315
-0.000544329
0.000479837
-0.000560092
0.000407745
-0.000570118
0.000343343
-0.000576612
0.000286168
-0.000581348
0.000235391
-0.000585741
0.000190005
-0.000590941
0.000148926
-0.000597907
0.000111033
-0.000607487
7.51615e-05
-0.000620492
4.00563e-05
-0.000637557
4.1034e-06
-0.000659726
-3.39987e-05
-0.000687635
-7.71196e-05
-0.00072179
-0.000128675
-0.000761832
-0.000194189
-0.00080524
-0.00028227
-0.00084481
-0.000405626
-0.000864705
-0.000579982
-0.000836593
-0.000816088
-0.000722055
-0.00109581
-0.000494371
-0.00132488
-0.000194884
-0.00127916
-0.000653178
-8.66016e-05
0.000418463
-0.000221374
0.000820802
-0.000344458
0.000928329
-0.000438247
0.000888358
-0.000503151
0.000792954
-0.000544602
0.000685591
-0.000568496
0.000583208
-0.000580007
0.000491349
-0.000583369
0.000411107
-0.000581899
0.000341873
-0.000578131
0.0002824
-0.000573964
0.000231225
-0.000570829
0.00018687
-0.00056983
0.000147928
-0.000571877
0.00011308
-0.000577792
8.10764e-05
-0.000588405
5.06689e-05
-0.000604731
2.043e-05
-0.000627717
-1.10127e-05
-0.000658963
-4.58735e-05
-0.000700035
-8.76037e-05
-0.000752374
-0.000141849
-0.000816136
-0.000218509
-0.000887315
-0.000334446
-0.000952101
-0.000515196
-0.000978573
-0.000789616
-0.00091136
-0.00116303
-0.000688259
-0.00154798
-0.000312416
-0.00165501
-0.000965593
-0.0001323
0.000550762
-0.000299063
0.000987566
-0.00042693
0.0010562
-0.000507199
0.000968627
-0.000549034
0.000834789
-0.000563612
0.000700169
-0.000560283
0.000579879
-0.000546185
0.000477251
-0.000526524
0.000391445
-0.000504956
0.000320305
-0.000483971
0.000261414
-0.000465223
0.000212477
-0.00044981
0.000171457
-0.000438489
0.000136607
-0.000431846
0.000106437
-0.00043043
7.96599e-05
-0.000434869
5.51083e-05
-0.000446068
3.16291e-05
-0.000464842
7.76065e-06
-0.000493137
-1.75785e-05
-0.000533139
-4.7601e-05
-0.000587764
-8.72242e-05
-0.000660226
-0.000146047
-0.000752015
-0.000242658
-0.00085744
-0.000409771
-0.000952589
-0.000694467
-0.000978838
-0.00113678
-0.00083699
-0.00168983
-0.000450028
-0.00204197
-0.00141562
-0.000210879
0.000761642
-0.000392701
0.00116939
-0.000483083
0.00114658
-0.000503923
0.000989467
-0.000481217
0.000812084
-0.000434611
0.000653564
-0.000377074
0.000522342
-0.000316799
0.000416976
-0.000258707
0.000333353
-0.000205561
0.00026716
-0.000158755
0.000214608
-0.000118856
0.000172578
-8.59775e-05
0.000138578
-6.00241e-05
0.000110653
-4.08606e-05
8.72732e-05
-2.84235e-05
6.72228e-05
-2.28121e-05
4.9497e-05
-2.43757e-05
3.31927e-05
-3.39824e-05
1.73674e-05
-5.23672e-05
8.06293e-07
-8.20241e-05
-1.79441e-05
-0.000126073
-4.31755e-05
-0.000189735
-8.23851e-05
-0.000280369
-0.000152023
-0.000405389
-0.000284751
-0.000562955
-0.000536901
-0.000720765
-0.000978966
-0.000767339
-0.00164325
-0.000532741
-0.00227657
-0.00194836
-0.000332365
0.00109401
-0.00042346
0.00126048
-0.000362795
0.00108591
-0.000228439
0.000855111
-7.17577e-05
0.000655403
8.30726e-05
0.000498733
0.00022526
0.000380154
0.000350686
0.00029155
0.00045859
0.000225449
0.000549851
0.000175899
0.00062604
0.000138419
0.000688913
0.000109705
0.000740143
8.73482e-05
0.00078119
6.96067e-05
0.000813244
5.52197e-05
0.000837206
4.32604e-05
0.000853683
3.30198e-05
0.000862967
2.39093e-05
0.000864975
1.5359e-05
0.000859095
6.68678e-06
0.000844249
-3.09884e-06
0.000817658
-1.65844e-05
0.000773806
-3.85324e-05
0.000701815
-8.00323e-05
0.000581701
-0.000164637
0.000385441
-0.000340641
9.6338e-05
-0.000689863
-0.000231125
-0.00131579
-0.000366177
-0.00214152
-0.00231454
-0.000281114
0.00137512
-1.32247e-05
0.000992593
0.000415664
0.000657024
0.000807762
0.000463013
0.00113785
0.000325318
0.00140816
0.000228424
0.00162613
0.00016218
0.00180056
0.000117117
0.00193985
8.6161e-05
0.00205115
6.45997e-05
0.00214024
4.9334e-05
0.00221164
3.82985e-05
0.00226887
3.01165e-05
0.0023146
2.38768e-05
0.00235085
1.89769e-05
0.0023791
1.50114e-05
0.00240042
1.16942e-05
0.00241553
8.80229e-06
0.00242476
6.12931e-06
0.002428
3.44562e-06
0.00242442
4.8428e-07
0.00241217
-4.33375e-06
0.00238597
-1.23373e-05
0.00233438
-2.84375e-05
0.00223231
-6.25672e-05
0.00203084
-0.000139174
0.00164974
-0.000308769
0.00102661
-0.000692657
0.000311175
-0.00142608
-0.00200337
0.00137512
0.00236771
0.00302474
0.00348775
0.00381307
0.00404149
0.00420367
0.00432079
0.00440695
0.00447155
0.00452088
0.00455918
0.0045893
0.00461318
0.00463215
0.00464716
0.00465886
0.00466766
0.00467379
0.00467723
0.00467772
0.00467339
0.00466105
0.00463261
0.00457004
0.00443087
0.0041221
0.00342944
0.00200337
)
;

boundaryField
{
    movingWall
    {
        type            calculated;
        value           uniform 0;
    }
    fixedWalls
    {
        type            calculated;
        value           uniform 0;
    }
    frontAndBack
    {
        type            empty;
        value           nonuniform 0();
    }
}


// ************************************************************************* //
