/*--------------------------------*- C++ -*----------------------------------*\
  =========                 |
  \\      /  F ield         | OpenFOAM: The Open Source CFD Toolbox
   \\    /   O peration     | Website:  https://openfoam.org
    \\  /    A nd           | Version:  7
     \\/     M anipulation  |
\*---------------------------------------------------------------------------*/
FoamFile
{
    version     2.0;
    format      ascii;
    class       volVectorField;
    location    "2.3";
    object      U;
}
// * * * * * * * * * * * * * * * * * * * * * * * * * * * * * * * * * * * * * //

dimensions      [0 1 -1 0 0 0 0];

internalField   nonuniform List<vector> 
900
(
(5.49748e-05 -5.43415e-05 0)
(-8.60888e-06 2.68811e-05 0)
(-0.00035278 0.000112291 0)
(-0.000875884 0.00016586 0)
(-0.00150873 0.000191801 0)
(-0.00219078 0.000199104 0)
(-0.00287852 0.000195546 0)
(-0.00354459 0.000186166 0)
(-0.00417211 0.000173552 0)
(-0.00474975 0.000158707 0)
(-0.00526854 0.000141811 0)
(-0.00572026 0.0001227 0)
(-0.00609669 0.000101134 0)
(-0.00638951 7.69201e-05 0)
(-0.0065904 4.99752e-05 0)
(-0.00669132 2.03539e-05 0)
(-0.006685 -1.17221e-05 0)
(-0.00656531 -4.58833e-05 0)
(-0.00632792 -8.15268e-05 0)
(-0.00597094 -0.000117813 0)
(-0.00549579 -0.000153603 0)
(-0.00490826 -0.000187339 0)
(-0.00422009 -0.000216843 0)
(-0.00345112 -0.000238988 0)
(-0.00263229 -0.000249233 0)
(-0.00180941 -0.000241193 0)
(-0.00104626 -0.000206922 0)
(-0.000421561 -0.000138862 0)
(-1.56727e-05 -3.56965e-05 0)
(6.14972e-05 5.96693e-05 0)
(-2.55195e-05 7.58815e-06 0)
(-0.000429979 0.000428155 0)
(-0.0014009 0.000821425 0)
(-0.00272738 0.00108682 0)
(-0.00427747 0.00122971 0)
(-0.00593618 0.00127893 0)
(-0.00761104 0.0012645 0)
(-0.00923691 0.00120908 0)
(-0.0107693 0.00112665 0)
(-0.0121765 0.0010245 0)
(-0.0134334 0.000905762 0)
(-0.0145183 0.000771415 0)
(-0.0154111 0.000621623 0)
(-0.0160925 0.00045649 0)
(-0.0165442 0.000276477 0)
(-0.0167493 8.26523e-05 0)
(-0.0166931 -0.000123172 0)
(-0.0163642 -0.000338127 0)
(-0.0157555 -0.000558258 0)
(-0.0148659 -0.000778212 0)
(-0.0137021 -0.000990848 0)
(-0.0122813 -0.00118662 0)
(-0.0106341 -0.00135269 0)
(-0.00880934 -0.00147175 0)
(-0.00687874 -0.00152096 0)
(-0.00494276 -0.00147208 0)
(-0.00313201 -0.00129503 0)
(-0.00159474 -0.000968041 0)
(-0.000484055 -0.000499492 0)
(-2.73782e-05 -1.34737e-05 0)
(-0.00011464 0.000354345 0)
(-0.000849697 0.00140554 0)
(-0.00236596 0.00230609 0)
(-0.00433445 0.00292341 0)
(-0.00658035 0.00326585 0)
(-0.00895934 0.00338784 0)
(-0.0113515 0.00335077 0)
(-0.0136689 0.00320454 0)
(-0.0158491 0.00298258 0)
(-0.017846 0.00270419 0)
(-0.0196231 0.00237918 0)
(-0.0211493 0.00201201 0)
(-0.0223963 0.00160476 0)
(-0.0233378 0.00115905 0)
(-0.0239495 0.000677099 0)
(-0.0242093 0.000162451 0)
(-0.0240988 -0.000379561 0)
(-0.0236039 -0.000941202 0)
(-0.022717 -0.00151201 0)
(-0.0214384 -0.00207801 0)
(-0.0197797 -0.00262079 0)
(-0.0177663 -0.00311598 0)
(-0.015442 -0.00353141 0)
(-0.0128743 -0.00382506 0)
(-0.0101601 -0.00394388 0)
(-0.00743178 -0.0038261 0)
(-0.00485677 -0.00341099 0)
(-0.00262063 -0.00266039 0)
(-0.000925362 -0.00159689 0)
(-0.000120055 -0.000396595 0)
(-0.00017772 0.00090354 0)
(-0.00117508 0.00279148 0)
(-0.00313531 0.00430637 0)
(-0.00561182 0.00533017 0)
(-0.00839126 0.00589489 0)
(-0.0113085 0.00608977 0)
(-0.014227 0.00601248 0)
(-0.0170457 0.00574344 0)
(-0.0196916 0.00533807 0)
(-0.0221102 0.00482986 0)
(-0.0242577 0.00423693 0)
(-0.0260969 0.0035685 0)
(-0.0275943 0.00282963 0)
(-0.0287189 0.00202429 0)
(-0.0294425 0.00115731 0)
(-0.0297399 0.000235546 0)
(-0.0295896 -0.000731104 0)
(-0.0289759 -0.00172893 0)
(-0.0278901 -0.0027394 0)
(-0.0263335 -0.00373793 0)
(-0.0243198 -0.00469225 0)
(-0.0218796 -0.00556002 0)
(-0.0190651 -0.00628597 0)
(-0.0159556 -0.00679909 0)
(-0.0126644 -0.0070118 0)
(-0.00934402 -0.00682452 0)
(-0.00618705 -0.00614106 0)
(-0.00340689 -0.00489907 0)
(-0.00124871 -0.00311769 0)
(-0.000179742 -0.000982721 0)
(-0.000218303 0.00160388 0)
(-0.00141111 0.00449812 0)
(-0.00371904 0.00671274 0)
(-0.00659469 0.00817906 0)
(-0.00978928 0.00897431 0)
(-0.0131195 0.0092339 0)
(-0.0164366 0.00909734 0)
(-0.0196315 0.00867829 0)
(-0.0226254 0.00805573 0)
(-0.025359 0.00727829 0)
(-0.0277845 0.00637319 0)
(-0.029861 0.00535505 0)
(-0.0315516 0.00423237 0)
(-0.0328223 0.00301193 0)
(-0.0336416 0.00170148 0)
(-0.0339813 0.00031156 0)
(-0.0338172 -0.00114306 0)
(-0.0331305 -0.00264204 0)
(-0.0319104 -0.00415788 0)
(-0.0301566 -0.00565416 0)
(-0.0278828 -0.00708293 0)
(-0.0251218 -0.00838153 0)
(-0.0219304 -0.00946864 0)
(-0.0183965 -0.010241 0)
(-0.0146456 -0.0105726 0)
(-0.010848 -0.0103221 0)
(-0.00721887 -0.00935195 0)
(-0.00399922 -0.00756618 0)
(-0.00147536 -0.00496317 0)
(-0.000214161 -0.00171285 0)
(-0.000244431 0.00241172 0)
(-0.00158417 0.00645392 0)
(-0.00416797 0.00944553 0)
(-0.0073666 0.0113874 0)
(-0.0108993 0.0124196 0)
(-0.0145654 0.0127352 0)
(-0.0182055 0.0125221 0)
(-0.0217049 0.0119304 0)
(-0.0249813 0.0110643 0)
(-0.027973 0.00998814 0)
(-0.0306302 0.00873862 0)
(-0.0329098 0.00733579 0)
(-0.0347726 0.00579164 0)
(-0.036182 0.00411559 0)
(-0.0371037 0.00231812 0)
(-0.0375057 0.000413236 0)
(-0.0373598 -0.00157957 0)
(-0.0366428 -0.00363326 0)
(-0.0353393 -0.00571106 0)
(-0.0334448 -0.00776373 0)
(-0.0309701 -0.00972606 0)
(-0.0279471 -0.0115125 0)
(-0.0244353 -0.0130124 0)
(-0.0205295 -0.0140859 0)
(-0.0163679 -0.014564 0)
(-0.0121398 -0.0142573 0)
(-0.00808608 -0.0129804 0)
(-0.00447914 -0.0105949 0)
(-0.00164567 -0.00706734 0)
(-0.000234639 -0.00254338 0)
(-0.000263446 0.00329919 0)
(-0.00172305 0.00860835 0)
(-0.00454118 0.0124475 0)
(-0.00802056 0.0148975 0)
(-0.0118512 0.0161746 0)
(-0.0158156 0.0165399 0)
(-0.0197442 0.0162363 0)
(-0.0235172 0.0154542 0)
(-0.0270502 0.0143246 0)
(-0.0302803 0.0129284 0)
(-0.0331568 0.0113115 0)
(-0.0356354 0.00949943 0)
(-0.0376753 0.00750701 0)
(-0.0392374 0.00534576 0)
(-0.0402839 0.00302813 0)
(-0.0407785 0.000570772 0)
(-0.0406872 -0.00200284 0)
(-0.0399802 -0.00465957 0)
(-0.0386346 -0.00735341 0)
(-0.0366386 -0.0100217 0)
(-0.0339967 -0.0125801 0)
(-0.0307369 -0.0149174 0)
(-0.0269194 -0.0168888 0)
(-0.0226459 -0.0183121 0)
(-0.0180695 -0.0189682 0)
(-0.0134028 -0.0186125 0)
(-0.00891893 -0.0170042 0)
(-0.0049273 -0.0139556 0)
(-0.00179702 -0.00939664 0)
(-0.000250048 -0.00345237 0)
(-0.0002806 0.00425435 0)
(-0.00185136 0.0109379 0)
(-0.00489011 0.0156923 0)
(-0.00863782 0.0186845 0)
(-0.0127567 0.0202171 0)
(-0.0170123 0.0206287 0)
(-0.0212249 0.0202239 0)
(-0.0252698 0.0192374 0)
(-0.0290611 0.017829 0)
(-0.0325355 0.0160968 0)
(-0.0356421 0.0140962 0)
(-0.0383361 0.0118572 0)
(-0.0405755 0.00939695 0)
(-0.0423187 0.00672787 0)
(-0.0435239 0.00386313 0)
(-0.0441494 0.000820569 0)
(-0.0441536 -0.00237379 0)
(-0.0434974 -0.00568195 0)
(-0.0421472 -0.00904932 0)
(-0.0400798 -0.0123993 0)
(-0.0372894 -0.0156269 0)
(-0.0337966 -0.0185907 0)
(-0.0296599 -0.0211062 0)
(-0.0249879 -0.0229404 0)
(-0.0199515 -0.0238143 0)
(-0.0147936 -0.0234183 0)
(-0.00982812 -0.021448 0)
(-0.00541038 -0.0176617 0)
(-0.00195769 -0.0119533 0)
(-0.000265919 -0.0044372 0)
(-0.000299116 0.00527683 0)
(-0.00198578 0.0134412 0)
(-0.00525337 0.0191798 0)
(-0.00928036 0.0227505 0)
(-0.0137006 0.0245518 0)
(-0.0182622 0.0250085 0)
(-0.022775 0.0244938 0)
(-0.0271096 0.0232913 0)
(-0.0311787 0.0215919 0)
(-0.0349195 0.0195114 0)
(-0.0382815 0.0171148 0)
(-0.0412202 0.014436 0)
(-0.0436928 0.0114932 0)
(-0.0456553 0.0082983 0)
(-0.0470618 0.0048634 0)
(-0.047864 0.00120531 0)
(-0.0480109 -0.00264965 0)
(-0.0474514 -0.00666073 0)
(-0.0461372 -0.0107661 0)
(-0.0440288 -0.0148756 0)
(-0.0411046 -0.0188611 0)
(-0.0373727 -0.0225468 0)
(-0.0328863 -0.0256998 0)
(-0.0277601 -0.0280251 0)
(-0.0221863 -0.0291704 0)
(-0.016446 -0.0287479 0)
(-0.0109063 -0.0263794 0)
(-0.00598143 -0.0217655 0)
(-0.00214759 -0.0147688 0)
(-0.000285134 -0.00550838 0)
(-0.00032083 0.00637366 0)
(-0.00213727 0.0161329 0)
(-0.00565777 0.0229291 0)
(-0.00999197 0.0271174 0)
(-0.014743 0.0292019 0)
(-0.0196404 0.0297034 0)
(-0.0244828 0.029071 0)
(-0.0291364 0.0276418 0)
(-0.0335131 0.0256403 0)
(-0.0375513 0.0232016 0)
(-0.0412021 0.0203996 0)
(-0.0444222 0.0172717 0)
(-0.0471686 0.0138359 0)
(-0.0493959 0.0101015 0)
(-0.051054 0.00607704 0)
(-0.0520871 0.00177547 0)
(-0.0524337 -0.00277995 0)
(-0.0520272 -0.00754901 0)
(-0.0508001 -0.0124654 0)
(-0.0486909 -0.0174261 0)
(-0.0456547 -0.0222789 0)
(-0.0416795 -0.0268076 0)
(-0.0368066 -0.0307206 0)
(-0.0311542 -0.0336454 0)
(-0.0249382 -0.0351377 0)
(-0.0184881 -0.0347126 0)
(-0.0122404 -0.0319047 0)
(-0.00668747 -0.0263536 0)
(-0.00238217 -0.0178988 0)
(-0.000309008 -0.00668502 0)
(-0.000346803 0.00755656 0)
(-0.00231313 0.0190382 0)
(-0.00612186 0.0269726 0)
(-0.0108032 0.0318205 0)
(-0.0159255 0.0342033 0)
(-0.0211977 0.0347484 0)
(-0.0264069 0.0339894 0)
(-0.0314148 0.0323222 0)
(-0.0361338 0.0300081 0)
(-0.0405043 0.0272024 0)
(-0.0444808 0.0239883 0)
(-0.0480223 0.0204058 0)
(-0.0510876 0.016471 0)
(-0.0536305 0.0121886 0)
(-0.0555977 0.00756049 0)
(-0.0569262 0.00259178 0)
(-0.0575425 -0.00270182 0)
(-0.057362 -0.00828574 0)
(-0.0562929 -0.0140935 0)
(-0.0542438 -0.0200127 0)
(-0.051137 -0.025866 0)
(-0.046929 -0.0313915 0)
(-0.0416386 -0.036226 0)
(-0.0353797 -0.039899 0)
(-0.028393 -0.0418477 0)
(-0.0210671 -0.0414631 0)
(-0.01393 -0.0381726 0)
(-0.00758083 -0.0315491 0)
(-0.00267709 -0.0214225 0)
(-0.000338186 -0.0079931 0)
(-0.000377775 0.00884039 0)
(-0.00251881 0.0221902 0)
(-0.00665974 0.0313524 0)
(-0.011737 0.0369046 0)
(-0.0172787 0.0395998 0)
(-0.0229706 0.0401848 0)
(-0.0285874 0.0392874 0)
(-0.0339871 0.037369 0)
(-0.0390836 0.034731 0)
(-0.0438215 0.0315503 0)
(-0.0481603 0.02792 0)
(-0.0520638 0.0238817 0)
(-0.0554943 0.0194481 0)
(-0.0584077 0.0146168 0)
(-0.0607489 0.00937933 0)
(-0.0624489 0.00372817 0)
(-0.0634223 -0.00233473 0)
(-0.0635641 -0.0087878 0)
(-0.0627528 -0.0155716 0)
(-0.0608589 -0.02257 0)
(-0.0577585 -0.0295833 0)
(-0.0533602 -0.0362993 0)
(-0.0476426 -0.0422686 0)
(-0.0407008 -0.0468962 0)
(-0.0327945 -0.0494637 0)
(-0.0243821 -0.0491973 0)
(-0.0161127 -0.0453845 0)
(-0.00873442 -0.0375221 0)
(-0.00305389 -0.0254493 0)
(-0.000373366 -0.00946651 0)
(-0.000414487 0.0102427 0)
(-0.00275953 0.0256283 0)
(-0.00728444 0.0361183 0)
(-0.012814 0.0424216 0)
(-0.0188288 0.0454403 0)
(-0.0249885 0.0460567 0)
(-0.0310547 0.0450047 0)
(-0.0368825 0.0428183 0)
(-0.0423894 0.0398433 0)
(-0.0475265 0.0362804 0)
(-0.0522608 0.0322325 0)
(-0.056564 0.0277427 0)
(-0.0604055 0.0228187 0)
(-0.063746 0.0174484 0)
(-0.0665323 0.0116088 0)
(-0.0686922 0.00527389 0)
(-0.0701304 -0.00157606 0)
(-0.0707207 -0.00894181 0)
(-0.0703073 -0.0167827 0)
(-0.0687133 -0.0249898 0)
(-0.0657528 -0.0333485 0)
(-0.0612631 -0.0414951 0)
(-0.0551546 -0.04888 0)
(-0.0474766 -0.0547507 0)
(-0.0384904 -0.0581817 0)
(-0.0287295 -0.0581721 0)
(-0.0190005 -0.0538158 0)
(-0.010264 -0.0445115 0)
(-0.00354804 -0.0301335 0)
(-0.0004162 -0.0111513 0)
(-0.00045793 0.0117837 0)
(-0.00304157 0.0293989 0)
(-0.00801091 0.0413278 0)
(-0.0140568 0.0484295 0)
(-0.0206033 0.0517777 0)
(-0.0272806 0.0524097 0)
(-0.0338366 0.0511796 0)
(-0.0401252 0.048703 0)
(-0.0460698 0.0453751 0)
(-0.0516311 0.0414224 0)
(-0.0567873 0.0369589 0)
(-0.0615217 0.0320285 0)
(-0.0658149 0.0266332 0)
(-0.0696377 0.0207484 0)
(-0.0729439 0.0143325 0)
(-0.0756634 0.0073342 0)
(-0.0776951 -0.000297563 0)
(-0.0788945 -0.00859572 0)
(-0.0790705 -0.0175581 0)
(-0.0779895 -0.0271006 0)
(-0.0753853 -0.0370089 0)
(-0.070994 -0.0468761 0)
(-0.0646157 -0.0560418 0)
(-0.0562062 -0.0635595 0)
(-0.0459892 -0.068227 0)
(-0.0345632 -0.0687212 0)
(-0.0229324 -0.063849 0)
(-0.0123623 -0.052863 0)
(-0.00422195 -0.0357031 0)
(-0.000470872 -0.0131151 0)
(-0.000509592 0.0134879 0)
(-0.00337358 0.0335563 0)
(-0.00885886 0.0470469 0)
(-0.015494 0.0549927 0)
(-0.0226358 0.0586676 0)
(-0.029881 0.0592885 0)
(-0.0369636 0.0578466 0)
(-0.0437387 0.05505 0)
(-0.0501393 0.0513486 0)
(-0.0561395 0.0469978 0)
(-0.0617326 0.0421235 0)
(-0.0669184 0.0367713 0)
(-0.0716942 0.0309366 0)
(-0.0760471 0.024581 0)
(-0.0799461 0.0176406 0)
(-0.0833315 0.0100325 0)
(-0.0861018 0.00166428 0)
(-0.0881055 -0.00754858 0)
(-0.0891219 -0.0176617 0)
(-0.0888532 -0.0286427 0)
(-0.0869356 -0.0403076 0)
(-0.0829676 -0.0522291 0)
(-0.0765807 -0.0636402 0)
(-0.0675604 -0.0733655 0)
(-0.0560157 -0.0798382 0)
(-0.042566 -0.0812704 0)
(-0.0284449 -0.076021 0)
(-0.0153493 -0.0630909 0)
(-0.00518535 -0.0425095 0)
(-0.000546969 -0.0154651 0)
(-0.000571796 0.0153849 0)
(-0.00376817 0.0381665 0)
(-0.00985596 0.0533528 0)
(-0.0171646 0.0621829 0)
(-0.0249705 0.066168 0)
(-0.0328327 0.0667351 0)
(-0.0404725 0.0650338 0)
(-0.0477499 0.0618764 0)
(-0.0546115 0.0577742 0)
(-0.0610495 0.0530143 0)
(-0.0670775 0.0477367 0)
(-0.0727169 0.0419893 0)
(-0.0779878 0.0357617 0)
(-0.0829017 0.0290011 0)
(-0.0874519 0.0216198 0)
(-0.0916014 0.0134984 0)
(-0.095266 0.00449229 0)
(-0.0982993 -0.00555463 0)
(-0.100461 -0.0167818 0)
(-0.101396 -0.0292462 0)
(-0.100634 -0.0428433 0)
(-0.0975953 -0.0571747 0)
(-0.0916692 -0.0713974 0)
(-0.0823587 -0.0840908 0)
(-0.0695249 -0.093223 0)
(-0.0537017 -0.0963384 0)
(-0.0363444 -0.0910762 0)
(-0.0197348 -0.0759648 0)
(-0.00662437 -0.0511059 0)
(-0.000664223 -0.0183787 0)
(-0.000648236 0.017513 0)
(-0.00424424 0.0433114 0)
(-0.0110422 0.0603379 0)
(-0.0191232 0.0700811 0)
(-0.0276672 0.0743388 0)
(-0.0361922 0.0747869 0)
(-0.0444097 0.0727589 0)
(-0.0521896 0.0691854 0)
(-0.0594983 0.0646453 0)
(-0.0663512 0.0594609 0)
(-0.0727872 0.0537877 0)
(-0.0788547 0.0476783 0)
(-0.0846035 0.0411181 0)
(-0.0900778 0.0340421 0)
(-0.0953068 0.0263389 0)
(-0.100291 0.0178503 0)
(-0.104985 0.00837102 0)
(-0.109271 -0.00234307 0)
(-0.112913 -0.0145378 0)
(-0.115519 -0.028423 0)
(-0.116515 -0.0440422 0)
(-0.115118 -0.0611109 0)
(-0.11039 -0.0787887 0)
(-0.101408 -0.0954361 0)
(-0.0875861 -0.108467 0)
(-0.0691681 -0.114493 0)
(-0.0477308 -0.110001 0)
(-0.0262741 -0.0926132 0)
(-0.00883684 -0.0623585 0)
(-0.000859771 -0.0221528 0)
(-0.00074492 0.0199231 0)
(-0.0048305 0.0490963 0)
(-0.0124757 0.0681147 0)
(-0.0214465 0.0787789 0)
(-0.0308068 0.0832396 0)
(-0.0400326 0.0834724 0)
(-0.0488314 0.0810245 0)
(-0.0570913 0.0769598 0)
(-0.0648054 0.0719313 0)
(-0.0720186 0.0662984 0)
(-0.0787998 0.0602346 0)
(-0.0852292 0.053799 0)
(-0.0913919 0.0469769 0)
(-0.0973728 0.0396956 0)
(-0.103249 0.0318249 0)
(-0.109076 0.0231709 0)
(-0.11487 0.0134664 0)
(-0.120566 0.00236906 0)
(-0.125979 -0.0105157 0)
(-0.13073 -0.0255993 0)
(-0.134157 -0.0431711 0)
(-0.135271 -0.0631929 0)
(-0.13275 -0.0849735 0)
(-0.125088 -0.10676 0)
(-0.110998 -0.125378 0)
(-0.0901155 -0.13621 0)
(-0.0638684 -0.133975 0)
(-0.0359685 -0.114597 0)
(-0.0122677 -0.0775792 0)
(-0.00119993 -0.0272737 0)
(-0.000871929 0.0226859 0)
(-0.00557139 0.0556605 0)
(-0.014242 0.0768228 0)
(-0.0242412 0.0883791 0)
(-0.0344959 0.0929263 0)
(-0.0444437 0.0928039 0)
(-0.0537992 0.0898085 0)
(-0.0624806 0.0851522 0)
(-0.0705173 0.079566 0)
(-0.0779895 0.073448 0)
(-0.0850003 0.0669895 0)
(-0.091665 0.0602595 0)
(-0.0981072 0.0532481 0)
(-0.104457 0.0458819 0)
(-0.110847 0.038022 0)
(-0.117403 0.0294488 0)
(-0.124224 0.0198417 0)
(-0.13134 0.00875817 0)
(-0.13866 -0.00437834 0)
(-0.145866 -0.0202306 0)
(-0.152287 -0.0394463 0)
(-0.156772 -0.0624103 0)
(-0.157606 -0.0888063 0)
(-0.152601 -0.116986 0)
(-0.13952 -0.143273 0)
(-0.116982 -0.161589 0)
(-0.0857623 -0.164125 0)
(-0.0499326 -0.143852 0)
(-0.0175394 -0.0986358 0)
(-0.00180373 -0.0345117 0)
(-0.00104686 0.0259039 0)
(-0.00653699 0.0631925 0)
(-0.0164665 0.0866363 0)
(-0.027654 0.0989937 0)
(-0.0388693 0.103441 0)
(-0.0495246 0.102764 0)
(-0.0593622 0.0990485 0)
(-0.0683478 0.0936676 0)
(-0.0765589 0.0874305 0)
(-0.0841173 0.0807708 0)
(-0.0911631 0.0738972 0)
(-0.0978471 0.0668898 0)
(-0.104331 0.0597486 0)
(-0.110789 0.0524095 0)
(-0.117411 0.0447379 0)
(-0.124395 0.036506 0)
(-0.131937 0.027357 0)
(-0.140191 0.0167581 0)
(-0.149201 0.00395719 0)
(-0.158783 -0.0120197 0)
(-0.168353 -0.032284 0)
(-0.176719 -0.0578306 0)
(-0.18188 -0.0890118 0)
(-0.181 -0.124626 0)
(-0.170776 -0.160772 0)
(-0.148424 -0.189895 0)
(-0.113337 -0.200976 0)
(-0.0690246 -0.18233 0)
(-0.0254704 -0.127952 0)
(-0.00289471 -0.045047 0)
(-0.00130189 0.0297313 0)
(-0.00784056 0.0719524 0)
(-0.0193337 0.0977694 0)
(-0.0318806 0.110733 0)
(-0.044082 0.114789 0)
(-0.0553573 0.113277 0)
(-0.0655111 0.108612 0)
(-0.0745825 0.102333 0)
(-0.0827114 0.0953209 0)
(-0.0900685 0.0880364 0)
(-0.0968325 0.0807009 0)
(-0.103187 0.0734048 0)
(-0.109328 0.066162 0)
(-0.115464 0.0589262 0)
(-0.121832 0.051582 0)
(-0.128693 0.0439152 0)
(-0.136329 0.03556 0)
(-0.14502 0.0259241 0)
(-0.154972 0.0141003 0)
(-0.166192 -0.00120804 0)
(-0.178297 -0.0216656 0)
(-0.190256 -0.0490103 0)
(-0.200046 -0.0845618 0)
(-0.204453 -0.127995 0)
(-0.199266 -0.175699 0)
(-0.180134 -0.219036 0)
(-0.144289 -0.24355 0)
(-0.0931184 -0.231143 0)
(-0.0370217 -0.168233 0)
(-0.00489384 -0.0606388 0)
(-0.00169895 0.0344113 0)
(-0.0096705 0.0823016 0)
(-0.0231143 0.110474 0)
(-0.0371675 0.123674 0)
(-0.0502775 0.126896 0)
(-0.061938 0.12416 0)
(-0.0720732 0.118243 0)
(-0.080832 0.110842 0)
(-0.0884372 0.102893 0)
(-0.0951172 0.0948672 0)
(-0.101092 0.0869892 0)
(-0.106576 0.0793544 0)
(-0.111788 0.0719897 0)
(-0.11696 0.0648709 0)
(-0.122351 0.0579125 0)
(-0.128254 0.0509328 0)
(-0.135003 0.043588 0)
(-0.142964 0.0352689 0)
(-0.152493 0.0249638 0)
(-0.163833 0.0111122 0)
(-0.17687 -0.00847182 0)
(-0.190967 -0.0364272 0)
(-0.204519 -0.0751379 0)
(-0.214471 -0.125594 0)
(-0.216259 -0.185199 0)
(-0.204245 -0.245173 0)
(-0.173005 -0.288306 0)
(-0.119976 -0.289119 0)
(-0.0529527 -0.221664 0)
(-0.0085128 -0.0837901 0)
(-0.0023629 0.0403443 0)
(-0.0123502 0.0947416 0)
(-0.0282003 0.125013 0)
(-0.0437914 0.13779 0)
(-0.0574981 0.13951 0)
(-0.0690178 0.135015 0)
(-0.0784862 0.127455 0)
(-0.0862154 0.118653 0)
(-0.0925397 0.109565 0)
(-0.0977613 0.100651 0)
(-0.102148 0.0921188 0)
(-0.105946 0.0840589 0)
(-0.10939 0.0765027 0)
(-0.112715 0.0694429 0)
(-0.116174 0.062824 0)
(-0.120051 0.0565052 0)
(-0.12467 0.0501869 0)
(-0.130415 0.0432881 0)
(-0.137712 0.0347688 0)
(-0.146989 0.0229212 0)
(-0.158551 0.0051944 0)
(-0.172279 -0.0218026 0)
(-0.187358 -0.0615669 0)
(-0.201711 -0.116642 0)
(-0.211335 -0.186216 0)
(-0.210161 -0.262851 0)
(-0.190357 -0.328469 0)
(-0.144084 -0.351104 0)
(-0.0728317 -0.288252 0)
(-0.0146774 -0.11768 0)
(-0.00355414 0.0482231 0)
(-0.0164493 0.109948 0)
(-0.035139 0.14157 0)
(-0.0519645 0.152787 0)
(-0.0654545 0.152017 0)
(-0.0757466 0.145044 0)
(-0.0833319 0.135351 0)
(-0.0887646 0.124818 0)
(-0.0925358 0.114367 0)
(-0.0950484 0.104409 0)
(-0.0966346 0.0951114 0)
(-0.0975758 0.0865383 0)
(-0.0981188 0.0787076 0)
(-0.0984893 0.0716119 0)
(-0.0989064 0.0652105 0)
(-0.0995979 0.0593935 0)
(-0.100822 0.0539115 0)
(-0.102895 0.0482446 0)
(-0.106218 0.0414099 0)
(-0.111307 0.0317098 0)
(-0.118776 0.0164897 0)
(-0.129139 -0.00794204 0)
(-0.142695 -0.046063 0)
(-0.158894 -0.101798 0)
(-0.175414 -0.176661 0)
(-0.187159 -0.266282 0)
(-0.185196 -0.354731 0)
(-0.156457 -0.407108 0)
(-0.0934237 -0.363433 0)
(-0.0239684 -0.16536 0)
(-0.00582108 0.0593109 0)
(-0.0229766 0.128767 0)
(-0.044599 0.15999 0)
(-0.0615122 0.167756 0)
(-0.0729385 0.163079 0)
(-0.0798687 0.152705 0)
(-0.0833714 0.140314 0)
(-0.0843583 0.12772 0)
(-0.0835411 0.115727 0)
(-0.081459 0.104641 0)
(-0.0785243 0.0945531 0)
(-0.0750574 0.0854667 0)
(-0.0713101 0.077358 0)
(-0.0674827 0.0701917 0)
(-0.0637403 0.063914 0)
(-0.0602266 0.0584197 0)
(-0.0570911 0.0534957 0)
(-0.0545258 0.0486928 0)
(-0.0528201 0.0431495 0)
(-0.0524434 0.0353407 0)
(-0.0541421 0.0228101 0)
(-0.0590159 0.00198185 0)
(-0.0683363 -0.0318467 0)
(-0.0831933 -0.0835484 0)
(-0.103864 -0.15688 0)
(-0.127819 -0.251741 0)
(-0.147409 -0.357855 0)
(-0.146194 -0.443534 0)
(-0.107491 -0.43606 0)
(-0.0353493 -0.227832 0)
(-0.0102921 0.0760644 0)
(-0.0336422 0.152047 0)
(-0.0569597 0.179191 0)
(-0.0707825 0.180477 0)
(-0.0762308 0.169984 0)
(-0.0758192 0.155169 0)
(-0.0715027 0.13959 0)
(-0.0646817 0.124784 0)
(-0.0563361 0.111303 0)
(-0.0471423 0.0992612 0)
(-0.0375687 0.0886119 0)
(-0.027941 0.0792571 0)
(-0.0184795 0.0710948 0)
(-0.00932636 0.0640305 0)
(-0.000567782 0.0579684 0)
(0.0077563 0.0527837 0)
(0.015618 0.0482689 0)
(0.0229592 0.0440389 0)
(0.0296329 0.0393818 0)
(0.0352865 0.0330487 0)
(0.0391971 0.0230039 0)
(0.0400432 0.00619752 0)
(0.0359305 -0.0215411 0)
(0.0244674 -0.0652219 0)
(0.00287498 -0.129989 0)
(-0.0300063 -0.219629 0)
(-0.0707201 -0.332162 0)
(-0.103009 -0.446498 0)
(-0.104668 -0.488905 0)
(-0.0447343 -0.301952 0)
(-0.0190596 0.103077 0)
(-0.0506962 0.179476 0)
(-0.0699856 0.195689 0)
(-0.0727784 0.186086 0)
(-0.0645055 0.167631 0)
(-0.0500224 0.147675 0)
(-0.032363 0.128992 0)
(-0.0133579 0.112458 0)
(0.00588161 0.098157 0)
(0.024704 0.085893 0)
(0.0427403 0.0754088 0)
(0.0597903 0.0664619 0)
(0.0757697 0.058847 0)
(0.0906726 0.0523938 0)
(0.104546 0.0469518 0)
(0.117474 0.0423657 0)
(0.129549 0.0384227 0)
(0.140832 0.0347925 0)
(0.151295 0.0309122 0)
(0.160698 0.0258365 0)
(0.168412 0.0180521 0)
(0.173073 0.00528401 0)
(0.172613 -0.0156801 0)
(0.163963 -0.0489758 0)
(0.142912 -0.0997641 0)
(0.105056 -0.17401 0)
(0.0476116 -0.277641 0)
(-0.0181858 -0.406039 0)
(-0.0741873 -0.502825 0)
(-0.0446994 -0.378702 0)
(-0.0340432 0.146098 0)
(-0.0716132 0.203494 0)
(-0.0667948 0.197946 0)
(-0.041536 0.173059 0)
(-0.0070986 0.146195 0)
(0.0298908 0.122445 0)
(0.0662233 0.102658 0)
(0.10049 0.0864765 0)
(0.132107 0.0732877 0)
(0.160938 0.0625134 0)
(0.18706 0.0536726 0)
(0.210649 0.0463893 0)
(0.231929 0.0403755 0)
(0.251142 0.0354084 0)
(0.268537 0.0313065 0)
(0.284351 0.0279028 0)
(0.298797 0.025006 0)
(0.312025 0.0223554 0)
(0.324066 0.0195478 0)
(0.334736 0.0159374 0)
(0.343479 0.01051 0)
(0.348943 0.00175318 0)
(0.349188 -0.0122039 0)
(0.340953 -0.0342285 0)
(0.319357 -0.0681211 0)
(0.278449 -0.11967 0)
(0.21061 -0.198827 0)
(0.118171 -0.319343 0)
(-0.00354415 -0.46028 0)
(-0.022113 -0.435255 0)
(-0.0371906 0.236714 0)
(-0.0455693 0.205796 0)
(0.0317002 0.155632 0)
(0.104732 0.119303 0)
(0.172363 0.0917882 0)
(0.232186 0.0712114 0)
(0.283839 0.0560814 0)
(0.328104 0.044874 0)
(0.366028 0.0364217 0)
(0.398606 0.0299398 0)
(0.426701 0.0249025 0)
(0.451037 0.0209471 0)
(0.472227 0.0178173 0)
(0.490786 0.0153283 0)
(0.507151 0.0133392 0)
(0.521686 0.01173 0)
(0.534677 0.0103769 0)
(0.546312 0.00912551 0)
(0.556625 0.00775641 0)
(0.565408 0.00594156 0)
(0.572073 0.00319776 0)
(0.575584 -0.00118814 0)
(0.574117 -0.00808397 0)
(0.564514 -0.0189495 0)
(0.541895 -0.0356389 0)
(0.50056 -0.0616326 0)
(0.429171 -0.104378 0)
(0.324899 -0.188981 0)
(0.138065 -0.337723 0)
(0.0587247 -0.414445 0)
(0.231281 0.158471 0)
(0.292024 0.117525 0)
(0.442812 0.0764566 0)
(0.542869 0.0511277 0)
(0.610774 0.034652 0)
(0.660586 0.0236715 0)
(0.698386 0.0164399 0)
(0.727549 0.0116822 0)
(0.750454 0.00850407 0)
(0.768786 0.00633824 0)
(0.78371 0.00483512 0)
(0.796039 0.00377548 0)
(0.806367 0.00301873 0)
(0.815137 0.00247285 0)
(0.822684 0.00207502 0)
(0.829261 0.00177791 0)
(0.835045 0.00153874 0)
(0.840125 0.00130949 0)
(0.844481 0.00102697 0)
(0.847935 0.000606606 0)
(0.85007 -6.13365e-05 0)
(0.850145 -0.00108737 0)
(0.846808 -0.00276702 0)
(0.838258 -0.00546223 0)
(0.821137 -0.00955275 0)
(0.792544 -0.0160304 0)
(0.739501 -0.0266867 0)
(0.661757 -0.0499095 0)
(0.457407 -0.111459 0)
(0.314027 -0.178675 0)
)
;

boundaryField
{
    movingWall
    {
        type            fixedValue;
        value           uniform (1 0 0);
    }
    fixedWalls
    {
        type            noSlip;
    }
    frontAndBack
    {
        type            empty;
    }
}


// ************************************************************************* //
