/*--------------------------------*- C++ -*----------------------------------*\
  =========                 |
  \\      /  F ield         | OpenFOAM: The Open Source CFD Toolbox
   \\    /   O peration     | Website:  https://openfoam.org
    \\  /    A nd           | Version:  7
     \\/     M anipulation  |
\*---------------------------------------------------------------------------*/
FoamFile
{
    version     2.0;
    format      ascii;
    class       volScalarField;
    location    "2";
    object      p;
}
// * * * * * * * * * * * * * * * * * * * * * * * * * * * * * * * * * * * * * //

dimensions      [0 2 -2 0 0 0 0];

internalField   nonuniform List<scalar> 
900
(
-1.73358e-08
-0.000126636
-0.000234343
-0.00030121
-0.000302346
-0.00022899
-8.15143e-05
0.000136527
0.000420897
0.000767313
0.00117138
0.00162827
0.00213244
0.00267731
0.0032551
0.00385671
0.00447167
0.00508819
0.00569324
0.00627282
0.00681223
0.00729646
0.00771074
0.00804128
0.00827638
0.0084083
0.00843683
0.00837572
0.00825958
0.00811637
0.000125354
-2.47779e-06
-7.75127e-05
-0.000110738
-9.09728e-05
-9.62866e-06
0.000135346
0.000343168
0.000611849
0.000938591
0.00131988
0.00175142
0.00222797
0.00274325
0.00328975
0.00385869
0.00443994
0.00502223
0.00559311
0.00613929
0.00664699
0.00710245
0.00749258
0.00780593
0.00803381
0.00817178
0.00822217
0.00819824
0.00811853
0.00797516
0.000235942
6.96366e-05
-7.46194e-06
-3.41612e-05
-9.27931e-06
7.3747e-05
0.000216611
0.000418946
0.000679502
0.000996203
0.00136612
0.00178543
0.00224928
0.00275169
0.0032854
0.00384187
0.00441127
0.00498238
0.00554292
0.00607972
0.00657915
0.00702761
0.0074123
0.00772218
0.00794905
0.00808872
0.00814321
0.00812413
0.00803997
0.00785566
0.000307316
9.68559e-05
7.5261e-06
-2.19484e-05
2.14591e-06
8.41515e-05
0.000224688
0.00042313
0.000678503
0.000989197
0.00135279
0.00176591
0.00222412
0.0027218
0.00325198
0.00380632
0.00437507
0.00494702
0.00550979
0.00604998
0.0065536
0.00700664
0.00739588
0.00770981
0.00793972
0.00808069
0.00813367
0.00810878
0.00800822
0.0077759
0.000310539
6.30277e-05
-3.96746e-05
-7.50506e-05
-5.42699e-05
2.54394e-05
0.000163718
0.000359594
0.000612219
0.000920344
0.00128198
0.00169423
0.00215307
0.00265325
0.00318807
0.00374936
0.00432739
0.00491082
0.0054869
0.00604167
0.00656039
0.00702815
0.00743067
0.00775541
0.00799263
0.00813633
0.0081865
0.00815262
0.00803389
0.00776028
0.00023128
-4.64334e-05
-0.000162073
-0.000204584
-0.000188185
-0.000111067
2.5682e-05
0.000220796
0.000473522
0.000782918
0.00114742
0.00156456
0.00203079
0.0025412
0.0030894
0.00366734
0.00426524
0.00487146
0.00547266
0.00605401
0.00659957
0.00709297
0.00751834
0.00786151
0.00811124
0.00826027
0.00830789
0.00826391
0.00812678
0.00781742
6.35515e-05
-0.000240113
-0.000368033
-0.000417909
-0.00040598
-0.000330994
-0.000194556
1.87024e-06
0.000257653
0.000572171
0.000944292
0.00137204
0.00185233
0.00238069
0.00295103
0.00355543
0.00418402
0.00482472
0.00546342
0.00608405
0.00666906
0.00720005
0.00765891
0.00802918
0.00829764
0.0084556
0.00850188
0.00844741
0.00829138
0.00794804
-0.000196013
-0.000524289
-0.00066421
-0.000721305
-0.00071345
-0.000639742
-0.000502172
-0.000302324
-4.06516e-05
0.000282598
0.000666787
0.0011105
0.0016112
0.00216493
0.00276598
0.00340663
0.00407689
0.00476422
0.00545353
0.00612723
0.00676564
0.00734772
0.00785232
0.00825995
0.00855472
0.00872618
0.00877284
0.0087075
0.00853097
0.00815139
-0.000550899
-0.000904943
-0.00105723
-0.00112147
-0.00111721
-0.00104386
-0.000903751
-0.00069855
-0.000428473
-9.33125e-05
0.000306883
0.000771367
0.0012983
0.00188436
0.00252439
0.00321097
0.00393409
0.00468079
0.00543487
0.00617694
0.00688467
0.00753362
0.00809868
0.00855624
0.00888681
0.00907756
0.00912669
0.00904956
0.00884943
0.00842768
-0.00100586
-0.00138867
-0.00155432
-0.0016259
-0.00162492
-0.00155115
-0.00140734
-0.00119524
-0.000914761
-0.000565158
-0.000145758
0.000343516
0.000901701
0.00152634
0.00221303
0.00295493
0.00374219
0.00456157
0.00539577
0.00622337
0.00701889
0.00775361
0.00839722
0.00892058
0.00929918
0.00951677
0.00957095
0.00948038
0.00925173
0.00877847
-0.00156738
-0.00198329
-0.00216386
-0.00224326
-0.00224547
-0.0021708
-0.00202254
-0.00180253
-0.00151038
-0.00114466
-0.00070386
-0.000186866
0.000406468
0.00107484
0.00181494
0.00262083
0.00348325
0.00438899
0.00531981
0.00625219
0.00715704
0.00800039
0.0087452
0.00935482
0.00979763
0.0100522
0.0101149
0.0100085
0.00974427
0.0092064
-0.00224383
-0.00269826
-0.00289575
-0.00298376
-0.00298934
-0.00291362
-0.00276062
-0.00253239
-0.00222814
-0.00184573
-0.00138258
-0.000836363
-0.000205525
0.000510143
0.00130888
0.0021862
0.00313393
0.00413954
0.00518428
0.00624274
0.00728194
0.00826165
0.00913627
0.00985896
0.0103879
0.0106939
0.0107703
0.0106447
0.0103351
0.00971446
-0.00304561
-0.00354502
-0.00376185
-0.00385945
-0.00386879
-0.00379218
-0.00363465
-0.00339857
-0.00308282
-0.00268437
-0.00219948
-0.00162433
-0.000955653
-0.000191313
0.000669043
0.00162304
0.00266437
0.00378226
0.00495818
0.00616557
0.00736766
0.00851716
0.0095578
0.0104292
0.0110748
0.0114529
0.0115514
0.0114029
0.011034
0.010305
-0.00398529
-0.00453738
-0.00477631
-0.00488458
-0.00489811
-0.00482093
-0.00465949
-0.00441667
-0.00409102
-0.0036786
-0.00317433
-0.00257271
-0.00186845
-0.00105702
-0.000135332
0.000897173
0.00203701
0.00327688
0.00459965
0.00597903
0.00737543
0.00873423
0.00998652
0.011054
0.0118593
0.0123412
0.0124761
0.012301
0.0118539
0.0109784
-0.00507796
-0.00569202
-0.00595613
-0.00607599
-0.00609392
-0.0060164
-0.00585184
-0.00560395
-0.00527099
-0.0048481
-0.00432877
-0.00370565
-0.00297118
-0.00211806
-0.00113986
-3.20466e-05
0.00120663
0.00257218
0.00405298
0.00562497
0.00724783
0.00886079
0.0103811
0.0117079
0.0127346
0.0133691
0.0135663
0.0133636
0.0128121
0.0117317
-0.00634177
-0.00702928
-0.00732181
-0.00745365
-0.00747547
-0.00739728
-0.00723022
-0.00697916
-0.00664226
-0.00621373
-0.00568561
-0.00504869
-0.00429298
-0.00340821
-0.00238417
-0.00121138
0.000117601
0.00160446
0.00324562
0.00502338
0.00690098
0.00881502
0.01067
0.012339
0.0136755
0.0145401
0.0148478
0.014625
0.0139345
0.0125577
-0.00779891
-0.00857438
-0.00889851
-0.00904147
-0.00906514
-0.00898462
-0.00881481
-0.00856222
-0.00822506
-0.00779671
-0.00726783
-0.00662743
-0.00586327
-0.00496209
-0.00390975
-0.00269143
-0.00129268
0.000297422
0.00208604
0.00406717
0.00621483
0.0084707
0.0107326
0.0128478
0.0146199
0.0158384
0.0163463
0.0161345
0.0152639
0.0134466
-0.00947713
-0.0103594
-0.0107176
-0.0108684
-0.010889
-0.010802
-0.0106273
-0.0103737
-0.0100396
-0.0096175
-0.009097
-0.00846559
-0.00770919
-0.00681212
-0.00575673
-0.00452313
-0.00308968
-0.0014347
0.0004645
0.00261912
0.00502377
0.00763899
0.010371
0.0130519
0.0154314
0.0171992
0.0180744
0.0179592
0.016874
0.0143945
-0.0114125
-0.0124264
-0.0128192
-0.0129697
-0.0129774
-0.0128754
-0.0126905
-0.012434
-0.0121046
-0.0116941
-0.0111911
-0.010582
-0.00985192
-0.0089837
-0.0079577
-0.00675062
-0.00533414
-0.00367449
-0.00173735
0.000516561
0.00311361
0.00605268
0.00927693
0.0126339
0.0158356
0.0184488
0.0199925
0.0201784
0.0188892
0.0154249
-0.0136539
-0.0148325
-0.0152556
-0.0153895
-0.0153659
-0.0152334
-0.0150273
-0.014762
-0.0144358
-0.0140397
-0.0135613
-0.0129868
-0.0123013
-0.0114882
-0.0105285
-0.00939807
-0.00806647
-0.00649324
-0.00462724
-0.00240661
0.000238534
0.00337035
0.00701168
0.0110877
0.0153328
0.0192009
0.0219234
0.0228473
0.0215069
0.0166382
-0.0162717
-0.0176581
-0.018097
-0.0181822
-0.0180949
-0.0179053
-0.0176589
-0.0173723
-0.0170426
-0.0166588
-0.0162074
-0.015675
-0.0150481
-0.0143132
-0.0134548
-0.0124534
-0.0112822
-0.00990261
-0.00825784
-0.00626527
-0.0038156
-0.000760134
0.00305342
0.00772502
0.0131423
0.0187426
0.0234225
0.0259175
0.0250083
0.0183185
-0.0193737
-0.0210208
-0.0214382
-0.0214149
-0.0212083
-0.020918
-0.0206
-0.0202702
-0.0199217
-0.0195401
-0.0191099
-0.0186182
-0.0180541
-0.0174095
-0.0166767
-0.0158466
-0.0149047
-0.0138263
-0.0125654
-0.0110361
-0.00909629
-0.00652476
-0.00299566
0.00188199
0.00835429
0.0160775
0.0237203
0.0291645
0.0297629
0.021162
-0.0231373
-0.025098
-0.0254082
-0.0251661
-0.024747
-0.0242869
-0.0238477
-0.0234389
-0.0230445
-0.0226432
-0.022216
-0.0217497
-0.0212369
-0.0206765
-0.0200719
-0.0194299
-0.018757
-0.0180542
-0.0173065
-0.0164516
-0.0153313
-0.0136899
-0.0110221
-0.00655851
0.000525859
0.01046
0.0220577
0.0323305
0.0363185
0.0267205
-0.0278789
-0.0301636
-0.0301782
-0.0295161
-0.0287302
-0.0279928
-0.0273574
-0.0268144
-0.0263305
-0.0258724
-0.0254146
-0.0249421
-0.0244504
-0.0239458
-0.0234444
-0.0229713
-0.0225588
-0.0222412
-0.0220444
-0.0219584
-0.0218669
-0.0214211
-0.0200329
-0.0165599
-0.00944787
0.00244751
0.0186462
0.0357461
0.0458064
0.0380574
-0.0342032
-0.0366427
-0.0359549
-0.0345126
-0.0331111
-0.0319327
-0.0309903
-0.0302328
-0.029597
-0.0290297
-0.0284947
-0.0279723
-0.027459
-0.0269665
-0.026522
-0.0261674
-0.0259584
-0.0259585
-0.0262358
-0.0268166
-0.0276199
-0.0283063
-0.0280992
-0.0257126
-0.018781
-0.00516044
0.0158448
0.0414232
0.0608367
0.0602217
-0.0433565
-0.0451765
-0.0429136
-0.0400708
-0.037667
-0.0358091
-0.0344059
-0.0333302
-0.032469
-0.0317384
-0.0310837
-0.0304758
-0.0299077
-0.0293932
-0.0289653
-0.0286764
-0.0285969
-0.0287949
-0.029373
-0.0303493
-0.031631
-0.0328361
-0.0329525
-0.0310815
-0.0234874
-0.00764376
0.018463
0.0540081
0.0863236
0.0998525
-0.0582784
-0.056689
-0.0510119
-0.0457564
-0.0417889
-0.0389379
-0.0368962
-0.0354098
-0.0342837
-0.0333807
-0.0326151
-0.0319393
-0.0313365
-0.0308161
-0.0304104
-0.0301721
-0.0301692
-0.0304741
-0.0311502
-0.0321871
-0.0334191
-0.0343655
-0.0339097
-0.0302758
-0.0203202
-0.00056186
0.0319473
0.0798111
0.128446
0.1655
-0.0864643
-0.0720111
-0.0598455
-0.0506303
-0.044347
-0.0401974
-0.0374248
-0.0355585
-0.034258
-0.0332992
-0.032545
-0.0319189
-0.0313883
-0.0309544
-0.0306439
-0.0305024
-0.0305845
-0.0309363
-0.0315637
-0.0323698
-0.0330553
-0.0329584
-0.0306814
-0.0240303
-0.00960505
0.0168562
0.0595261
0.121495
0.192279
0.274095
-0.138924
-0.0870636
-0.0668659
-0.0519253
-0.0427829
-0.0375235
-0.0344858
-0.0327082
-0.0316459
-0.0309821
-0.0305332
-0.0302004
-0.0299421
-0.0297561
-0.0296671
-0.0297146
-0.0299381
-0.0303534
-0.0309086
-0.0314038
-0.0313653
-0.0298806
-0.02549
-0.015502
0.00397412
0.0383876
0.0937998
0.177166
0.285267
0.456974
-0.310563
-0.0962434
-0.0487474
-0.0326621
-0.025114
-0.0222556
-0.0218733
-0.0224593
-0.0233095
-0.0241618
-0.0249198
-0.0255545
-0.0260765
-0.0265233
-0.0269469
-0.0274029
-0.0279356
-0.0285522
-0.0291793
-0.029592
-0.029307
-0.0274136
-0.0222555
-0.011011
0.0103584
0.0482731
0.111963
0.221628
0.39631
0.741654
)
;

boundaryField
{
    movingWall
    {
        type            zeroGradient;
    }
    fixedWalls
    {
        type            zeroGradient;
    }
    frontAndBack
    {
        type            empty;
    }
}


// ************************************************************************* //
