/*--------------------------------*- C++ -*----------------------------------*\
  =========                 |
  \\      /  F ield         | OpenFOAM: The Open Source CFD Toolbox
   \\    /   O peration     | Website:  https://openfoam.org
    \\  /    A nd           | Version:  7
     \\/     M anipulation  |
\*---------------------------------------------------------------------------*/
FoamFile
{
    version     2.0;
    format      ascii;
    class       volVectorField;
    location    "2";
    object      U;
}
// * * * * * * * * * * * * * * * * * * * * * * * * * * * * * * * * * * * * * //

dimensions      [0 1 -1 0 0 0 0];

internalField   nonuniform List<vector> 
900
(
(5.30781e-05 -5.24531e-05 0)
(-2.58539e-05 3.38344e-05 0)
(-0.000394662 0.000120898 0)
(-0.000936035 0.000172553 0)
(-0.00157803 0.000195393 0)
(-0.00225968 0.000199895 0)
(-0.00293917 0.000194319 0)
(-0.00359151 0.000183633 0)
(-0.00420191 0.000170173 0)
(-0.00476041 0.000154731 0)
(-0.00525901 0.000137383 0)
(-0.00569024 0.000117965 0)
(-0.00604668 9.62916e-05 0)
(-0.00632094 7.22511e-05 0)
(-0.00650578 4.58317e-05 0)
(-0.00659443 1.7139e-05 0)
(-0.00658086 -1.35854e-05 0)
(-0.00646018 -4.59945e-05 0)
(-0.00622903 -7.95705e-05 0)
(-0.00588608 -0.000113636 0)
(-0.00543259 -0.000147315 0)
(-0.0048732 -0.000179439 0)
(-0.00421713 -0.000208337 0)
(-0.00348017 -0.000231425 0)
(-0.00268783 -0.000244566 0)
(-0.00188017 -0.00024131 0)
(-0.00111673 -0.000212729 0)
(-0.000475688 -0.000148916 0)
(-4.02273e-05 -4.50273e-05 0)
(5.80204e-05 5.59929e-05 0)
(-3.25858e-05 2.49383e-05 0)
(-0.000465935 0.000463946 0)
(-0.00147615 0.000857665 0)
(-0.00282738 0.00111023 0)
(-0.00438062 0.0012356 0)
(-0.00602086 0.00126866 0)
(-0.00765948 0.00124199 0)
(-0.00923667 0.00117841 0)
(-0.0107128 0.00109101 0)
(-0.01206 0.000986138 0)
(-0.013256 0.000866347 0)
(-0.0142815 0.000732478 0)
(-0.0151188 0.00058483 0)
(-0.015751 0.00042376 0)
(-0.0161625 0.000249976 0)
(-0.0163392 6.46811e-05 0)
(-0.0162693 -0.000130356 0)
(-0.0159437 -0.000332557 0)
(-0.0153573 -0.000538591 0)
(-0.0145098 -0.000744153 0)
(-0.0134069 -0.000943676 0)
(-0.0120627 -0.00112976 0)
(-0.0105018 -0.00129214 0)
(-0.00876373 -0.00141609 0)
(-0.00690877 -0.00148038 0)
(-0.00502516 -0.00145598 0)
(-0.00323427 -0.00130808 0)
(-0.00168173 -0.00100533 0)
(-0.000528856 -0.000543207 0)
(-3.67999e-05 -3.78739e-05 0)
(-0.000123372 0.000396534 0)
(-0.000885911 0.00148063 0)
(-0.00243188 0.00237244 0)
(-0.00440763 0.00295465 0)
(-0.00663045 0.00325293 0)
(-0.00895703 0.00333447 0)
(-0.0112733 0.00326666 0)
(-0.013499 0.00310018 0)
(-0.0155787 0.0028667 0)
(-0.0174719 0.00258342 0)
(-0.0191468 0.00225873 0)
(-0.020576 0.00189656 0)
(-0.0217348 0.00149911 0)
(-0.0226006 0.00106841 0)
(-0.0231528 0.000607084 0)
(-0.0233735 0.000118823 0)
(-0.0232478 -0.000391338 0)
(-0.0227649 -0.00091658 0)
(-0.0219195 -0.00144816 0)
(-0.0207128 -0.00197491 0)
(-0.0191545 -0.00248239 0)
(-0.0172653 -0.00295155 0)
(-0.0150806 -0.00335641 0)
(-0.0126552 -0.00366084 0)
(-0.0100701 -0.00381524 0)
(-0.00744106 -0.00375566 0)
(-0.00492246 -0.00341062 0)
(-0.00269515 -0.00272157 0)
(-0.000970445 -0.00168475 0)
(-0.000131572 -0.000451934 0)
(-0.000184278 0.000963815 0)
(-0.00119727 0.00289055 0)
(-0.00316337 0.00437944 0)
(-0.00561521 0.00533803 0)
(-0.00833317 0.00582545 0)
(-0.011155 0.00595092 0)
(-0.0139519 0.00582172 0)
(-0.0166324 0.00551958 0)
(-0.0191323 0.00509716 0)
(-0.0214039 0.00458439 0)
(-0.0234092 0.00399694 0)
(-0.025116 0.00334299 0)
(-0.0264952 0.00262758 0)
(-0.0275205 0.00185521 0)
(-0.0281685 0.00103115 0)
(-0.0284184 0.000162353 0)
(-0.0282536 -0.000742 0)
(-0.0276619 -0.00166995 0)
(-0.0266375 -0.00260614 0)
(-0.0251822 -0.00353096 0)
(-0.0233078 -0.0044192 0)
(-0.0210389 -0.0052377 0)
(-0.0184174 -0.00594178 0)
(-0.0155072 -0.0064704 0)
(-0.0124021 -0.00674168 0)
(-0.00923458 -0.00665252 0)
(-0.00618021 -0.00608931 0)
(-0.00344498 -0.00495721 0)
(-0.00128191 -0.00323308 0)
(-0.000189951 -0.00106201 0)
(-0.000221307 0.00167215 0)
(-0.00141369 0.00459766 0)
(-0.00369803 0.00675971 0)
(-0.0065121 0.00812405 0)
(-0.00960347 0.00880451 0)
(-0.0127938 0.00896349 0)
(-0.0159441 0.00875339 0)
(-0.0189561 0.00828943 0)
(-0.0217611 0.00764649 0)
(-0.0243076 0.0068681 0)
(-0.0265544 0.00597783 0)
(-0.028466 0.00498866 0)
(-0.030011 0.00390893 0)
(-0.0311605 0.00274596 0)
(-0.0318886 0.00150803 0)
(-0.0321725 0.000205627 0)
(-0.0319931 -0.00114765 0)
(-0.0313364 -0.00253418 0)
(-0.0301947 -0.00393133 0)
(-0.0285688 -0.00531018 0)
(-0.0264704 -0.00663342 0)
(-0.0239254 -0.00785209 0)
(-0.0209789 -0.0089006 0)
(-0.0177009 -0.00969043 0)
(-0.0141947 -0.0101043 0)
(-0.0106059 -0.00999616 0)
(-0.00712912 -0.00920428 0)
(-0.00399451 -0.00758727 0)
(-0.00149383 -0.00508433 0)
(-0.000222395 -0.00180823 0)
(-0.000244172 0.00247712 0)
(-0.00156828 0.00652959 0)
(-0.00410048 0.00943308 0)
(-0.00720297 0.0112304 0)
(-0.010594 0.0121071 0)
(-0.01408 0.0122898 0)
(-0.017513 0.0119819 0)
(-0.0207902 0.011335 0)
(-0.02384 0.0104475 0)
(-0.0266092 0.00937697 0)
(-0.0290548 0.00815514 0)
(-0.0311398 0.00679986 0)
(-0.0328308 0.0053228 0)
(-0.034097 0.00373406 0)
(-0.0349101 0.00204477 0)
(-0.0352447 0.000268803 0)
(-0.0350787 -0.00157591 0)
(-0.0343944 -0.00346608 0)
(-0.0331808 -0.00537161 0)
(-0.0314354 -0.0072536 0)
(-0.0291673 -0.00906156 0)
(-0.0264015 -0.010729 0)
(-0.0231843 -0.0121669 0)
(-0.0195904 -0.0132562 0)
(-0.015732 -0.01384 0)
(-0.0117694 -0.013724 0)
(-0.00791813 -0.0126915 0)
(-0.00443583 -0.010545 0)
(-0.00165208 -0.00717339 0)
(-0.000241722 -0.0026477 0)
(-0.000260915 0.00335265 0)
(-0.00169316 0.00863939 0)
(-0.00443721 0.0123471 0)
(-0.00779227 0.014605 0)
(-0.0114497 0.0156834 0)
(-0.0152008 0.0158826 0)
(-0.0188888 0.0154633 0)
(-0.0224065 0.0146168 0)
(-0.0256808 0.0134664 0)
(-0.0286573 0.0120842 0)
(-0.0312923 0.0105101 0)
(-0.0335478 0.00876658 0)
(-0.035389 0.00686836 0)
(-0.0367833 0.00482784 0)
(-0.0376998 0.00265845 0)
(-0.0381095 0.00037687 0)
(-0.0379861 -0.00199524 0)
(-0.0373068 -0.0044294 0)
(-0.0360549 -0.00688813 0)
(-0.034222 -0.00932222 0)
(-0.0318122 -0.0116668 0)
(-0.0288471 -0.0138358 0)
(-0.0253726 -0.0157136 0)
(-0.0214675 -0.0171459 0)
(-0.0172545 -0.0179307 0)
(-0.0129118 -0.0178184 0)
(-0.00868124 -0.0165297 0)
(-0.00485269 -0.0138029 0)
(-0.00179569 -0.00946993 0)
(-0.000257203 -0.00356077 0)
(-0.000276858 0.00428974 0)
(-0.00181261 0.0109092 0)
(-0.00476145 0.0154822 0)
(-0.00836404 0.0182305 0)
(-0.0122856 0.0195186 0)
(-0.0163018 0.0197297 0)
(-0.0202467 0.0191881 0)
(-0.024009 0.0181283 0)
(-0.0275137 0.0167 0)
(-0.0307062 0.0149906 0)
(-0.0335425 0.0130481 0)
(-0.0359841 0.0108994 0)
(-0.0379952 0.00856141 0)
(-0.0395412 0.00604815 0)
(-0.0405882 0.0033744 0)
(-0.041103 0.000558511 0)
(-0.0410535 -0.00237519 0)
(-0.0404101 -0.00539398 0)
(-0.0391477 -0.00845355 0)
(-0.0372492 -0.0114942 0)
(-0.0347105 -0.0144357 0)
(-0.0315467 -0.0171694 0)
(-0.0278016 -0.0195488 0)
(-0.0235579 -0.0213781 0)
(-0.0189507 -0.0224022 0)
(-0.0141811 -0.0223074 0)
(-0.00952419 -0.0207431 0)
(-0.00530957 -0.0173764 0)
(-0.00195229 -0.0119794 0)
(-0.000274284 -0.00454745 0)
(-0.000295006 0.00529079 0)
(-0.00194255 0.0133433 0)
(-0.00511033 0.0188453 0)
(-0.0089779 0.0221161 0)
(-0.0131831 0.0236242 0)
(-0.0174852 0.0238444 0)
(-0.0217082 0.0231708 0)
(-0.0257365 0.0218849 0)
(-0.0294938 0.0201654 0)
(-0.0329253 0.0181152 0)
(-0.0359874 0.0157906 0)
(-0.0386417 0.0132222 0)
(-0.0408516 0.0104288 0)
(-0.0425806 0.00742451 0)
(-0.0437918 0.00422421 0)
(-0.0444469 0.000846345 0)
(-0.0445068 -0.00268385 0)
(-0.0439326 -0.00633097 0)
(-0.0426882 -0.0100451 0)
(-0.0407443 -0.0137562 0)
(-0.0380843 -0.0173674 0)
(-0.0347131 -0.0207446 0)
(-0.0306691 -0.0237044 0)
(-0.0260382 -0.0260007 0)
(-0.0209699 -0.0273146 0)
(-0.0156944 -0.0272564 0)
(-0.0105291 -0.0253937 0)
(-0.00585423 -0.0213157 0)
(-0.00214011 -0.0147345 0)
(-0.000295664 -0.00562017 0)
(-0.000316924 0.00636497 0)
(-0.00209279 0.0159606 0)
(-0.00550813 0.0224608 0)
(-0.00967356 0.0262894 0)
(-0.0141966 0.0280291 0)
(-0.0188183 0.0282555 0)
(-0.0233524 0.0274397 0)
(-0.0276783 0.0259149 0)
(-0.0317189 0.0238905 0)
(-0.03542 0.0214865 0)
(-0.0387391 0.0187671 0)
(-0.0416384 0.0157665 0)
(-0.0440813 0.0125039 0)
(-0.0460302 0.00899243 0)
(-0.0474448 0.00524515 0)
(-0.0482814 0.00127836 0)
(-0.0484927 -0.00288422 0)
(-0.0480285 -0.00720703 0)
(-0.0468381 -0.0116365 0)
(-0.0448754 -0.0160936 0)
(-0.0421061 -0.0204636 0)
(-0.0385191 -0.0245834 0)
(-0.0341425 -0.0282253 0)
(-0.0290625 -0.0310816 0)
(-0.023445 -0.0327543 0)
(-0.0175561 -0.0327618 0)
(-0.0117678 -0.0305757 0)
(-0.00652622 -0.0257003 0)
(-0.00237247 -0.017789 0)
(-0.000322573 -0.00679903 0)
(-0.000343478 0.00752544 0)
(-0.00226965 0.0187896 0)
(-0.00597118 0.0263652 0)
(-0.010478 0.0307899 0)
(-0.0153626 0.0327725 0)
(-0.0203461 0.0330008 0)
(-0.0252304 0.0320308 0)
(-0.0298906 0.0302524 0)
(-0.0342491 0.0279087 0)
(-0.0382534 0.0251375 0)
(-0.041863 0.0220115 0)
(-0.0450423 0.0185676 0)
(-0.0477557 0.0148243 0)
(-0.0499652 0.0107924 0)
(-0.051628 0.00648052 0)
(-0.0526948 0.0019 0)
(-0.0531094 -0.00293038 0)
(-0.0528079 -0.00797862 0)
(-0.0517215 -0.013191 0)
(-0.0497817 -0.0184816 0)
(-0.046929 -0.0237186 0)
(-0.0431281 -0.0287055 0)
(-0.0383886 -0.0331617 0)
(-0.0327915 -0.0367027 0)
(-0.0265187 -0.038831 0)
(-0.0198798 -0.0389501 0)
(-0.0133181 -0.0364163 0)
(-0.0073671 -0.0306386 0)
(-0.00266216 -0.0212157 0)
(-0.000355661 -0.00810993 0)
(-0.000375315 0.00878808 0)
(-0.00247807 0.0218657 0)
(-0.00651228 0.0306033 0)
(-0.011412 0.0356651 0)
(-0.016709 0.0379009 0)
(-0.0221012 0.0381237 0)
(-0.0273783 0.0369839 0)
(-0.032411 0.0349343 0)
(-0.0371226 0.0322548 0)
(-0.0414635 0.0291024 0)
(-0.0453971 0.0255585 0)
(-0.0488914 0.0216623 0)
(-0.0519138 0.0174306 0)
(-0.0544276 0.0128694 0)
(-0.0563888 0.00798048 0)
(-0.0577435 0.00276646 0)
(-0.058426 -0.00276342 0)
(-0.0583572 -0.00858616 0)
(-0.057446 -0.0146532 0)
(-0.055595 -0.0208766 0)
(-0.0527102 -0.0271091 0)
(-0.0487197 -0.0331186 0)
(-0.0436016 -0.0385611 0)
(-0.0374211 -0.0429559 0)
(-0.0303717 -0.0456779 0)
(-0.0228137 -0.0459827 0)
(-0.0152829 -0.043082 0)
(-0.00843202 -0.0362747 0)
(-0.00302574 -0.0251107 0)
(-0.000395552 -0.00958509 0)
(-0.000413164 0.0101713 0)
(-0.00272312 0.0252303 0)
(-0.00714409 0.0352275 0)
(-0.0124956 0.0409693 0)
(-0.0182611 0.0434656 0)
(-0.0241125 0.0436702 0)
(-0.0298259 0.0423401 0)
(-0.0352688 0.0399973 0)
(-0.0403667 0.0369624 0)
(-0.045075 0.0334138 0)
(-0.0493632 0.0294417 0)
(-0.0532054 0.0250873 0)
(-0.0565746 0.0203644 0)
(-0.059438 0.0152723 0)
(-0.0617528 0.00980252 0)
(-0.0634622 0.00394466 0)
(-0.0644926 -0.00230756 0)
(-0.0647484 -0.00894772 0)
(-0.0641128 -0.0159405 0)
(-0.0624523 -0.0232041 0)
(-0.0596263 -0.0305814 0)
(-0.0555097 -0.0378047 0)
(-0.050029 -0.0444565 0)
(-0.0432136 -0.0499361 0)
(-0.0352567 -0.0534523 0)
(-0.0265729 -0.0540641 0)
(-0.0178164 -0.0507932 0)
(-0.00980538 -0.0428031 0)
(-0.00348901 -0.0296037 0)
(-0.000443324 -0.0112658 0)
(-0.00045806 0.0116962 0)
(-0.00301125 0.0289314 0)
(-0.00788193 0.0402974 0)
(-0.0137519 0.0467631 0)
(-0.0200476 0.0495218 0)
(-0.0264107 0.0496882 0)
(-0.0326035 0.0481393 0)
(-0.0384914 0.0454752 0)
(-0.0440043 0.0420618 0)
(-0.0491054 0.0381002 0)
(-0.0537732 0.0336909 0)
(-0.0579914 0.0288764 0)
(-0.0617418 0.0236667 0)
(-0.0649992 0.0180522 0)
(-0.0677258 0.012011 0)
(-0.0698659 0.00551418 0)
(-0.0713407 -0.00146742 0)
(-0.0720395 -0.00895285 0)
(-0.0718174 -0.0169329 0)
(-0.0704983 -0.0253445 0)
(-0.0678812 -0.0340328 0)
(-0.0637655 -0.0427 0)
(-0.0579961 -0.0508477 0)
(-0.0505333 -0.0577287 0)
(-0.0415424 -0.062334 0)
(-0.0314852 -0.0634545 0)
(-0.0211633 -0.0598476 0)
(-0.011626 -0.0504958 0)
(-0.00409614 -0.0348776 0)
(-0.000501394 -0.0132086 0)
(-0.000511562 0.0133883 0)
(-0.00335145 0.0330259 0)
(-0.00874631 0.045882 0)
(-0.0152112 0.053114 0)
(-0.0221042 0.0561283 0)
(-0.0290332 0.0562255 0)
(-0.0357462 0.0544191 0)
(-0.0421086 0.0513976 0)
(-0.048058 0.0475768 0)
(-0.0535689 0.0431835 0)
(-0.0586326 0.0383291 0)
(-0.063246 0.0330577 0)
(-0.0674046 0.0273748 0)
(-0.0710956 0.0212602 0)
(-0.074292 0.0146751 0)
(-0.0769449 0.00756634 0)
(-0.0789758 -0.000126138 0)
(-0.0802641 -0.00845669 0)
(-0.0806389 -0.0174611 0)
(-0.0798763 -0.0271152 0)
(-0.0777014 -0.0372865 0)
(-0.073811 -0.0476634 0)
(-0.0679265 -0.057669 0)
(-0.0598849 -0.0663833 0)
(-0.0497687 -0.0725151 0)
(-0.0380566 -0.0744823 0)
(-0.0257193 -0.0706554 0)
(-0.0141288 -0.0597471 0)
(-0.00492589 -0.0412047 0)
(-0.000575486 -0.015497 0)
(-0.000576067 0.0152785 0)
(-0.00375678 0.0375823 0)
(-0.00976606 0.0520621 0)
(-0.0169146 0.0600979 0)
(-0.0244785 0.0633477 0)
(-0.0320279 0.0633288 0)
(-0.0392974 0.0612123 0)
(-0.0461557 0.0577859 0)
(-0.0525524 0.0535218 0)
(-0.0584775 0.0486748 0)
(-0.0639397 0.0433684 0)
(-0.0689541 0.0376491 0)
(-0.0735348 0.0315176 0)
(-0.0776881 0.0249422 0)
(-0.0814053 0.0178647 0)
(-0.084653 0.0102037 0)
(-0.0873604 0.00185965 0)
(-0.0894095 -0.007274 0)
(-0.0906129 -0.0172963 0)
(-0.0906987 -0.0282495 0)
(-0.0893083 -0.0400588 0)
(-0.0860073 -0.0524328 0)
(-0.0803391 -0.0647369 0)
(-0.0719354 -0.0758651 0)
(-0.0606993 -0.0841705 0)
(-0.0470477 -0.0875499 0)
(-0.0321149 -0.0837853 0)
(-0.0177086 -0.0711446 0)
(-0.00611918 -0.0490085 0)
(-0.000678727 -0.0182649 0)
(-0.000655343 0.0174066 0)
(-0.00424661 0.0426859 0)
(-0.0109825 0.0589343 0)
(-0.018919 0.0678006 0)
(-0.0272344 0.0712454 0)
(-0.0354573 0.0710419 0)
(-0.0433117 0.0685435 0)
(-0.0506749 0.0646506 0)
(-0.057514 0.0598974 0)
(-0.0638399 0.0545698 0)
(-0.0696837 0.0488046 0)
(-0.0750839 0.0426517 0)
(-0.0800793 0.0361079 0)
(-0.0847024 0.0291302 0)
(-0.0889715 0.0216408 0)
(-0.0928805 0.013527 0)
(-0.0963836 0.00464233 0)
(-0.0993801 -0.00518724 0)
(-0.101681 -0.0161469 0)
(-0.102982 -0.0283812 0)
(-0.102843 -0.0419252 0)
(-0.100675 -0.0565693 0)
(-0.0957795 -0.0716764 0)
(-0.0874722 -0.0859733 0)
(-0.0753211 -0.0973921 0)
(-0.0595228 -0.103114 0)
(-0.0412991 -0.100011 0)
(-0.0230021 -0.0855687 0)
(-0.00792077 -0.0589638 0)
(-0.000839251 -0.0217381 0)
(-0.000755467 0.0198253 0)
(-0.0048502 0.0484461 0)
(-0.0124554 0.0666168 0)
(-0.0213044 0.0763207 0)
(-0.030458 0.0798893 0)
(-0.0394025 0.0794022 0)
(-0.0478567 0.0764249 0)
(-0.0557146 0.0719851 0)
(-0.0629683 0.0666845 0)
(-0.069656 0.0608422 0)
(-0.0758364 0.0546095 0)
(-0.0815766 0.0480412 0)
(-0.086946 0.0411319 0)
(-0.0920105 0.0338298 0)
(-0.0968256 0.0260389 0)
(-0.101426 0.0176155 0)
(-0.10581 0.00836251 0)
(-0.109919 -0.00197212 0)
(-0.113592 -0.0136747 0)
(-0.116521 -0.0270472 0)
(-0.118207 -0.0423027 0)
(-0.117901 -0.0594089 0)
(-0.114608 -0.0778361 0)
(-0.107196 -0.0962253 0)
(-0.0946787 -0.112067 0)
(-0.0767643 -0.121605 0)
(-0.0545498 -0.120322 0)
(-0.0309568 -0.104303 0)
(-0.0107328 -0.0721384 0)
(-0.00111328 -0.0263027 0)
(-0.000886608 0.0226074 0)
(-0.00561267 0.055007 0)
(-0.0142722 0.0752562 0)
(-0.0241818 0.08577 0)
(-0.0342634 0.0893457 0)
(-0.0439643 0.0884345 0)
(-0.0530096 0.0848487 0)
(-0.061322 0.0797576 0)
(-0.0689283 0.073835 0)
(-0.0759007 0.0674337 0)
(-0.0823309 0.0607199 0)
(-0.0883193 0.0537546 0)
(-0.0939705 0.0465332 0)
(-0.09939 0.0389994 0)
(-0.104679 0.0310449 0)
(-0.109928 0.0225007 0)
(-0.115201 0.0131235 0)
(-0.120501 0.00258196 0)
(-0.125743 -0.0095403 0)
(-0.130674 -0.023736 0)
(-0.134775 -0.0404835 0)
(-0.137171 -0.0600642 0)
(-0.136551 -0.0822361 0)
(-0.131215 -0.105737 0)
(-0.119375 -0.127695 0)
(-0.0998712 -0.14323 0)
(-0.0732564 -0.14581 0)
(-0.0428082 -0.129086 0)
(-0.0151706 -0.090158 0)
(-0.00160833 -0.0326097 0)
(-0.00106652 0.0258579 0)
(-0.0066051 0.0625634 0)
(-0.0165615 0.0850357 0)
(-0.0277041 0.0962724 0)
(-0.038796 0.0996713 0)
(-0.0492585 0.0981386 0)
(-0.0588435 0.0937727 0)
(-0.0675198 0.0878966 0)
(-0.0753612 0.081257 0)
(-0.0824818 0.0742379 0)
(-0.0890109 0.0670196 0)
(-0.0950852 0.0596698 0)
(-0.100847 0.0521882 0)
(-0.106444 0.04452 0)
(-0.112028 0.0365541 0)
(-0.117752 0.0281085 0)
(-0.123761 0.0189073 0)
(-0.130162 0.00855049 0)
(-0.136976 -0.00352093 0)
(-0.144064 -0.0180234 0)
(-0.15098 -0.035779 0)
(-0.156805 -0.0575489 0)
(-0.159965 -0.0836329 0)
(-0.15816 -0.113172 0)
(-0.148605 -0.143185 0)
(-0.128852 -0.167631 0)
(-0.098272 -0.177316 0)
(-0.0598281 -0.161958 0)
(-0.022104 -0.115316 0)
(-0.00252899 -0.0417195 0)
(-0.00132765 0.0297344 0)
(-0.00794213 0.0713829 0)
(-0.0195118 0.0961815 0)
(-0.0320755 0.107954 0)
(-0.0442261 0.110894 0)
(-0.0553914 0.108466 0)
(-0.0653842 0.103095 0)
(-0.0742449 0.0962638 0)
(-0.0821097 0.0887866 0)
(-0.089143 0.081072 0)
(-0.0955161 0.0733095 0)
(-0.101403 0.0655732 0)
(-0.106982 0.0578694 0)
(-0.112442 0.0501519 0)
(-0.117982 0.0423177 0)
(-0.123817 0.0341889 0)
(-0.130175 0.0254781 0)
(-0.137275 0.015738 0)
(-0.145291 0.00429495 0)
(-0.154244 -0.00981017 0)
(-0.16386 -0.0278127 0)
(-0.173331 -0.0510969 0)
(-0.180993 -0.0808009 0)
(-0.184087 -0.116889 0)
(-0.17884 -0.156735 0)
(-0.161239 -0.193419 0)
(-0.128721 -0.214709 0)
(-0.0826729 -0.204654 0)
(-0.0326435 -0.150474 0)
(-0.00426629 -0.055297 0)
(-0.00173224 0.0344841 0)
(-0.00981357 0.0818373 0)
(-0.0233979 0.108962 0)
(-0.0375532 0.120917 0)
(-0.050717 0.122968 0)
(-0.062391 0.119268 0)
(-0.0725046 0.1126 0)
(-0.0812058 0.104602 0)
(-0.0887136 0.096136 0)
(-0.0952531 0.087624 0)
(-0.101042 0.0792562 0)
(-0.106292 0.0711088 0)
(-0.111214 0.0631946 0)
(-0.116029 0.0554802 0)
(-0.120971 0.047881 0)
(-0.126302 0.0402402 0)
(-0.13231 0.0322863 0)
(-0.139314 0.0235618 0)
(-0.147628 0.0133191 0)
(-0.157475 0.000392769 0)
(-0.168827 -0.0169002 0)
(-0.18118 -0.040635 0)
(-0.1931 -0.0730338 0)
(-0.201763 -0.115332 0)
(-0.202791 -0.165919 0)
(-0.190718 -0.217736 0)
(-0.160485 -0.255842 0)
(-0.110202 -0.257347 0)
(-0.0479065 -0.19848 0)
(-0.0075229 -0.0758405 0)
(-0.00240497 0.0405125 0)
(-0.0125422 0.0944396 0)
(-0.0286129 0.123661 0)
(-0.0444197 0.135165 0)
(-0.0583267 0.135685 0)
(-0.0700363 0.1302 0)
(-0.0796839 0.121863 0)
(-0.0875766 0.112434 0)
(-0.0940442 0.102797 0)
(-0.0993886 0.0933621 0)
(-0.103882 0.0843078 0)
(-0.107776 0.0757026 0)
(-0.111309 0.0675605 0)
(-0.114722 0.0598582 0)
(-0.118261 0.0525323 0)
(-0.1222 0.0454579 0)
(-0.126847 0.038401 0)
(-0.132561 0.0309341 0)
(-0.139749 0.0222993 0)
(-0.148819 0.0112169 0)
(-0.159991 -0.00433538 0)
(-0.173231 -0.0272231 0)
(-0.187748 -0.0606844 0)
(-0.201296 -0.10756 0)
(-0.209718 -0.168004 0)
(-0.206831 -0.236055 0)
(-0.185123 -0.295495 0)
(-0.137921 -0.316769 0)
(-0.0681507 -0.260713 0)
(-0.0133296 -0.106777 0)
(-0.00360389 0.048516 0)
(-0.016689 0.109876 0)
(-0.03569 0.140484 0)
(-0.0528726 0.150442 0)
(-0.0667529 0.148482 0)
(-0.0774665 0.140525 0)
(-0.0854944 0.130054 0)
(-0.0913784 0.118885 0)
(-0.095603 0.107875 0)
(-0.0985735 0.0973903 0)
(-0.100631 0.0875735 0)
(-0.102072 0.0784687 0)
(-0.103159 0.0700763 0)
(-0.104133 0.0623709 0)
(-0.105231 0.0553002 0)
(-0.106694 0.0487662 0)
(-0.108792 0.0425783 0)
(-0.11184 0.0363639 0)
(-0.116227 0.0294136 0)
(-0.122432 0.0204499 0)
(-0.13101 0.00732072 0)
(-0.142338 -0.0132946 0)
(-0.156471 -0.045564 0)
(-0.172579 -0.0938723 0)
(-0.187855 -0.160703 0)
(-0.196751 -0.242732 0)
(-0.190388 -0.325127 0)
(-0.156912 -0.374506 0)
(-0.0909262 -0.334494 0)
(-0.0225719 -0.151881 0)
(-0.00586953 0.059752 0)
(-0.0232355 0.128989 0)
(-0.0452481 0.159289 0)
(-0.0626665 0.165868 0)
(-0.0746936 0.160062 0)
(-0.0823047 0.148751 0)
(-0.086544 0.135609 0)
(-0.0883014 0.122393 0)
(-0.0882793 0.109854 0)
(-0.087021 0.0982644 0)
(-0.0849516 0.0876931 0)
(-0.0824093 0.0781306 0)
(-0.0796677 0.0695377 0)
(-0.0769519 0.061863 0)
(-0.0744536 0.0550424 0)
(-0.072347 0.0489834 0)
(-0.0708083 0.0435235 0)
(-0.0700425 0.0383458 0)
(-0.0703272 0.0328321 0)
(-0.072078 0.0258149 0)
(-0.0759202 0.0152634 0)
(-0.082652 -0.0020427 0)
(-0.0932787 -0.0308047 0)
(-0.108617 -0.0763517 0)
(-0.128268 -0.143564 0)
(-0.149058 -0.232978 0)
(-0.163033 -0.334632 0)
(-0.154582 -0.417069 0)
(-0.109012 -0.410118 0)
(-0.0345942 -0.213355 0)
(-0.0103144 0.0766463 0)
(-0.0338355 0.152586 0)
(-0.0575582 0.178964 0)
(-0.07198 0.179208 0)
(-0.0781887 0.167708 0)
(-0.0786671 0.152043 0)
(-0.0753316 0.13577 0)
(-0.0695537 0.120382 0)
(-0.0623019 0.106393 0)
(-0.0542574 0.0938952 0)
(-0.0459007 0.0828277 0)
(-0.0375728 0.0730827 0)
(-0.0295134 0.064547 0)
(-0.0218871 0.0571136 0)
(-0.0148031 0.0506799 0)
(-0.00833339 0.0451314 0)
(-0.00253187 0.0403077 0)
(0.00254125 0.0359327 0)
(0.00676623 0.0314895 0)
(0.00988231 0.0260142 0)
(0.0113507 0.0178047 0)
(0.0101481 0.00405884 0)
(0.00475363 -0.0195408 0)
(-0.00712088 -0.0585242 0)
(-0.0277397 -0.119 0)
(-0.0575937 -0.205577 0)
(-0.0928743 -0.316116 0)
(-0.117512 -0.428742 0)
(-0.110438 -0.469996 0)
(-0.0452538 -0.289128 0)
(-0.0190173 0.103718 0)
(-0.0506731 0.180241 0)
(-0.0702394 0.195923 0)
(-0.0735706 0.185499 0)
(-0.066053 0.166222 0)
(-0.0525056 0.145549 0)
(-0.0359177 0.126264 0)
(-0.0180883 0.109222 0)
(-0.000114388 0.0944841 0)
(0.0173518 0.0818423 0)
(0.0339342 0.0710296 0)
(0.0494285 0.0617966 0)
(0.0637421 0.0539293 0)
(0.0768583 0.0472485 0)
(0.0888123 0.0415994 0)
(0.0996722 0.0368336 0)
(0.109522 0.0327785 0)
(0.118435 0.0291844 0)
(0.126432 0.0256274 0)
(0.133391 0.0213652 0)
(0.138893 0.0151088 0)
(0.141899 0.00473209 0)
(0.140664 -0.0130604 0)
(0.132324 -0.042989 0)
(0.112869 -0.0908588 0)
(0.078037 -0.163751 0)
(0.0250962 -0.267601 0)
(-0.0342722 -0.396353 0)
(-0.0819221 -0.492327 0)
(-0.046257 -0.370188 0)
(-0.0339241 0.146627 0)
(-0.0712605 0.204251 0)
(-0.0664189 0.1985 0)
(-0.041429 0.173071 0)
(-0.0075044 0.145619 0)
(0.0287333 0.121338 0)
(0.0641165 0.101094 0)
(0.0972736 0.0845288 0)
(0.12764 0.0710202 0)
(0.155089 0.0599796 0)
(0.179707 0.050921 0)
(0.201678 0.0434621 0)
(0.221234 0.0373077 0)
(0.238622 0.0322286 0)
(0.254094 0.0280407 0)
(0.267892 0.0245828 0)
(0.280237 0.0216892 0)
(0.291309 0.0191504 0)
(0.301203 0.0166493 0)
(0.309859 0.0136619 0)
(0.316918 0.00930874 0)
(0.321357 0.00216949 0)
(0.321491 -0.00975694 0)
(0.314301 -0.0296219 0)
(0.294987 -0.0617623 0)
(0.25735 -0.112819 0)
(0.193492 -0.193085 0)
(0.105699 -0.315121 0)
(-0.0100831 -0.456469 0)
(-0.0237796 -0.432029 0)
(-0.0370984 0.236953 0)
(-0.0450745 0.206323 0)
(0.0325525 0.156131 0)
(0.105637 0.119564 0)
(0.173132 0.0917475 0)
(0.232558 0.0708817 0)
(0.283572 0.0555041 0)
(0.326997 0.0440936 0)
(0.363911 0.0354801 0)
(0.395336 0.0288727 0)
(0.422155 0.0237407 0)
(0.445116 0.0197162 0)
(0.464849 0.016538 0)
(0.481884 0.0140171 0)
(0.496673 0.0120116 0)
(0.509593 0.0104053 0)
(0.520952 0.00908789 0)
(0.530974 0.00793077 0)
(0.53976 0.00675489 0)
(0.54722 0.00528452 0)
(0.552945 0.00308823 0)
(0.556074 -0.00051873 0)
(0.555016 -0.00646267 0)
(0.546875 -0.0163312 0)
(0.526749 -0.0322726 0)
(0.488609 -0.0581763 0)
(0.420663 -0.101736 0)
(0.31935 -0.18781 0)
(0.135063 -0.337464 0)
(0.0577675 -0.414502 0)
(0.231306 0.158472 0)
(0.29224 0.117673 0)
(0.443339 0.0766066 0)
(0.543624 0.0512454 0)
(0.611618 0.0347064 0)
(0.661342 0.0236538 0)
(0.698886 0.0163571 0)
(0.727657 0.0115469 0)
(0.750064 0.00832991 0)
(0.76782 0.00613726 0)
(0.782109 0.00461719 0)
(0.793762 0.00354817 0)
(0.803386 0.00278752 0)
(0.811435 0.00224175 0)
(0.818254 0.0018476 0)
(0.824106 0.00155901 0)
(0.829181 0.00133714 0)
(0.833598 0.0011411 0)
(0.837381 0.000918375 0)
(0.840421 0.000595245 0)
(0.842403 7.11137e-05 0)
(0.842706 -0.000785145 0)
(0.840105 -0.00222565 0)
(0.832831 -0.00467075 0)
(0.817431 -0.00859528 0)
(0.790747 -0.0150941 0)
(0.73929 -0.025976 0)
(0.662389 -0.0496855 0)
(0.458067 -0.111645 0)
(0.314226 -0.178997 0)
)
;

boundaryField
{
    movingWall
    {
        type            fixedValue;
        value           uniform (1 0 0);
    }
    fixedWalls
    {
        type            noSlip;
    }
    frontAndBack
    {
        type            empty;
    }
}


// ************************************************************************* //
