/*--------------------------------*- C++ -*----------------------------------*\
  =========                 |
  \\      /  F ield         | OpenFOAM: The Open Source CFD Toolbox
   \\    /   O peration     | Website:  https://openfoam.org
    \\  /    A nd           | Version:  7
     \\/     M anipulation  |
\*---------------------------------------------------------------------------*/
FoamFile
{
    version     2.0;
    format      ascii;
    class       volVectorField;
    location    "1.22";
    object      U;
}
// * * * * * * * * * * * * * * * * * * * * * * * * * * * * * * * * * * * * * //

dimensions      [0 1 -1 0 0 0 0];

internalField   nonuniform List<vector> 
1936
(
(-14.9439 3.26646 0)
(-69.3968 192.019 0)
(-24.1081 413.062 0)
(-2.87075 422.034 0)
(-11.308 400.244 0)
(-6.67852 425.209 0)
(6.92547 436.329 0)
(22.4639 394.393 0)
(25.585 323.707 0)
(15.4363 280.547 0)
(-0.379025 277.545 0)
(-9.73928 303.853 0)
(-23.4485 398.319 0)
(-8.11467 495.428 0)
(33.7418 420.717 0)
(27.5798 273.133 0)
(1.87495 234.703 0)
(-8.11671 250.447 0)
(-31.4916 351.19 0)
(-14.9456 499.045 0)
(37.2071 442.021 0)
(30.0618 275.436 0)
(6.05117 229.193 0)
(-5.18567 243.57 0)
(-26.8576 329.695 0)
(-25.9643 480.011 0)
(24.6389 458.276 0)
(30.3233 294.428 0)
(1.02745 232.971 0)
(-7.96397 242.646 0)
(-33.2483 336.81 0)
(-17.104 491.862 0)
(32.0034 454.299 0)
(25.65 292.378 0)
(2.07667 235.785 0)
(-8.89988 239.588 0)
(-29.9737 311.378 0)
(-30.2565 475.007 0)
(25.0238 478.225 0)
(36.5324 307.803 0)
(9.59663 231.709 0)
(0.0439678 233.335 0)
(-26.3427 304.66 0)
(-26.7084 465.812 0)
(-16.7176 7.95199 0)
(-77.1002 0.335729 0)
(-27.8059 -4.11976 0)
(-5.07896 -2.09009 0)
(-12.9289 -0.60826 0)
(-7.251 -1.76432 0)
(6.70855 -2.53077 0)
(21.5863 -1.60023 0)
(22.8456 0.471785 0)
(12.3703 2.36335 0)
(1.00905 2.7495 0)
(-7.21608 1.71741 0)
(-24.6024 -0.837433 0)
(-8.95309 -3.9968 0)
(33.6781 -2.99999 0)
(23.3467 1.67896 0)
(0.489197 3.9298 0)
(-3.16245 2.88908 0)
(-30.7513 -0.63232 0)
(-16.1711 -4.59408 0)
(37.6473 -3.59917 0)
(25.4366 1.31207 0)
(3.38714 3.80612 0)
(-1.02942 3.17927 0)
(-27.1923 0.687688 0)
(-28.1676 -3.42683 0)
(25.0811 -4.27187 0)
(26.504 0.595161 0)
(-1.04838 3.90762 0)
(-2.66383 3.14587 0)
(-31.5016 -0.49585 0)
(-18.1989 -4.41591 0)
(33.1867 -3.20959 0)
(22.7452 1.25741 0)
(-0.893375 3.64615 0)
(-3.76437 3.24711 0)
(-27.6298 0.459039 0)
(-32.0297 -3.90693 0)
(25.7966 -4.82335 0)
(32.5238 -0.224857 0)
(4.95453 3.52915 0)
(3.872 3.72696 0)
(-24.0498 0.813998 0)
(-28.5231 -3.57699 0)
(-6.46517 16.5557 0)
(-71.361 1.31526 0)
(-30.1531 -8.89577 0)
(-7.08572 -4.47136 0)
(-11.6848 -1.27789 0)
(-7.09936 -3.69401 0)
(6.42341 -5.27179 0)
(21.273 -3.17761 0)
(21.862 1.24307 0)
(9.67664 4.79071 0)
(-1.75724 5.37163 0)
(-10.3155 3.74317 0)
(-26.3066 -1.66184 0)
(-6.36249 -8.82605 0)
(36.7398 -6.03498 0)
(23.5236 3.90956 0)
(0.660934 7.66231 0)
(-3.69479 6.03087 0)
(-32.7991 -0.762947 0)
(-16.1559 -10.0304 0)
(39.5391 -7.38994 0)
(24.8957 3.35637 0)
(0.84017 7.54998 0)
(-4.52706 6.49763 0)
(-30.5548 1.73947 0)
(-25.2122 -7.78243 0)
(30.4239 -8.9284 0)
(27.497 1.82902 0)
(-0.045256 7.66077 0)
(-2.09086 6.46875 0)
(-33.1136 -0.349662 0)
(-19.6546 -9.58831 0)
(34.5423 -6.89525 0)
(25.3755 3.07385 0)
(1.25317 7.16213 0)
(-2.37358 6.59038 0)
(-28.9482 1.63953 0)
(-31.3039 -8.44603 0)
(29.3079 -10.1446 0)
(32.5919 0.390301 0)
(1.94653 7.10227 0)
(0.291075 7.34883 0)
(-27.3295 2.21015 0)
(-30.2784 -7.869 0)
(3.15743 23.2146 0)
(-59.4442 3.25456 0)
(-27.0885 -12.1812 0)
(-11.187 -6.95538 0)
(-11.6353 -2.41327 0)
(-6.3118 -5.4557 0)
(4.02977 -7.5588 0)
(14.3304 -4.34603 0)
(13.3981 2.12933 0)
(3.25223 6.89283 0)
(-2.39779 7.46969 0)
(-6.53396 5.23443 0)
(-19.3147 -2.77975 0)
(-3.18805 -13.0361 0)
(29.014 -8.2577 0)
(13.8423 5.91369 0)
(-0.510356 10.6724 0)
(1.72993 8.66858 0)
(-23.3585 -0.877695 0)
(-12.381 -14.5571 0)
(30.8643 -10.3076 0)
(13.9575 5.33847 0)
(-2.95446 10.7454 0)
(-1.41812 9.17276 0)
(-22.8731 2.10377 0)
(-17.1229 -11.8509 0)
(26.1644 -12.4753 0)
(16.8002 3.10028 0)
(-1.60828 10.6145 0)
(3.52984 9.27082 0)
(-22.9077 -0.0391197 0)
(-15.9148 -13.8422 0)
(26.8026 -10.1026 0)
(17.3313 4.43018 0)
(-0.476958 10.0142 0)
(3.38416 9.49258 0)
(-19.2775 2.66946 0)
(-23.3068 -12.3199 0)
(24.5167 -14.2438 0)
(20.3666 1.39056 0)
(-4.37615 10.1773 0)
(1.69344 10.1811 0)
(-18.7595 3.15478 0)
(-24.4934 -11.5855 0)
(11.2988 28.3484 0)
(-48.4864 5.88498 0)
(-23.4007 -13.8808 0)
(-13.4549 -9.30283 0)
(-11.5611 -4.22217 0)
(-6.22173 -7.1657 0)
(0.839052 -9.21017 0)
(7.04345 -4.98912 0)
(5.55201 2.95842 0)
(-1.84123 8.31586 0)
(-2.36679 8.73183 0)
(-3.68869 5.95455 0)
(-13.2012 -3.96167 0)
(-0.426004 -15.9091 0)
(21.4447 -9.39987 0)
(5.87802 7.33283 0)
(-1.64717 12.4834 0)
(5.34055 10.3318 0)
(-15.7103 -0.931522 0)
(-8.84375 -17.3985 0)
(22.7241 -11.9365 0)
(5.4395 6.81376 0)
(-5.09604 12.793 0)
(1.98191 10.7963 0)
(-16.2954 1.94525 0)
(-9.52584 -14.79 0)
(21.5086 -14.3905 0)
(7.87202 4.10648 0)
(-3.35496 12.2628 0)
(6.79743 11.0098 0)
(-14.768 0.327164 0)
(-12.3215 -16.4549 0)
(19.5708 -12.2838 0)
(10.9155 5.17644 0)
(-2.76712 11.7392 0)
(7.34045 11.3862 0)
(-11.8203 3.4019 0)
(-15.7944 -14.8509 0)
(19.6868 -16.5051 0)
(10.5678 2.44276 0)
(-8.30061 12.1046 0)
(3.77044 11.759 0)
(-12.075 3.61231 0)
(-19.0877 -14.0161 0)
(17.711 31.7646 0)
(-36.7641 8.97329 0)
(-18.6636 -14.0345 0)
(-13.2981 -11.235 0)
(-11.2255 -6.37788 0)
(-6.69113 -8.6586 0)
(-2.7659 -10.1227 0)
(0.149269 -5.16548 0)
(-1.14707 3.51081 0)
(-5.13784 8.84343 0)
(-1.62776 9.07151 0)
(-0.994715 5.92893 0)
(-7.9002 -5.09217 0)
(1.52146 -17.2772 0)
(14.3162 -9.42321 0)
(-0.686954 8.06855 0)
(-2.46017 13.0825 0)
(7.60814 10.9527 0)
(-9.5819 -0.92156 0)
(-5.69635 -18.5024 0)
(15.4433 -12.2707 0)
(-1.08487 7.57623 0)
(-5.5588 13.5682 0)
(5.37824 11.344 0)
(-10.4572 1.41086 0)
(-3.31542 -16.3884 0)
(16.4088 -14.6123 0)
(0.6541 4.82065 0)
(-4.88822 12.6776 0)
(8.23678 11.5949 0)
(-8.49804 0.671976 0)
(-8.90652 -17.4318 0)
(13.1146 -13.3643 0)
(5.28415 5.38754 0)
(-4.88803 12.3542 0)
(9.22035 12.135 0)
(-6.00939 3.73372 0)
(-9.2486 -15.9686 0)
(14.8441 -16.9315 0)
(3.13138 3.36348 0)
(-9.80743 12.7698 0)
(6.00465 12.1813 0)
(-6.59653 3.73016 0)
(-14.1125 -15.1443 0)
(21.461 33.0426 0)
(-23.21 12.1303 0)
(-12.4339 -12.647 0)
(-10.799 -12.3803 0)
(-10.1183 -8.37892 0)
(-7.17372 -9.74204 0)
(-5.93391 -10.2872 0)
(-5.35742 -4.99064 0)
(-6.04578 3.55268 0)
(-6.62484 8.37582 0)
(-0.836318 8.47237 0)
(1.34666 5.26723 0)
(-3.53108 -6.00168 0)
(2.37117 -17.0774 0)
(7.97429 -8.40308 0)
(-5.49517 8.05596 0)
(-2.63196 12.5044 0)
(8.38404 10.5711 0)
(-4.75101 -0.892682 0)
(-2.9963 -17.9184 0)
(9.26279 -11.4218 0)
(-5.51774 7.54066 0)
(-4.74294 13.0402 0)
(7.40275 10.8968 0)
(-5.54695 0.657718 0)
(0.86241 -16.4806 0)
(11.1291 -13.2708 0)
(-4.51684 5.15093 0)
(-5.30395 11.9919 0)
(8.06728 11.0932 0)
(-3.89081 0.878108 0)
(-5.63013 -16.8977 0)
(7.65029 -13.27 0)
(0.355746 5.12268 0)
(-5.73596 11.9357 0)
(8.89443 11.7458 0)
(-1.60008 3.53852 0)
(-4.00627 -15.6389 0)
(10.0474 -15.7159 0)
(-1.99025 3.92254 0)
(-9.04611 12.2419 0)
(6.91346 11.6297 0)
(-2.20126 3.5608 0)
(-9.55473 -14.9775 0)
(21.9414 31.7589 0)
(-8.42757 14.7132 0)
(-4.87295 -9.75966 0)
(-6.41667 -12.3272 0)
(-7.76589 -9.69402 0)
(-6.90817 -10.2046 0)
(-7.69639 -9.78935 0)
(-8.58509 -4.63417 0)
(-8.64423 2.96586 0)
(-6.65102 7.04646 0)
(-0.254723 7.11998 0)
(2.95276 4.05808 0)
(-0.283285 -6.48411 0)
(2.06462 -15.4454 0)
(2.80155 -6.69724 0)
(-8.03285 7.37919 0)
(-2.31949 10.9122 0)
(7.98829 9.38033 0)
(-0.976674 -0.926952 0)
(-0.831433 -15.8585 0)
(4.34086 -9.65872 0)
(-7.78287 6.81023 0)
(-3.46591 11.4068 0)
(7.75305 9.6699 0)
(-1.68765 -0.142722 0)
(2.83953 -15.1073 0)
(6.07882 -10.8323 0)
(-7.44726 5.05218 0)
(-4.57507 10.4295 0)
(7.01256 9.74577 0)
(-0.606864 0.797632 0)
(-2.56062 -15.0608 0)
(3.37186 -12.0115 0)
(-3.55337 4.47112 0)
(-5.29599 10.5973 0)
(7.38883 10.392 0)
(1.54212 2.84661 0)
(-0.286615 -13.9948 0)
(5.52251 -13.2345 0)
(-5.08319 3.98105 0)
(-7.06189 10.7687 0)
(6.44596 10.2914 0)
(1.18151 3.11474 0)
(-5.48152 -13.6108 0)
(18.486 27.9329 0)
(4.21915 15.9361 0)
(2.88275 -5.74283 0)
(-0.965746 -10.8274 0)
(-4.17214 -9.89737 0)
(-5.45257 -9.87656 0)
(-7.63015 -8.77427 0)
(-9.27955 -4.23996 0)
(-8.93345 1.86103 0)
(-5.73182 5.14771 0)
(0.125193 5.2916 0)
(3.58053 2.46207 0)
(1.63074 -6.33814 0)
(0.875628 -12.7276 0)
(-0.993378 -4.80087 0)
(-8.31294 6.16973 0)
(-1.82724 8.63847 0)
(6.82429 7.63268 0)
(1.71958 -1.0185 0)
(0.598323 -12.7268 0)
(0.837415 -7.33299 0)
(-7.97289 5.5974 0)
(-2.31808 9.04798 0)
(6.92907 7.89868 0)
(1.16398 -0.796378 0)
(3.09769 -12.5195 0)
(2.03412 -7.93881 0)
(-8.00208 4.48618 0)
(-3.30332 8.30816 0)
(5.79707 7.89386 0)
(1.72204 0.42163 0)
(-0.0729767 -12.274 0)
(0.473284 -9.77413 0)
(-5.80066 3.49657 0)
(-4.22791 8.57674 0)
(5.73252 8.40017 0)
(3.50184 1.84865 0)
(1.81592 -11.3297 0)
(1.81087 -9.99663 0)
(-6.43547 3.5378 0)
(-4.99417 8.68437 0)
(5.35061 8.42984 0)
(3.52427 2.38928 0)
(-2.15581 -11.2788 0)
(12.3517 22.4389 0)
(11.0252 15.2355 0)
(8.66872 -1.5791 0)
(4.14711 -8.07667 0)
(-0.138412 -8.81922 0)
(-3.07529 -8.72508 0)
(-6.05096 -7.40159 0)
(-7.95385 -3.837 0)
(-7.54552 0.569658 0)
(-4.42133 3.03803 0)
(0.264174 3.26183 0)
(3.23053 0.874236 0)
(2.13771 -5.55639 0)
(-0.498727 -9.46814 0)
(-3.30316 -3.14269 0)
(-7.13367 4.57725 0)
(-1.44822 6.1657 0)
(5.15821 5.52065 0)
(3.04541 -1.02423 0)
(1.06131 -9.09347 0)
(-1.28714 -4.89598 0)
(-6.6634 4.13311 0)
(-1.49981 6.48942 0)
(5.45481 5.76421 0)
(2.84741 -1.0917 0)
(2.41004 -9.19868 0)
(-0.571002 -5.1646 0)
(-6.74829 3.49831 0)
(-2.13102 6.01965 0)
(4.55844 5.80067 0)
(3.08147 -0.0347497 0)
(1.28534 -9.01413 0)
(-1.11492 -7.02617 0)
(-6.00996 2.36184 0)
(-3.1117 6.22183 0)
(4.19717 6.10264 0)
(4.19599 0.881636 0)
(2.38332 -8.11519 0)
(-0.461649 -6.62002 0)
(-6.12899 2.7302 0)
(-3.33913 6.37033 0)
(4.1972 6.28774 0)
(4.563 1.51186 0)
(0.0517795 -8.35365 0)
(6.65974 16.6463 0)
(11.5375 12.8738 0)
(10.7619 1.49549 0)
(7.24661 -4.82755 0)
(3.0087 -6.70648 0)
(-0.577211 -6.89046 0)
(-3.70409 -5.82529 0)
(-5.55863 -3.39533 0)
(-5.38494 -0.55584 0)
(-3.0924 1.12898 0)
(0.180303 1.36667 0)
(2.29167 -0.368551 0)
(1.59198 -4.35345 0)
(-1.43918 -6.28789 0)
(-4.08733 -1.96678 0)
(-5.37004 2.87164 0)
(-1.25094 3.89912 0)
(3.22994 3.38882 0)
(2.90802 -0.891612 0)
(0.741326 -5.62032 0)
(-2.16781 -2.79668 0)
(-4.71701 2.6805 0)
(-0.972327 4.17842 0)
(3.69102 3.61924 0)
(3.08832 -1.01417 0)
(1.42151 -5.81204 0)
(-1.71581 -2.93349 0)
(-4.7224 2.36408 0)
(-1.2975 3.91675 0)
(3.21068 3.70207 0)
(3.25456 -0.344415 0)
(1.45627 -5.81544 0)
(-1.69116 -4.37988 0)
(-4.73869 1.36448 0)
(-2.15107 3.9325 0)
(2.72484 3.84244 0)
(3.62661 0.23555 0)
(1.87599 -4.98527 0)
(-1.37411 -3.7114 0)
(-4.67488 1.84132 0)
(-2.05307 4.17594 0)
(3.04246 4.12093 0)
(4.2135 0.766592 0)
(1.05168 -5.37369 0)
(3.41126 11.585 0)
(8.54614 9.83317 0)
(9.46626 3.01021 0)
(7.59764 -2.01946 0)
(4.3506 -4.2038 0)
(1.20793 -4.74894 0)
(-1.43909 -4.22201 0)
(-3.02484 -2.87535 0)
(-3.15855 -1.29584 0)
(-1.84463 -0.264478 0)
(0.105652 -0.0924815 0)
(1.33053 -1.10827 0)
(0.740462 -3.08141 0)
(-1.63954 -3.73773 0)
(-3.54007 -1.25854 0)
(-3.64548 1.40249 0)
(-1.14834 2.05876 0)
(1.47007 1.66533 0)
(1.79222 -0.660694 0)
(0.147103 -2.90786 0)
(-2.05501 -1.31316 0)
(-2.91841 1.50465 0)
(-0.671538 2.34474 0)
(2.01144 1.88465 0)
(2.18788 -0.717384 0)
(0.581078 -3.04151 0)
(-1.71659 -1.3992 0)
(-2.83598 1.37646 0)
(-0.772001 2.23695 0)
(1.88166 1.94597 0)
(2.40373 -0.433927 0)
(0.965253 -3.20304 0)
(-1.5386 -2.3198 0)
(-3.0623 0.666383 0)
(-1.40643 2.11424 0)
(1.41218 2.00127 0)
(2.31633 -0.0503268 0)
(1.03429 -2.51643 0)
(-1.33887 -1.65176 0)
(-2.91011 1.13464 0)
(-1.11417 2.39007 0)
(1.92315 2.29993 0)
(2.96773 0.29235 0)
(1.11418 -2.90035 0)
(2.00696 7.84581 0)
(5.08954 6.99868 0)
(6.43788 3.26352 0)
(5.81061 -0.120828 0)
(3.94692 -2.01765 0)
(1.89049 -2.79378 0)
(0.0952088 -2.80634 0)
(-1.03746 -2.31199 0)
(-1.29485 -1.63735 0)
(-0.740358 -1.12012 0)
(0.152305 -0.997809 0)
(0.652912 -1.38175 0)
(0.137384 -2.04789 0)
(-1.29773 -2.0566 0)
(-2.37735 -0.855808 0)
(-2.27108 0.403445 0)
(-1.01248 0.785689 0)
(0.296963 0.557119 0)
(0.612012 -0.437255 0)
(-0.2878 -1.22805 0)
(-1.46574 -0.486656 0)
(-1.65318 0.716045 0)
(-0.528791 1.10175 0)
(0.77108 0.777141 0)
(1.00309 -0.405096 0)
(0.0369628 -1.2639 0)
(-1.20264 -0.508942 0)
(-1.51397 0.69082 0)
(-0.464638 1.07369 0)
(0.86033 0.788743 0)
(1.2492 -0.359877 0)
(0.375609 -1.46792 0)
(-1.06451 -1.02045 0)
(-1.7111 0.261795 0)
(-0.879386 0.925311 0)
(0.492851 0.809713 0)
(1.04397 -0.101848 0)
(0.35998 -0.971163 0)
(-0.894887 -0.483251 0)
(-1.50847 0.662916 0)
(-0.532044 1.17789 0)
(1.02144 1.06342 0)
(1.62657 0.0748842 0)
(0.732913 -1.25443 0)
(1.22956 5.4423 0)
(2.66919 4.90649 0)
(3.65244 2.85987 0)
(3.59578 0.854372 0)
(2.77601 -0.55452 0)
(1.7357 -1.38161 0)
(0.760832 -1.74604 0)
(0.0978707 -1.79628 0)
(-0.146138 -1.67342 0)
(-0.0275996 -1.51364 0)
(0.216495 -1.38288 0)
(0.263229 -1.35553 0)
(-0.106311 -1.36474 0)
(-0.795656 -1.14551 0)
(-1.30708 -0.625537 0)
(-1.27324 -0.118583 0)
(-0.757934 0.0717711 0)
(-0.212215 0.0027845 0)
(-0.0497228 -0.277231 0)
(-0.404847 -0.426367 0)
(-0.860776 -0.130555 0)
(-0.881116 0.28138 0)
(-0.427616 0.404231 0)
(0.087645 0.234134 0)
(0.205961 -0.174127 0)
(-0.192389 -0.392124 0)
(-0.684679 -0.102672 0)
(-0.742083 0.298031 0)
(-0.290467 0.399741 0)
(0.256161 0.206251 0)
(0.416339 -0.22879 0)
(0.0162584 -0.549594 0)
(-0.602593 -0.362354 0)
(-0.850681 0.0661181 0)
(-0.523756 0.286902 0)
(0.0183365 0.211003 0)
(0.260999 -0.0684673 0)
(0.00903232 -0.232385 0)
(-0.465292 0.0132108 0)
(-0.652598 0.373317 0)
(-0.216831 0.4978 0)
(0.449188 0.400444 0)
(0.70094 0.0289147 0)
(0.348433 -0.387005 0)
(0.754611 3.87657 0)
(1.53882 3.59813 0)
(2.11118 2.41023 0)
(2.20355 1.19914 0)
(1.89144 0.199341 0)
(1.39555 -0.545833 0)
(0.90935 -1.05649 0)
(0.536074 -1.36882 0)
(0.31854 -1.50992 0)
(0.222447 -1.50652 0)
(0.161057 -1.3843 0)
(0.0439326 -1.19755 0)
(-0.160948 -0.984353 0)
(-0.41694 -0.750394 0)
(-0.601309 -0.514512 0)
(-0.605504 -0.329964 0)
(-0.449625 -0.237737 0)
(-0.282929 -0.208479 0)
(-0.232803 -0.19306 0)
(-0.325334 -0.139767 0)
(-0.443275 -0.0167319 0)
(-0.437558 0.0846023 0)
(-0.295997 0.0990521 0)
(-0.139873 0.0395057 0)
(-0.105204 -0.0417859 0)
(-0.214121 -0.0617572 0)
(-0.337478 0.0255586 0)
(-0.330163 0.105168 0)
(-0.178346 0.0886425 0)
(-0.00728146 -0.00806285 0)
(0.0333728 -0.124048 0)
(-0.101097 -0.170116 0)
(-0.297156 -0.107458 0)
(-0.373681 -0.0179087 0)
(-0.282553 0.00942957 0)
(-0.127827 -0.0207903 0)
(-0.045214 -0.0406819 0)
(-0.0950108 0.0098914 0)
(-0.202222 0.13298 0)
(-0.224548 0.207513 0)
(-0.0600758 0.188668 0)
(0.167815 0.131803 0)
(0.237569 0.0506382 0)
(0.123703 -0.0233678 0)
(0.486123 2.77146 0)
(1.07301 2.7086 0)
(1.50476 2.01946 0)
(1.61518 1.27292 0)
(1.51433 0.54461 0)
(1.26904 -0.089267 0)
(0.964129 -0.607185 0)
(0.684989 -0.991896 0)
(0.450451 -1.22353 0)
(0.25811 -1.28873 0)
(0.0936012 -1.20111 0)
(-0.0440524 -1.01647 0)
(-0.146576 -0.80227 0)
(-0.21853 -0.616063 0)
(-0.258233 -0.482967 0)
(-0.259491 -0.397186 0)
(-0.23064 -0.334251 0)
(-0.201157 -0.264928 0)
(-0.188982 -0.174928 0)
(-0.194998 -0.0831859 0)
(-0.205729 -0.0167203 0)
(-0.192558 0.00798801 0)
(-0.156234 0.00235939 0)
(-0.125493 -0.0067766 0)
(-0.118695 0.000571813 0)
(-0.132171 0.0228072 0)
(-0.141193 0.0371134 0)
(-0.124714 0.0212552 0)
(-0.0894569 -0.0194138 0)
(-0.0610003 -0.0578704 0)
(-0.0595426 -0.0695843 0)
(-0.0879095 -0.0562048 0)
(-0.126955 -0.0404058 0)
(-0.145236 -0.0459673 0)
(-0.132836 -0.0710073 0)
(-0.106872 -0.0739611 0)
(-0.0899061 -0.0320593 0)
(-0.0828109 0.0419668 0)
(-0.0734036 0.108303 0)
(-0.0509388 0.114928 0)
(-0.000874191 0.0816471 0)
(0.0536113 0.0622272 0)
(0.064469 0.0729069 0)
(0.0339492 0.0854711 0)
(0.310567 1.93455 0)
(0.754794 1.99724 0)
(1.13183 1.6237 0)
(1.29707 1.17193 0)
(1.30159 0.681882 0)
(1.19659 0.181969 0)
(1.00959 -0.265818 0)
(0.777202 -0.629885 0)
(0.540944 -0.872596 0)
(0.325453 -0.975814 0)
(0.142161 -0.9514 0)
(0.00428666 -0.839302 0)
(-0.0760816 -0.697459 0)
(-0.11091 -0.570301 0)
(-0.121717 -0.476597 0)
(-0.124737 -0.408247 0)
(-0.126556 -0.343917 0)
(-0.126852 -0.267813 0)
(-0.120865 -0.180747 0)
(-0.105046 -0.102703 0)
(-0.0855493 -0.0511175 0)
(-0.0695987 -0.027673 0)
(-0.0588091 -0.0214674 0)
(-0.0533405 -0.0130704 0)
(-0.0498045 0.00284538 0)
(-0.04213 0.0160226 0)
(-0.0299171 0.0115402 0)
(-0.0194551 -0.0113307 0)
(-0.0175701 -0.0396459 0)
(-0.0236056 -0.052828 0)
(-0.0300439 -0.0468679 0)
(-0.0321847 -0.034823 0)
(-0.0333771 -0.0340729 0)
(-0.0378637 -0.0496212 0)
(-0.045029 -0.0667645 0)
(-0.0531305 -0.0620848 0)
(-0.0570353 -0.028012 0)
(-0.0467569 0.0229777 0)
(-0.0265938 0.0614511 0)
(-0.00940631 0.0670442 0)
(0.00268047 0.0567954 0)
(0.00797802 0.060612 0)
(0.00643426 0.0838948 0)
(0.00246442 0.0953965 0)
(0.186526 1.3117 0)
(0.481245 1.41174 0)
(0.768849 1.22414 0)
(0.947241 0.967507 0)
(1.02447 0.65821 0)
(1.01264 0.318956 0)
(0.924574 -0.0206226 0)
(0.779091 -0.314227 0)
(0.604023 -0.530729 0)
(0.424369 -0.652572 0)
(0.264492 -0.686728 0)
(0.136269 -0.654098 0)
(0.0461954 -0.587944 0)
(-0.00613808 -0.516244 0)
(-0.0353409 -0.451081 0)
(-0.0543087 -0.391265 0)
(-0.0678681 -0.329522 0)
(-0.0743008 -0.261925 0)
(-0.0702669 -0.192431 0)
(-0.0562301 -0.130603 0)
(-0.03816 -0.0850578 0)
(-0.0228 -0.0557117 0)
(-0.0126858 -0.0366404 0)
(-0.00540855 -0.0215782 0)
(0.00318397 -0.00961227 0)
(0.0135538 -0.00364227 0)
(0.0245469 -0.00821979 0)
(0.0312778 -0.0206977 0)
(0.0288914 -0.0334117 0)
(0.0214751 -0.0385191 0)
(0.0155567 -0.0360526 0)
(0.0138393 -0.0324941 0)
(0.0124002 -0.0349543 0)
(0.00734942 -0.0426725 0)
(-0.00320097 -0.0478657 0)
(-0.0173729 -0.0414356 0)
(-0.0259517 -0.0206993 0)
(-0.0238903 0.00826752 0)
(-0.0164365 0.0323799 0)
(-0.0109181 0.045414 0)
(-0.00937832 0.0529144 0)
(-0.010373 0.0650039 0)
(-0.00899387 0.0828616 0)
(-0.00428274 0.0855777 0)
(0.10658 0.872565 0)
(0.282971 0.962791 0)
(0.472046 0.869613 0)
(0.612993 0.729226 0)
(0.70386 0.546418 0)
(0.739621 0.333433 0)
(0.724108 0.109698 0)
(0.662668 -0.0974164 0)
(0.566662 -0.266435 0)
(0.453671 -0.382914 0)
(0.340631 -0.445482 0)
(0.240924 -0.465105 0)
(0.159039 -0.453691 0)
(0.0961537 -0.425854 0)
(0.0507276 -0.389496 0)
(0.0171726 -0.347192 0)
(-0.00690555 -0.299448 0)
(-0.0214052 -0.247881 0)
(-0.026011 -0.196263 0)
(-0.0221368 -0.149238 0)
(-0.0133864 -0.110001 0)
(-0.00372771 -0.0792086 0)
(0.00485258 -0.0556275 0)
(0.0131293 -0.0378977 0)
(0.022575 -0.0260624 0)
(0.0322747 -0.0206882 0)
(0.0398507 -0.0203775 0)
(0.0432236 -0.0238081 0)
(0.041795 -0.0273105 0)
(0.0375745 -0.0285376 0)
(0.0331342 -0.0280113 0)
(0.0295649 -0.0275211 0)
(0.025461 -0.0286435 0)
(0.018522 -0.0297508 0)
(0.00822705 -0.0285572 0)
(-0.00264689 -0.021675 0)
(-0.01072 -0.00852622 0)
(-0.0146402 0.00788185 0)
(-0.015378 0.0241527 0)
(-0.0154287 0.0381429 0)
(-0.0155214 0.0505352 0)
(-0.0145792 0.0628839 0)
(-0.0107411 0.0745233 0)
(-0.00384742 0.0716484 0)
(0.0607411 0.573587 0)
(0.163556 0.640586 0)
(0.278817 0.591291 0)
(0.372893 0.513791 0)
(0.444966 0.409326 0)
(0.488821 0.283976 0)
(0.502436 0.148213 0)
(0.485296 0.0142679 0)
(0.443687 -0.103396 0)
(0.387284 -0.196439 0)
(0.323386 -0.261179 0)
(0.259362 -0.2994 0)
(0.200402 -0.316343 0)
(0.148976 -0.316173 0)
(0.10579 -0.30366 0)
(0.0705775 -0.281633 0)
(0.0431053 -0.252515 0)
(0.0233918 -0.218977 0)
(0.0112407 -0.184005 0)
(0.00570801 -0.150307 0)
(0.00497527 -0.119753 0)
(0.00705617 -0.0932643 0)
(0.0108911 -0.0711474 0)
(0.0156829 -0.0535945 0)
(0.0205535 -0.040852 0)
(0.0252093 -0.0327734 0)
(0.0289062 -0.0282002 0)
(0.0305123 -0.025707 0)
(0.0297825 -0.0238924 0)
(0.0273729 -0.0220406 0)
(0.0241712 -0.0202281 0)
(0.0205285 -0.0187005 0)
(0.0161536 -0.0173048 0)
(0.0107378 -0.0152227 0)
(0.00441305 -0.0113506 0)
(-0.00236619 -0.00490513 0)
(-0.00851507 0.0037522 0)
(-0.0128187 0.0141079 0)
(-0.0151407 0.0251742 0)
(-0.015968 0.0361245 0)
(-0.0154005 0.0464899 0)
(-0.0129615 0.0557789 0)
(-0.0088813 0.0630872 0)
(-0.00244613 0.0584306 0)
(0.0351402 0.371184 0)
(0.0960309 0.416644 0)
(0.164673 0.388586 0)
(0.222929 0.344564 0)
(0.270834 0.285209 0)
(0.304374 0.213448 0)
(0.322194 0.134102 0)
(0.324685 0.0532972 0)
(0.312092 -0.02213 0)
(0.286997 -0.0873481 0)
(0.254475 -0.139308 0)
(0.218216 -0.177076 0)
(0.181281 -0.201356 0)
(0.145931 -0.213616 0)
(0.113657 -0.215522 0)
(0.085242 -0.20884 0)
(0.0611727 -0.195436 0)
(0.041894 -0.177324 0)
(0.0274583 -0.156523 0)
(0.0174488 -0.134823 0)
(0.0110948 -0.113609 0)
(0.00751616 -0.0938246 0)
(0.00608423 -0.0761415 0)
(0.00616076 -0.061057 0)
(0.00703421 -0.0487819 0)
(0.00810788 -0.0391607 0)
(0.00883739 -0.0318489 0)
(0.00887477 -0.0261635 0)
(0.00809804 -0.0214768 0)
(0.00660322 -0.0174124 0)
(0.00455431 -0.0138147 0)
(0.0021538 -0.0105706 0)
(-0.000553773 -0.00736158 0)
(-0.00371314 -0.00373901 0)
(-0.00728442 0.000655395 0)
(-0.0108143 0.00598188 0)
(-0.0137127 0.0122305 0)
(-0.0155979 0.0191728 0)
(-0.0163106 0.026482 0)
(-0.0158424 0.0337912 0)
(-0.0141364 0.0406796 0)
(-0.0109774 0.0466355 0)
(-0.00709666 0.051061 0)
(-0.00172636 0.0463552 0)
(0.0205624 0.232948 0)
(0.0575779 0.262047 0)
(0.0986293 0.245716 0)
(0.134316 0.220584 0)
(0.164821 0.187167 0)
(0.187929 0.146946 0)
(0.202886 0.102146 0)
(0.209442 0.0555526 0)
(0.207576 0.0097856 0)
(0.19818 -0.0318904 0)
(0.183118 -0.0678159 0)
(0.164065 -0.0968221 0)
(0.142662 -0.118446 0)
(0.120385 -0.13278 0)
(0.0984434 -0.140292 0)
(0.0777682 -0.141748 0)
(0.0590558 -0.138076 0)
(0.0428105 -0.130402 0)
(0.0292715 -0.119896 0)
(0.0183372 -0.107652 0)
(0.00975139 -0.0946078 0)
(0.00332694 -0.0815232 0)
(-0.00124436 -0.0689904 0)
(-0.00440355 -0.0574579 0)
(-0.00653529 -0.0472166 0)
(-0.00799397 -0.0383505 0)
(-0.00909441 -0.0307744 0)
(-0.0100767 -0.0242867 0)
(-0.0110812 -0.0186656 0)
(-0.0121573 -0.0137256 0)
(-0.013314 -0.00931716 0)
(-0.0145568 -0.00527467 0)
(-0.0158734 -0.00145046 0)
(-0.0171645 0.00238888 0)
(-0.0182698 0.0064017 0)
(-0.0190381 0.0106568 0)
(-0.0193125 0.0151415 0)
(-0.0189502 0.0197679 0)
(-0.0178655 0.0244066 0)
(-0.016029 0.0288874 0)
(-0.0134048 0.0329902 0)
(-0.00990226 0.0364527 0)
(-0.0060649 0.0389778 0)
(-0.00158268 0.0349139 0)
(0.0128809 0.140411 0)
(0.037426 0.158007 0)
(0.0638813 0.148611 0)
(0.0873719 0.134416 0)
(0.107983 0.115798 0)
(0.124415 0.0935325 0)
(0.136188 0.0686593 0)
(0.143091 0.0424404 0)
(0.145605 0.0161973 0)
(0.143641 -0.00877873 0)
(0.137267 -0.0313234 0)
(0.127572 -0.0506308 0)
(0.115501 -0.0661844 0)
(0.101901 -0.0777519 0)
(0.0875526 -0.0853498 0)
(0.0731399 -0.0892033 0)
(0.0592341 -0.0897046 0)
(0.0462786 -0.0873722 0)
(0.0345776 -0.0827991 0)
(0.02429 -0.0765824 0)
(0.0154513 -0.0692719 0)
(0.00802508 -0.0613762 0)
(0.00192606 -0.0533192 0)
(-0.00303138 -0.0454372 0)
(-0.00705497 -0.0379807 0)
(-0.0102743 -0.0311071 0)
(-0.0128514 -0.0248759 0)
(-0.0149461 -0.0192801 0)
(-0.01665 -0.014271 0)
(-0.0180369 -0.00978179 0)
(-0.0191717 -0.00573797 0)
(-0.0201241 -0.00205312 0)
(-0.0208198 0.00136878 0)
(-0.0211589 0.00460587 0)
(-0.0211456 0.00773449 0)
(-0.020754 0.0108004 0)
(-0.0199374 0.013811 0)
(-0.018649 0.0167409 0)
(-0.0168651 0.0195401 0)
(-0.0145912 0.0221368 0)
(-0.011824 0.024438 0)
(-0.008538 0.0263339 0)
(-0.00505734 0.0276949 0)
(-0.0014406 0.0245843 0)
(0.00912942 0.0815828 0)
(0.0277775 0.0916725 0)
(0.0472453 0.0862626 0)
(0.064967 0.0781998 0)
(0.0808646 0.067728 0)
(0.0941313 0.0552625 0)
(0.104475 0.0413311 0)
(0.111651 0.0265699 0)
(0.115658 0.0116565 0)
(0.116583 -0.00288543 0)
(0.114593 -0.0163265 0)
(0.110051 -0.0281744 0)
(0.103425 -0.0380756 0)
(0.0952073 -0.0458126 0)
(0.0858865 -0.0513039 0)
(0.0759252 -0.0545927 0)
(0.0657406 -0.0558288 0)
(0.0556878 -0.0552463 0)
(0.046049 -0.0531359 0)
(0.0370298 -0.0498174 0)
(0.0287654 -0.0456126 0)
(0.0213302 -0.040827 0)
(0.0147492 -0.035737 0)
(0.00898565 -0.0305587 0)
(0.0039796 -0.0254973 0)
(-0.000303924 -0.0206776 0)
(-0.00394443 -0.0161881 0)
(-0.00702109 -0.012073 0)
(-0.0095782 -0.0083423 0)
(-0.0116789 -0.00498267 0)
(-0.0133729 -0.00196676 0)
(-0.0146491 0.000746389 0)
(-0.0155181 0.00321368 0)
(-0.0160137 0.00546882 0)
(-0.0161279 0.00755555 0)
(-0.0158563 0.00950624 0)
(-0.0151953 0.0113379 0)
(-0.0141436 0.0130516 0)
(-0.0127108 0.0146342 0)
(-0.0109222 0.0160614 0)
(-0.00879307 0.017299 0)
(-0.00633007 0.0183045 0)
(-0.00372035 0.01902 0)
(-0.00111572 0.0167889 0)
(0.00708596 0.0430318 0)
(0.0224881 0.0481404 0)
(0.0380447 0.0450574 0)
(0.0525097 0.0405452 0)
(0.0657193 0.0347471 0)
(0.0770965 0.0278776 0)
(0.0864358 0.0202151 0)
(0.0935221 0.0120872 0)
(0.0982635 0.00381709 0)
(0.100691 -0.00422104 0)
(0.100926 -0.0117028 0)
(0.0991558 -0.0183395 0)
(0.0956214 -0.0239126 0)
(0.0906127 -0.0282766 0)
(0.0844419 -0.0313601 0)
(0.0774248 -0.0331642 0)
(0.0698647 -0.033754 0)
(0.0620382 -0.0332467 0)
(0.0541835 -0.0317965 0)
(0.0464953 -0.0295826 0)
(0.0391268 -0.0267951 0)
(0.0321994 -0.0236174 0)
(0.0258239 -0.0202224 0)
(0.0199754 -0.0167671 0)
(0.0146618 -0.0133742 0)
(0.00994038 -0.010126 0)
(0.00576487 -0.00710609 0)
(0.00213123 -0.0043547 0)
(-0.0009707 -0.00188977 0)
(-0.00358422 0.000287299 0)
(-0.00572356 0.00219332 0)
(-0.0074244 0.00385331 0)
(-0.0087297 0.00530019 0)
(-0.00963963 0.00656806 0)
(-0.0101595 0.00768993 0)
(-0.0103022 0.0086942 0)
(-0.0100834 0.0096022 0)
(-0.00952067 0.0104274 0)
(-0.00863814 0.0111748 0)
(-0.00747045 0.0118417 0)
(-0.0060429 0.0124198 0)
(-0.00438124 0.0128951 0)
(-0.00258979 0.0132402 0)
(-0.000799698 0.0116353 0)
(0.00567601 0.0160508 0)
(0.0185304 0.0176999 0)
(0.0310286 0.0160964 0)
(0.0427492 0.0138341 0)
(0.0536131 0.0109806 0)
(0.063128 0.00762859 0)
(0.0711543 0.00390858 0)
(0.0774427 -9.89272e-06 0)
(0.0819616 -0.00389819 0)
(0.0847647 -0.00761689 0)
(0.0858224 -0.0110055 0)
(0.0852278 -0.0139151 0)
(0.0831377 -0.0162323 0)
(0.0797452 -0.0178817 0)
(0.075267 -0.0188272 0)
(0.0699317 -0.0190728 0)
(0.0639693 -0.0186607 0)
(0.0576006 -0.0176629 0)
(0.0510251 -0.0161637 0)
(0.044415 -0.0142688 0)
(0.037928 -0.012116 0)
(0.0316916 -0.00978914 0)
(0.0258007 -0.00739673 0)
(0.0203354 -0.00505275 0)
(0.0153317 -0.00279769 0)
(0.0107856 -0.00073327 0)
(0.00670818 0.0011161 0)
(0.00311347 0.00272701 0)
(3.47514e-07 0.00409553 0)
(-0.00262967 0.00521567 0)
(-0.00478844 0.00611096 0)
(-0.0065033 0.00680656 0)
(-0.00779651 0.00733216 0)
(-0.00868297 0.0077208 0)
(-0.00917893 0.00800616 0)
(-0.00930511 0.00821931 0)
(-0.00908515 0.00838555 0)
(-0.0085454 0.00852543 0)
(-0.00771754 0.00865324 0)
(-0.00664147 0.00877685 0)
(-0.00534846 0.00889897 0)
(-0.00387217 0.00901992 0)
(-0.00228594 0.00912874 0)
(-0.000699301 0.00799358 0)
(0.00418214 -0.00253576 0)
(0.0141368 -0.00318608 0)
(0.0232161 -0.00378477 0)
(0.0318648 -0.00452794 0)
(0.0400968 -0.00541339 0)
(0.0473183 -0.00641766 0)
(0.0532897 -0.00748543 0)
(0.0579761 -0.00853662 0)
(0.061269 -0.00945935 0)
(0.0630502 -0.0102168 0)
(0.063411 -0.0107465 0)
(0.0624401 -0.0109965 0)
(0.0602397 -0.0109319 0)
(0.0569449 -0.0105367 0)
(0.0527341 -0.00980589 0)
(0.0478036 -0.00875745 0)
(0.0423319 -0.00744194 0)
(0.0365086 -0.005946 0)
(0.0305233 -0.00428648 0)
(0.0245095 -0.00252829 0)
(0.0186507 -0.000708512 0)
(0.0130953 0.00106016 0)
(0.00788124 0.00272156 0)
(0.00304577 0.00422912 0)
(-0.00137039 0.00554865 0)
(-0.00528438 0.00663802 0)
(-0.00864051 0.0074929 0)
(-0.0114475 0.0081093 0)
(-0.0137486 0.0084963 0)
(-0.015553 0.00867461 0)
(-0.0168489 0.00866685 0)
(-0.0176656 0.00850349 0)
(-0.0180306 0.00821897 0)
(-0.0179695 0.0078484 0)
(-0.0175051 0.0074278 0)
(-0.016661 0.00699347 0)
(-0.0154726 0.00657189 0)
(-0.0139815 0.00619044 0)
(-0.012226 0.00586827 0)
(-0.0102496 0.00561823 0)
(-0.00808509 0.00544321 0)
(-0.00575974 0.00534893 0)
(-0.00334389 0.00532169 0)
(-0.00100196 0.00464247 0)
(0.0023725 -0.013574 0)
(0.00882229 -0.0154775 0)
(0.0138432 -0.0154459 0)
(0.0186999 -0.0152016 0)
(0.0233008 -0.0147787 0)
(0.0271048 -0.0141892 0)
(0.0299466 -0.0134215 0)
(0.0317183 -0.0124656 0)
(0.0323504 -0.01137 0)
(0.03181 -0.0100985 0)
(0.0301213 -0.00866041 0)
(0.027368 -0.00707614 0)
(0.0236732 -0.00537067 0)
(0.0191434 -0.00357401 0)
(0.0139537 -0.00172708 0)
(0.0082905 0.00013276 0)
(0.00226279 0.00196942 0)
(-0.00391299 0.00378514 0)
(-0.00996683 0.00548953 0)
(-0.0157543 0.00703561 0)
(-0.0212641 0.00841403 0)
(-0.0264254 0.0095624 0)
(-0.0310802 0.010458 0)
(-0.035146 0.0110863 0)
(-0.0385758 0.0114394 0)
(-0.0413268 0.0115412 0)
(-0.0433756 0.0113852 0)
(-0.0447251 0.0109914 0)
(-0.0453985 0.0103843 0)
(-0.045422 0.00961062 0)
(-0.0448192 0.00870041 0)
(-0.0436186 0.00769361 0)
(-0.0418657 0.00663171 0)
(-0.0396332 0.00555378 0)
(-0.0369798 0.00449549 0)
(-0.0339248 0.00349002 0)
(-0.0305251 0.00257708 0)
(-0.0268575 0.00177818 0)
(-0.0229638 0.00111021 0)
(-0.018891 0.000586287 0)
(-0.014688 0.000222603 0)
(-0.0103815 1.04084e-06 0)
(-0.00602914 -9.71713e-05 0)
(-0.00184178 -9.99726e-05 0)
(0.000223355 -0.0177167 0)
(0.0022646 -0.0199596 0)
(0.00232465 -0.0195729 0)
(0.00253832 -0.0187014 0)
(0.0026041 -0.0174025 0)
(0.00199938 -0.015725 0)
(0.000619791 -0.0137159 0)
(-0.00167156 -0.0114278 0)
(-0.00491173 -0.00893083 0)
(-0.00900564 -0.00628812 0)
(-0.0139331 -0.00356234 0)
(-0.0195902 -0.000819084 0)
(-0.025749 0.00187453 0)
(-0.0322496 0.00445928 0)
(-0.0390446 0.00687113 0)
(-0.0460606 0.00906151 0)
(-0.053068 0.011035 0)
(-0.0598853 0.0127744 0)
(-0.0664108 0.014192 0)
(-0.072494 0.0152603 0)
(-0.0780084 0.0159365 0)
(-0.0828533 0.0162558 0)
(-0.0869238 0.0162151 0)
(-0.0901458 0.0158203 0)
(-0.0924719 0.0150903 0)
(-0.0938705 0.0140545 0)
(-0.0943247 0.0127461 0)
(-0.0938361 0.0112059 0)
(-0.0924233 0.00948094 0)
(-0.0901154 0.00762314 0)
(-0.0869493 0.00568522 0)
(-0.0829484 0.0037205 0)
(-0.078161 0.00178099 0)
(-0.0727301 -8.20556e-05 0)
(-0.0668102 -0.00182378 0)
(-0.0605118 -0.00340881 0)
(-0.0538869 -0.00480226 0)
(-0.0469734 -0.00598786 0)
(-0.0398477 -0.00695875 0)
(-0.0325817 -0.00771424 0)
(-0.0252258 -0.00825075 0)
(-0.0177937 -0.0085851 0)