/*--------------------------------*- C++ -*----------------------------------*\
  =========                 |
  \\      /  F ield         | OpenFOAM: The Open Source CFD Toolbox
   \\    /   O peration     | Website:  https://openfoam.org
    \\  /    A nd           | Version:  7
     \\/     M anipulation  |
\*---------------------------------------------------------------------------*/
FoamFile
{
    version     2.0;
    format      ascii;
    class       surfaceScalarField;
    location    "9.5";
    object      phi;
}
// * * * * * * * * * * * * * * * * * * * * * * * * * * * * * * * * * * * * * //

dimensions      [0 3 -1 0 0 0 0];

internalField   nonuniform List<scalar> 
1740
(
7.05009e-07
-7.05697e-07
-3.01251e-07
1.00626e-06
-3.2089e-06
2.90765e-06
-7.65581e-06
4.44691e-06
-1.31618e-05
5.50603e-06
-1.93082e-05
6.1463e-06
-2.57763e-05
6.46818e-06
-3.23284e-05
6.55203e-06
-3.87698e-05
6.44141e-06
-4.49155e-05
6.1457e-06
-5.05649e-05
5.64945e-06
-5.54891e-05
4.92416e-06
-5.943e-05
3.94094e-06
-6.21133e-05
2.68327e-06
-6.32724e-05
1.15909e-06
-6.26825e-05
-5.89859e-07
-6.01995e-05
-2.48303e-06
-5.58047e-05
-4.39478e-06
-4.96377e-05
-6.16698e-06
-4.20141e-05
-7.62365e-06
-3.342e-05
-8.59407e-06
-2.44789e-05
-8.94116e-06
-1.58899e-05
-8.58901e-06
-8.34579e-06
-7.54406e-06
-2.44036e-06
-5.90543e-06
1.42904e-06
-3.8694e-06
3.13362e-06
-1.70458e-06
2.85362e-06
2.79989e-07
1.32572e-06
1.5279e-06
1.32571e-06
-1.00662e-06
3.00915e-07
-5.86116e-06
5.86079e-06
-1.47154e-05
1.17619e-05
-2.68302e-05
1.65618e-05
-4.13225e-05
1.99983e-05
-5.73466e-05
2.21705e-05
-7.41738e-05
2.32954e-05
-9.11882e-05
2.35664e-05
-0.000107843
2.30964e-05
-0.00012361
2.1913e-05
-0.00013794
1.9979e-05
-0.000150241
1.72248e-05
-0.000159886
1.35861e-05
-0.000166244
9.04193e-06
-0.000168733
3.64742e-06
-0.000166904
-2.41834e-06
-0.00016049
-8.89743e-06
-0.000149525
-1.53598e-05
-0.000134387
-2.13052e-05
-0.000115827
-2.61831e-05
-9.49546e-05
-2.94665e-05
-7.31601e-05
-3.07357e-05
-5.19882e-05
-2.9761e-05
-3.29653e-05
-2.65669e-05
-1.74062e-05
-2.14646e-05
-6.22817e-06
-1.50474e-05
2.28714e-07
-8.16146e-06
2.4395e-06
-1.93079e-06
1.59529e-06
2.37213e-06
2.921e-06
-3.16172e-06
3.46264e-06
-1.25801e-05
1.52792e-05
-2.74752e-05
2.66569e-05
-4.67562e-05
3.58427e-05
-6.92299e-05
4.2472e-05
-9.37713e-05
4.67119e-05
-0.000119381
4.89048e-05
-0.000145174
4.93595e-05
-0.000170335
4.82579e-05
-0.000194065
4.56425e-05
-0.000215535
4.14493e-05
-0.000233876
3.55649e-05
-0.000248184
2.78946e-05
-0.000257575
1.84325e-05
-0.000261256
7.32837e-06
-0.000258603
-5.07063e-06
-0.000249289
-1.8212e-05
-0.000233376
-3.12725e-05
-0.000211396
-4.32857e-05
-0.000184382
-5.31964e-05
-0.000153855
-5.99935e-05
-0.000121726
-6.28653e-05
-9.01317e-05
-6.1355e-05
-6.1211e-05
-5.54875e-05
-3.68374e-05
-4.58382e-05
-1.83529e-05
-3.35319e-05
-6.32647e-06
-2.01879e-05
-4.103e-07
-7.84696e-06
8.74038e-07
1.0878e-06
3.79503e-06
-5.29163e-06
8.75426e-06
-1.92326e-05
2.92202e-05
-4.00675e-05
4.74918e-05
-6.61501e-05
6.19253e-05
-9.59634e-05
7.22853e-05
-0.000128155
7.89037e-05
-0.000161536
8.22855e-05
-0.000195039
8.28625e-05
-0.000227662
8.08807e-05
-0.000258407
7.6388e-05
-0.000286242
6.92838e-05
-0.000310081
5.9404e-05
-0.000328808
4.66221e-05
-0.00034133
3.09541e-05
-0.000346659
1.26575e-05
-0.000344019
-7.71025e-06
-0.000332962
-2.92697e-05
-0.000313504
-5.07303e-05
-0.000286215
-7.05744e-05
-0.000252276
-8.71351e-05
-0.000213474
-9.87956e-05
-0.000172112
-0.000104227
-0.000130828
-0.000102639
-9.23242e-05
-9.3991e-05
-5.90421e-05
-7.91202e-05
-3.28166e-05
-5.97574e-05
-1.45765e-05
-3.8428e-05
-4.13665e-06
-1.82869e-05
-1.32291e-07
-2.91656e-06
3.66273e-06
-7.2407e-06
1.5995e-05
-2.54739e-05
4.74533e-05
-5.19637e-05
7.39817e-05
-8.44673e-05
9.44289e-05
-0.000121121
0.000108939
-0.000160366
0.000118149
-0.000200873
0.000122793
-0.000241459
0.000123448
-0.000281004
0.000120425
-0.000318382
0.000113766
-0.000352417
0.000103319
-0.000381861
8.88483e-05
-0.000405418
7.01786e-05
-0.000421793
4.73297e-05
-0.000429788
2.06524e-05
-0.000428419
-9.07965e-06
-0.000417016
-4.06728e-05
-0.000395428
-7.23179e-05
-0.000364122
-0.000101881
-0.00032428
-0.000126976
-0.000277842
-0.000145235
-0.000227431
-0.000154638
-0.000176184
-0.000153887
-0.000127437
-0.000142738
-8.43259e-05
-0.000122231
-4.93454e-05
-9.47379e-05
-2.39535e-05
-6.38199e-05
-8.30463e-06
-3.39357e-05
-1.16454e-06
-1.00566e-05
2.49819e-06
-8.99068e-06
2.49856e-05
-3.11922e-05
6.96548e-05
-6.29631e-05
0.000105753
-0.00010148
0.000132946
-0.000144541
0.000152
-0.000190402
0.00016401
-0.000237634
0.000170025
-0.000284991
0.000170805
-0.000331298
0.000166733
-0.000375365
0.000157833
-0.000415924
0.000143878
-0.000451606
0.00012453
-0.000480949
9.95219e-05
-0.000502448
6.88281e-05
-0.000514637
3.28421e-05
-0.000516247
-7.46943e-06
-0.000506235
-5.0685e-05
-0.000484132
-9.44215e-05
-0.000450124
-0.000135889
-0.000405234
-0.000171866
-0.000351422
-0.000199047
-0.000291579
-0.00021448
-0.000229373
-0.000216093
-0.000168911
-0.0002032
-0.000114249
-0.000176893
-6.88081e-05
-0.000140179
-3.48256e-05
-9.78024e-05
-1.29745e-05
-5.57869e-05
-2.23043e-06
-2.08007e-05
2.67758e-07
-1.05559e-05
3.55415e-05
-3.63684e-05
9.54673e-05
-7.2997e-05
0.000142381
-0.000117093
0.000177042
-0.000166149
0.000201056
-0.00021827
0.000216131
-0.000271967
0.000223722
-0.000325982
0.000224821
-0.000379144
0.000219894
-0.000430253
0.000208942
-0.000478002
0.000191627
-0.000520934
0.000167462
-0.000557432
0.00013602
-0.000585754
9.71499e-05
-0.000604088
5.1176e-05
-0.000610843
-7.14353e-07
-0.000604342
-5.71862e-05
-0.000583687
-0.000115077
-0.000548561
-0.000171014
-0.00049962
-0.000220807
-0.000438677
-0.000259989
-0.000368797
-0.000284361
-0.000294201
-0.00029069
-0.000219927
-0.000277474
-0.000151241
-0.000245579
-9.28592e-05
-0.000198561
-4.81601e-05
-0.000142502
-1.85952e-05
-8.53518e-05
-3.46535e-06
-3.59305e-05
-3.1976e-06
-1.19453e-05
4.74868e-05
-4.0992e-05
0.000124514
-8.20165e-05
0.000183406
-0.000131221
0.000226247
-0.000185845
0.000255679
-0.000243883
0.000274168
-0.000303832
0.000283671
-0.000364473
0.000285462
-0.000424692
0.000280113
-0.000483336
0.000267586
-0.000539108
0.000247399
-0.000590498
0.000218852
-0.000635747
0.000181269
-0.000672858
0.000134261
-0.000699671
7.79884e-05
-0.000713849
1.34642e-05
-0.000713461
-5.75741e-05
-0.000696661
-0.000131877
-0.000662456
-0.000205218
-0.000610894
-0.00027237
-0.000543408
-0.000327475
-0.000463063
-0.000364706
-0.000374575
-0.000379178
-0.000284034
-0.000368015
-0.00019823
-0.000331383
-0.000123642
-0.000273149
-6.52928e-05
-0.000200851
-2.58154e-05
-0.000124829
-5.03016e-06
-5.67158e-05
-8.22776e-06
-1.31519e-05
6.06387e-05
-4.5026e-05
0.000156388
-8.99358e-05
0.000228315
-0.000143721
0.000280033
-0.000203427
0.000315385
-0.000266987
0.000337728
-0.000332928
0.000349612
-0.000400118
0.000352652
-0.000467552
0.000347547
-0.000534175
0.000334209
-0.000598752
0.000311975
-0.000659754
0.000279855
-0.000715304
0.000236819
-0.000763146
0.000182103
-0.000800683
0.000115526
-0.000825057
3.78375e-05
-0.0008335
-4.91312e-05
-0.000823341
-0.000142036
-0.000792645
-0.000235914
-0.000740569
-0.000324446
-0.000667857
-0.000400186
-0.00057727
-0.000455294
-0.000473817
-0.000482631
-0.000364626
-0.000477206
-0.000258277
-0.000437732
-0.000163546
-0.000367879
-8.77832e-05
-0.000276614
-3.54146e-05
-0.000177198
-7.15695e-06
-8.49735e-05
-1.53847e-05
-1.4154e-05
7.47926e-05
-4.83999e-05
0.000190634
-9.66153e-05
0.000276531
-0.000154367
0.000337785
-0.000218566
0.000379584
-0.000287128
0.00040629
-0.000358653
0.000421137
-0.000432136
0.000426135
-0.000506723
0.000422135
-0.00058151
0.000408996
-0.000655365
0.00038583
-0.000726793
0.000351282
-0.000793829
0.000303855
-0.000853988
0.000242262
-0.000904269
0.000165807
-0.000941226
7.47949e-05
-0.000961294
-2.90631e-05
-0.000960812
-0.000142518
-0.000936759
-0.000259967
-0.000887132
-0.000374073
-0.000811609
-0.000475709
-0.000712202
-0.0005547
-0.000593789
-0.000601044
-0.000464284
-0.000606711
-0.000334145
-0.000567871
-0.00021497
-0.000487054
-0.000117296
-0.000374288
-4.82503e-05
-0.000246244
-1.00891e-05
-0.000123135
-2.54738e-05
-1.49195e-05
8.97121e-05
-5.10171e-05
0.000226732
-0.00010187
0.000327383
-0.000162856
0.000398772
-0.000230809
0.000447537
-0.000303663
0.000479144
-0.000380116
0.000497589
-0.000459317
0.000505336
-0.000540601
0.000503418
-0.000623245
0.00049164
-0.000706268
0.000468853
-0.000788252
0.000433266
-0.00086721
0.000382813
-0.000940492
0.000315544
-0.00100477
0.000230082
-0.00105607
0.000126095
-0.00109011
4.98237e-06
-0.00110225
-0.000130379
-0.00108834
-0.000273882
-0.00104499
-0.000417422
-0.00097043
-0.000550267
-0.000865359
-0.000659772
-0.000733833
-0.00073257
-0.00058394
-0.000756604
-0.000427752
-0.00072406
-0.000280037
-0.000634769
-0.000155495
-0.000498829
-6.52316e-05
-0.000336507
-1.40899e-05
-0.000174276
-3.95637e-05
-1.54126e-05
0.000105125
-5.27713e-05
0.00026409
-0.000105492
0.000380104
-0.000168847
0.000462127
-0.000239629
0.000518319
-0.000315811
0.000555326
-0.000396198
0.000577976
-0.000480106
0.000589244
-0.000567065
0.000590377
-0.000656557
0.000581133
-0.000747783
0.000560078
-0.000839456
0.00052494
-0.000929638
0.000472996
-0.00101563
0.000401533
-0.00109391
0.000308362
-0.00116021
0.000192399
-0.0012095
5.42712e-05
-0.00123669
-0.000103193
-0.00123636
-0.000274204
-0.00120376
-0.00045003
-0.00113533
-0.000618694
-0.00102984
-0.000765264
-0.000889605
-0.000872801
-0.000721845
-0.000924364
-0.000539425
-0.000906479
-0.000360181
-0.000814014
-0.000203892
-0.000655119
-8.72969e-05
-0.000453102
-1.94514e-05
-0.000242122
-5.9015e-05
-1.56023e-05
0.000120727
-5.35701e-05
0.000302058
-0.000107297
0.000433831
-0.000172014
0.000526843
-0.000244496
0.000590801
-0.000322753
0.000633583
-0.000405686
0.00066091
-0.00049276
0.000676318
-0.00058369
0.000681308
-0.000678163
0.000675605
-0.000775576
0.000657492
-0.000874823
0.000624186
-0.000974103
0.000572276
-0.0010708
0.000498232
-0.00116143
0.00039899
-0.00124164
0.000272609
-0.00130628
0.000118914
-0.00134959
-5.98845e-05
-0.00136566
-0.000258139
-0.00134834
-0.000467342
-0.00129223
-0.000674805
-0.00119361
-0.000863884
-0.00105205
-0.00101436
-0.000872445
-0.00110397
-0.000666942
-0.00111198
-0.000455544
-0.00102541
-0.000263584
-0.000847079
-0.000115356
-0.00060133
-2.6497e-05
-0.000330981
-8.5512e-05
-1.54732e-05
0.0001362
-5.33655e-05
0.00033995
-0.000107172
0.000487638
-0.000172126
0.000591796
-0.000244986
0.000663661
-0.000323775
0.000712371
-0.000407454
0.000744589
-0.000495597
0.000764462
-0.000588073
0.000773783
-0.000684745
0.000772277
-0.000785215
0.000757962
-0.000888591
0.000727562
-0.00099331
0.000676995
-0.00109701
0.000601934
-0.00119648
0.00049846
-0.00128765
0.000363776
-0.00136569
0.000196958
-0.00142446
-1.11562e-06
-0.00145843
-0.000224171
-0.00146023
-0.000465545
-0.00142281
-0.000712225
-0.00133976
-0.000946933
-0.00120701
-0.00114711
-0.00102551
-0.00128548
-0.000804494
-0.00133299
-0.000564156
-0.00126575
-0.00033484
-0.0010764
-0.000150167
-0.000786003
-3.55709e-05
-0.000445577
-0.000121083
-1.50369e-05
0.000151237
-5.21889e-05
0.000377102
-0.000105142
0.000540591
-0.000169143
0.000655797
-0.000240911
0.00073543
-0.000318437
0.000789897
-0.000400691
0.000826843
-0.000487302
0.000851073
-0.000578235
0.000864716
-0.000673498
0.000867541
-0.000772885
0.000857348
-0.000875754
0.000830431
-0.000980869
0.00078211
-0.00108629
0.000707358
-0.00118935
0.000601512
-0.00128659
0.000461016
-0.00137374
0.000284112
-0.00144615
7.12923e-05
-0.00149714
-0.000173176
-0.00152014
-0.000442545
-0.00150679
-0.00072558
-0.00144814
-0.00100559
-0.00133603
-0.00125921
-0.00116604
-0.00145547
-0.000941969
-0.00155706
-0.000681058
-0.00152666
-0.000416517
-0.00134094
-0.000192137
-0.00101038
-4.70093e-05
-0.000590704
-0.000168092
-1.43447e-05
0.000165582
-5.01886e-05
0.000412946
-0.000101434
0.000591836
-0.00016331
0.000717674
-0.000232447
0.000804567
-0.00030675
0.000864199
-0.000385138
0.000905231
-0.000467234
0.000933169
-0.00055305
0.000950532
-0.000642699
0.00095719
-0.000736155
0.000950804
-0.000833061
0.000927338
-0.0009326
0.000881648
-0.00103342
0.000808175
-0.0011336
0.000701693
-0.00123066
0.000558074
-0.00132149
0.000374946
-0.00140233
0.000152135
-0.00146783
-0.000107681
-0.00151185
-0.000398522
-0.00152573
-0.000711705
-0.00149874
-0.00103257
-0.00141891
-0.00133903
-0.00127568
-0.0015987
-0.00106514
-0.0017676
-0.000797739
-0.00179406
-0.000505444
-0.00163323
-0.000241051
-0.00127478
-6.10976e-05
-0.000770657
-0.00022919
-1.35005e-05
0.000179082
-4.76696e-05
0.000447115
-9.65474e-05
0.000640714
-0.000155256
0.000776382
-0.000220262
0.000869574
-0.000289331
0.000933268
-0.000361284
0.000977185
-0.000435699
0.00100758
-0.000512595
0.00102743
-0.000592169
0.00103676
-0.00067458
0.00103322
-0.000759796
0.00101255
-0.000847498
0.000969351
-0.000937045
0.000897722
-0.00102747
0.000792115
-0.00111745
0.000648061
-0.00120529
0.000462786
-0.00128874
0.000235577
-0.00136387
-3.25453e-05
-0.0014261
-0.000336295
-0.00146724
-0.000670562
-0.001476
-0.00102381
-0.00143762
-0.00137742
-0.00133569
-0.00170063
-0.0011573
-0.00194599
-0.000902379
-0.00204898
-0.000596024
-0.00193959
-0.000295805
-0.001575
-7.8032e-05
-0.00098843
-0.000307222
-1.26767e-05
0.000191759
-4.51368e-05
0.000479576
-9.13233e-05
0.0006869
-0.000146076
0.000831135
-0.000205612
0.000929109
-0.000267514
0.00099517
-0.0003305
0.00104017
-0.000394096
0.00107118
-0.000458333
0.00109166
-0.000523504
0.00110193
-0.000589983
0.00109969
-0.000658114
0.00108068
-0.000728155
0.00103939
-0.000800268
0.000969835
-0.000874527
0.000866373
-0.000950903
0.000724437
-0.00102917
0.000541052
-0.00110865
0.000315059
-0.00118791
4.67115e-05
-0.00126314
-0.000261068
-0.00132829
-0.000605405
-0.00137273
-0.000979374
-0.00138053
-0.00136963
-0.00133093
-0.00175023
-0.0012022
-0.00207471
-0.000981294
-0.00226989
-0.00068033
-0.00224055
-0.000354214
-0.00190111
-9.79169e-05
-0.00124473
-0.000405139
-1.2136e-05
0.000203895
-4.33505e-05
0.00051079
-8.70161e-05
0.000730566
-0.000137412
0.00088153
-0.0001904
0.000982097
-0.000243394
0.00104816
-0.000295053
0.00109183
-0.000344913
0.00112104
-0.00039308
0.00113983
-0.000439998
0.00114885
-0.000486319
0.00114601
-0.000532827
0.00112719
-0.000580423
0.00108699
-0.000630127
0.00101954
-0.000683089
0.000919335
-0.000740554
0.000781903
-0.000803727
0.000604224
-0.00087354
0.000384873
-0.000950432
0.000123604
-0.00103255
-0.000178949
-0.00111593
-0.000522022
-0.00119187
-0.000903434
-0.00124524
-0.00131627
-0.0012533
-0.00174216
-0.00118747
-0.00214055
-0.00102129
-0.00243607
-0.000748912
-0.00251293
-0.000412985
-0.00223704
-0.000120832
-0.00153688
-0.00052597
-1.22738e-05
0.000216169
-4.34124e-05
0.000541929
-8.53904e-05
0.000772544
-0.000131512
0.000927651
-0.000177202
0.00102779
-0.000219785
0.00109075
-0.000258007
0.00113005
-0.000291558
0.00115459
-0.000320742
0.00116901
-0.000346261
0.00117437
-0.000369132
0.00116888
-0.00039065
0.00114871
-0.000412404
0.00110874
-0.000436282
0.00104342
-0.00046447
0.000947523
-0.000499398
0.000816831
-0.000543514
0.00064834
-0.000599137
0.000440495
-0.000668119
0.000192586
-0.000750761
-9.63077e-05
-0.000845125
-0.000427657
-0.000945236
-0.000803323
-0.0010385
-0.001223
-0.0011031
-0.00167757
-0.00110688
-0.00213676
-0.00101203
-0.00253092
-0.000792203
-0.00273276
-0.000467936
-0.00256131
-0.000146962
-0.00185785
-0.000672932
-1.37014e-05
0.00022987
-4.69149e-05
0.000575142
-8.88593e-05
0.000814488
-0.00013131
0.000970102
-0.000169239
0.00106572
-0.000200102
0.00112161
-0.000222997
0.00115295
-0.000238012
0.00116961
-0.000245839
0.00117684
-0.000247584
0.00117612
-0.000244723
0.00116602
-0.000239123
0.00114311
-0.000233068
0.00110269
-0.000229268
0.00103962
-0.000230801
0.000949056
-0.00024123
0.000827259
-0.000263877
0.000670988
-0.000302061
0.000478679
-0.000359004
0.000249528
-0.000436334
-1.89773e-05
-0.000534108
-0.000329883
-0.000649326
-0.000688105
-0.000773156
-0.00109917
-0.000887332
-0.0015634
-0.000960332
-0.00206376
-0.000947159
-0.00254409
-0.000801647
-0.00287827
-0.000514254
-0.0028487
-0.000176693
-0.00219542
-0.000849626
-1.74188e-05
0.000247289
-5.62046e-05
0.000613928
-0.000100689
0.000858973
-0.000140479
0.00100989
-0.00017027
0.00109551
-0.000188084
0.00113943
-0.000193807
0.00115867
-0.000188269
0.00116407
-0.000172792
0.00116136
-0.000149044
0.00115237
-0.000119046
0.00113603
-8.52649e-05
0.00110933
-5.06503e-05
0.00106807
-1.86908e-05
0.00100766
6.68978e-06
0.000923676
2.17432e-05
0.000812206
2.18116e-05
0.00067092
2.73869e-06
0.000497752
-3.82741e-05
0.000290541
-0.00010502
4.77683e-05
-0.000199037
-0.000235866
-0.000319869
-0.000567273
-0.000463023
-0.000956014
-0.000615766
-0.00141065
-0.000751361
-0.00192817
-0.000823349
-0.0024721
-0.000769748
-0.00293187
-0.000546406
-0.00307204
-0.000210433
-0.00253139
-0.00106006
-2.51611e-05
0.00027245
-7.4821e-05
0.000663588
-0.000125244
0.000909395
-0.000163368
0.00104802
-0.000184214
0.00111635
-0.000187159
0.00114237
-0.00017351
0.00114502
-0.000145268
0.00113583
-0.000104656
0.00112075
-5.40403e-05
0.00110175
3.96021e-06
0.00107803
6.63782e-05
0.00104691
0.000129723
0.00100473
0.000190035
0.000947346
0.00024293
0.000870781
0.000283573
0.000771563
0.000307413
0.000647079
0.000309996
0.000495169
0.000286896
0.00031364
0.000234942
9.97232e-05
0.000151026
-0.000151951
3.33669e-05
-0.000449614
-0.000117499
-0.000805148
-0.000295815
-0.00123234
-0.000483063
-0.00174092
-0.000637633
-0.00231753
-0.000688587
-0.00288092
-0.000557149
-0.00320348
-0.000247784
-0.00284075
-0.00130784
-4.00587e-05
0.000312509
-0.000108116
0.000731646
-0.000168045
0.000969324
-0.000204378
0.00108435
-0.000213922
0.0011259
-0.000198698
0.00112715
-0.000162286
0.00110861
-0.000108349
0.00108189
-4.02475e-05
0.00105265
3.88724e-05
0.00102263
0.000125851
0.000991047
0.000217269
0.000955494
0.000309318
0.000912678
0.000397732
0.000858932
0.000477844
0.000790668
0.000544739
0.000704668
0.000593529
0.000598289
0.000619508
0.00046919
0.000618248
0.000314901
0.000585799
0.000132172
0.000518217
-8.43687e-05
0.000411889
-0.000343286
0.000263457
-0.000656715
7.2351e-05
-0.00104123
-0.000153308
-0.00151526
-0.00038363
-0.00208721
-0.000547137
-0.00271741
-0.00053529
-0.00321533
-0.000285599
-0.00309044
-0.00159344
-6.779e-05
0.000380299
-0.000163746
0.000827602
-0.000234683
0.00104026
-0.000265289
0.00111496
-0.000257149
0.00111776
-0.000216889
0.00108689
-0.000151413
0.00104313
-6.65188e-05
0.000996996
3.31416e-05
0.00095299
0.000143674
0.000912102
0.000261509
0.000873211
0.000383041
0.000833962
0.000504401
0.000791319
0.00062135
0.000741983
0.000729303
0.000682715
0.000823433
0.000610539
0.000898879
0.000522843
0.000950873
0.000417197
0.000974782
0.000290992
0.000966093
0.000140861
0.00091994
-3.82157e-05
0.000831077
-0.000254422
0.000693133
-0.000518771
0.000499664
-0.000847762
0.000248352
-0.00126395
-4.57278e-05
-0.00179313
-0.000327195
-0.00243594
-0.000462127
-0.0030804
-0.00031495
-0.00323762
-0.00190839
-0.000118303
0.000498602
-0.000250416
0.000959715
-0.00032508
0.00111492
-0.000335692
0.00112557
-0.000294083
0.00107615
-0.000214187
0.00100699
-0.000107319
0.000936264
1.8312e-05
0.000871365
0.000156868
0.000814434
0.000304
0.00076497
0.000456101
0.000721111
0.000609783
0.00068028
0.00076154
0.000639562
0.00090757
0.000595954
0.00104373
0.000546554
0.00116559
0.000488675
0.00126856
0.000419879
0.00134791
0.000337841
0.00139883
0.000240078
0.00141616
0.000123532
0.00139391
-1.59681e-05
0.0013255
-0.000186014
0.00120189
-0.000395163
0.00101216
-0.00065803
0.000744828
-0.000996618
0.000397917
-0.00144622
1.06727e-05
-0.0020487
-0.00030628
-0.00276344
-0.000322463
-0.00322144
-0.00223086
-0.000207557
0.000706159
-0.000367098
0.00111926
-0.000410419
0.00115824
-0.000361875
0.00107702
-0.000252001
0.000966274
-0.000104599
0.00085959
6.45875e-05
0.000767077
0.000245786
0.000690166
0.00043304
0.00062718
0.000622556
0.000575454
0.000811591
0.000532075
0.00099774
0.000494131
0.0011785
0.0004588
0.00135104
0.000423411
0.0015121
0.000385494
0.00165798
0.000342797
0.00178459
0.000293276
0.00188745
0.000234978
0.00196168
0.000165852
0.00200161
8.36015e-05
0.0020001
-1.44607e-05
0.0019495
-0.000135419
0.00183855
-0.000284206
0.00165314
-0.000472621
0.00137534
-0.000718818
0.00098681
-0.00105769
0.000489828
-0.00155172
-1.09192e-05
-0.00226269
-0.00026538
-0.00296698
-0.00249624
-0.000346074
0.00105223
-0.000439792
0.00121297
-0.000348239
0.00106669
-0.000157219
0.000886004
7.80832e-05
0.000730972
0.000328826
0.000608848
0.00058044
0.000515462
0.000826168
0.000444438
0.00106329
0.000390054
0.00129096
0.000347789
0.00150894
0.000314096
0.00171697
0.000286103
0.00191437
0.000261399
0.00209986
0.000237914
0.0022715
0.000213855
0.00242664
0.000187659
0.00256197
0.000157951
0.00267349
0.000123456
0.0027565
8.28405e-05
0.00280538
3.47167e-05
0.00281344
-2.25154e-05
0.00277082
-9.27997e-05
0.00266588
-0.000179267
0.00248265
-0.000289387
0.00219927
-0.000435438
0.00178654
-0.00064497
0.00121306
-0.000978235
0.000521294
-0.00157093
-2.02169e-05
-0.00242547
-0.00251645
-0.000306883
0.00135912
-5.89042e-05
0.000964995
0.000366125
0.000641663
0.000786307
0.000465822
0.00117119
0.00034609
0.00151661
0.000263422
0.0018249
0.000207181
0.00210083
0.000168507
0.00234969
0.000141195
0.00257614
0.000121331
0.00278386
0.000106382
0.00297538
9.45758e-05
0.00315219
8.45963e-05
0.00331468
7.54245e-05
0.00346228
6.62481e-05
0.00359354
5.64039e-05
0.00370615
4.53435e-05
0.00379702
3.25848e-05
0.00386208
1.77773e-05
0.00389586
9.3938e-07
0.00389461
-2.12628e-05
0.00384771
-4.59044e-05
0.00374497
-7.6529e-05
0.00357125
-0.00011566
0.00330383
-0.000168023
0.00290684
-0.000247983
0.00232035
-0.000391746
0.00148684
-0.000737414
0.000505373
-0.001444
-0.00201108
0.00135912
0.00232411
0.00296577
0.0034316
0.00377769
0.00404111
0.00424829
0.0044168
0.00455799
0.00467932
0.0047857
0.00488028
0.00496488
0.0050403
0.00510655
0.00516295
0.0052083
0.00524088
0.00525866
0.0052596
0.00523834
0.00519243
0.0051159
0.00500024
0.00483222
0.00458424
0.00419249
0.00345508
0.00201108
)
;

boundaryField
{
    movingWall
    {
        type            calculated;
        value           uniform 0;
    }
    fixedWalls
    {
        type            calculated;
        value           uniform 0;
    }
    frontAndBack
    {
        type            empty;
        value           nonuniform 0();
    }
}


// ************************************************************************* //
