/*--------------------------------*- C++ -*----------------------------------*\
  =========                 |
  \\      /  F ield         | OpenFOAM: The Open Source CFD Toolbox
   \\    /   O peration     | Website:  https://openfoam.org
    \\  /    A nd           | Version:  7
     \\/     M anipulation  |
\*---------------------------------------------------------------------------*/
FoamFile
{
    version     2.0;
    format      ascii;
    class       volVectorField;
    location    "1.4";
    object      U;
}
// * * * * * * * * * * * * * * * * * * * * * * * * * * * * * * * * * * * * * //

dimensions      [0 1 -1 0 0 0 0];

internalField   nonuniform List<vector> 
900
(
(4.36006e-05 -4.30503e-05 0)
(-8.51931e-05 5.91007e-05 0)
(-0.000527057 0.000147805 0)
(-0.00111947 0.000191985 0)
(-0.001784 0.000205836 0)
(-0.00246332 0.000203506 0)
(-0.00312301 0.000193692 0)
(-0.0037451 0.000180511 0)
(-0.00431941 0.000165375 0)
(-0.00483854 0.000148538 0)
(-0.00529596 0.00012992 0)
(-0.00568539 0.00010943 0)
(-0.00600083 8.70423e-05 0)
(-0.00623657 6.28099e-05 0)
(-0.00638744 3.68601e-05 0)
(-0.00644891 9.38802e-06 0)
(-0.0064173 -1.93528e-05 0)
(-0.00628994 -4.90045e-05 0)
(-0.00606546 -7.91433e-05 0)
(-0.00574391 -0.000109288 0)
(-0.00532702 -0.000138899 0)
(-0.00481843 -0.000167374 0)
(-0.00422406 -0.000193944 0)
(-0.00355316 -0.000217332 0)
(-0.00282071 -0.000234904 0)
(-0.00205279 -0.000241218 0)
(-0.001295 -0.000226425 0)
(-0.000617463 -0.000175814 0)
(-0.000110945 -7.52919e-05 0)
(4.36097e-05 4.14458e-05 0)
(-5.81038e-05 8.44582e-05 0)
(-0.000579183 0.000576705 0)
(-0.00169631 0.00096123 0)
(-0.003105 0.00117026 0)
(-0.00465255 0.00124666 0)
(-0.0062325 0.00124083 0)
(-0.00777221 0.00118867 0)
(-0.0092275 0.00111022 0)
(-0.0105704 0.00101466 0)
(-0.0117805 0.00090558 0)
(-0.012841 0.000784329 0)
(-0.0137368 0.000651628 0)
(-0.0144543 0.000508168 0)
(-0.0149813 0.000354828 0)
(-0.0153071 0.000192752 0)
(-0.0154226 2.33817e-05 0)
(-0.0153211 -0.000151589 0)
(-0.014998 -0.000329951 0)
(-0.014452 -0.000509209 0)
(-0.0136847 -0.00068648 0)
(-0.0127019 -0.000858436 0)
(-0.0115136 -0.00102109 0)
(-0.0101358 -0.00116915 0)
(-0.00859245 -0.00129432 0)
(-0.00692041 -0.00138201 0)
(-0.00517864 -0.00140657 0)
(-0.00345968 -0.00132758 0)
(-0.00189196 -0.00109278 0)
(-0.000649619 -0.000661072 0)
(-6.75545e-05 -0.000108273 0)
(-0.000150652 0.000529776 0)
(-0.000990245 0.00170051 0)
(-0.00260651 0.00254657 0)
(-0.00457926 0.00301643 0)
(-0.00671361 0.00319433 0)
(-0.00888018 0.0031803 0)
(-0.0109876 0.00304996 0)
(-0.0129774 0.0028487 0)
(-0.0148109 0.00259961 0)
(-0.0164597 0.00231331 0)
(-0.0179002 0.00199485 0)
(-0.019112 0.00164726 0)
(-0.0200771 0.00127314 0)
(-0.0207795 0.000875313 0)
(-0.0212056 0.000457053 0)
(-0.0213444 2.22582e-05 0)
(-0.0211875 -0.000424462 0)
(-0.0207299 -0.00087766 0)
(-0.0199708 -0.00133103 0)
(-0.0189135 -0.00177729 0)
(-0.0175663 -0.00220795 0)
(-0.0159439 -0.00261268 0)
(-0.0140686 -0.00297766 0)
(-0.0119733 -0.00328185 0)
(-0.00970743 -0.0034904 0)
(-0.00734701 -0.0035461 0)
(-0.00500723 -0.003364 0)
(-0.00284344 -0.00284074 0)
(-0.00107622 -0.00189685 0)
(-0.000162528 -0.000597578 0)
(-0.000203819 0.0011484 0)
(-0.00125692 0.00316742 0)
(-0.00322249 0.00454995 0)
(-0.00557926 0.00530717 0)
(-0.00810199 0.00558835 0)
(-0.0106485 0.00555335 0)
(-0.0131183 0.00532203 0)
(-0.0154464 0.0049674 0)
(-0.017589 0.00452792 0)
(-0.0195131 0.00402243 0)
(-0.0211915 0.00346057 0)
(-0.0226009 0.00284844 0)
(-0.0237206 0.00219125 0)
(-0.0245326 0.00149431 0)
(-0.0250216 0.000763613 0)
(-0.0251754 6.04241e-06 0)
(-0.0249848 -0.000770361 0)
(-0.0244443 -0.00155628 0)
(-0.0235531 -0.00234088 0)
(-0.0223149 -0.00311166 0)
(-0.0207398 -0.00385399 0)
(-0.0188444 -0.00454998 0)
(-0.0166545 -0.00517576 0)
(-0.0142077 -0.00569572 0)
(-0.0115601 -0.00605256 0)
(-0.00879647 -0.00615441 0)
(-0.00604432 -0.00586669 0)
(-0.00347548 -0.00502433 0)
(-0.00134462 -0.00348607 0)
(-0.000214059 -0.0012616 0)
(-0.00023148 0.00187861 0)
(-0.00142226 0.00486604 0)
(-0.00363006 0.00683709 0)
(-0.00625523 0.00789553 0)
(-0.00904757 0.00827567 0)
(-0.0118548 0.00820688 0)
(-0.0145709 0.00785704 0)
(-0.0171275 0.00732806 0)
(-0.0194784 0.0066743 0)
(-0.0215885 0.00592313 0)
(-0.0234288 0.00508916 0)
(-0.0249743 0.00418193 0)
(-0.0262028 0.0032095 0)
(-0.027095 0.00217999 0)
(-0.0276345 0.00110231 0)
(-0.0278079 -1.34464e-05 0)
(-0.0276049 -0.00115581 0)
(-0.0270191 -0.00231114 0)
(-0.0260485 -0.00346383 0)
(-0.0246967 -0.00459573 0)
(-0.0229733 -0.00568546 0)
(-0.0208956 -0.00670683 0)
(-0.0184906 -0.00762497 0)
(-0.0157985 -0.00838859 0)
(-0.0128791 -0.00891642 0)
(-0.00982384 -0.00907962 0)
(-0.00677 -0.00868919 0)
(-0.0039048 -0.00750829 0)
(-0.00151285 -0.00531441 0)
(-0.000239908 -0.00203557 0)
(-0.00024746 0.0026794 0)
(-0.0015362 0.00673096 0)
(-0.00392856 0.00933761 0)
(-0.00676396 0.0107119 0)
(-0.0097701 0.0111886 0)
(-0.0127847 0.0110756 0)
(-0.0156964 0.0105933 0)
(-0.0184347 0.0098739 0)
(-0.0209518 0.00898832 0)
(-0.0232117 0.00797261 0)
(-0.0251846 0.00684644 0)
(-0.0268442 0.00562285 0)
(-0.0281676 0.00431282 0)
(-0.0291345 0.00292726 0)
(-0.0297272 0.00147793 0)
(-0.0299311 -2.19229e-05 0)
(-0.0297341 -0.00155747 0)
(-0.0291279 -0.00311079 0)
(-0.028109 -0.00466142 0)
(-0.0266788 -0.00618533 0)
(-0.0248456 -0.00765396 0)
(-0.0226256 -0.00903206 0)
(-0.0200459 -0.0102728 0)
(-0.017148 -0.0113077 0)
(-0.0139952 -0.0120294 0)
(-0.0106857 -0.0122688 0)
(-0.00736834 -0.0117768 0)
(-0.00424808 -0.0102348 0)
(-0.00163895 -0.00732522 0)
(-0.000255796 -0.00288228 0)
(-0.000260608 0.00353287 0)
(-0.00163539 0.00873074 0)
(-0.00419466 0.0120183 0)
(-0.00722496 0.0137255 0)
(-0.0104327 0.0142992 0)
(-0.0136446 0.0141342 0)
(-0.0167437 0.0135076 0)
(-0.0196567 0.0125844 0)
(-0.0223347 0.0114527 0)
(-0.0247412 0.0101574 0)
(-0.0268456 0.00872326 0)
(-0.0286214 0.00716683 0)
(-0.0300448 0.00550183 0)
(-0.0310946 0.00374171 0)
(-0.0317516 0.00190076 0)
(-0.0319997 -5.09071e-06 0)
(-0.0318246 -0.00195718 0)
(-0.031215 -0.00393439 0)
(-0.0301646 -0.00591137 0)
(-0.0286718 -0.00785808 0)
(-0.0267418 -0.00973833 0)
(-0.0243884 -0.011507 0)
(-0.0216377 -0.0131039 0)
(-0.018532 -0.0144414 0)
(-0.0151388 -0.0153828 0)
(-0.0115645 -0.0157141 0)
(-0.00797288 -0.0151192 0)
(-0.0045903 -0.0131892 0)
(-0.00176271 -0.00950072 0)
(-0.000271009 -0.00379007 0)
(-0.000275516 0.00443822 0)
(-0.00174174 0.0108633 0)
(-0.00447708 0.0148787 0)
(-0.00771473 0.0169387 0)
(-0.0111387 0.0176121 0)
(-0.0145638 0.0173885 0)
(-0.0178661 0.0166066 0)
(-0.0209693 0.0154667 0)
(-0.0238233 0.0140749 0)
(-0.0263909 0.0124857 0)
(-0.0286415 0.010729 0)
(-0.0305482 0.00882447 0)
(-0.0320867 0.0067885 0)
(-0.0332349 0.00463667 0)
(-0.0339723 0.00238529 0)
(-0.0342801 5.25225e-05 0)
(-0.0341415 -0.00234018 0)
(-0.0335421 -0.00476857 0)
(-0.0324709 -0.00720289 0)
(-0.0309217 -0.00960712 0)
(-0.028895 -0.0119371 0)
(-0.026401 -0.0141369 0)
(-0.0234633 -0.0161309 0)
(-0.0201247 -0.0178094 0)
(-0.0164571 -0.0190021 0)
(-0.0125779 -0.0194439 0)
(-0.00866965 -0.018744 0)
(-0.00498504 -0.0163937 0)
(-0.00190726 -0.0118554 0)
(-0.000290017 -0.00476521 0)
(-0.000294176 0.00540377 0)
(-0.00186689 0.0131446 0)
(-0.00480362 0.0179397 0)
(-0.0082778 0.0203753 0)
(-0.0119486 0.0211523 0)
(-0.0156169 0.0208633 0)
(-0.0191512 0.0199142 0)
(-0.0224714 0.0185433 0)
(-0.0255264 0.0168764 0)
(-0.0282785 0.0149778 0)
(-0.0306972 0.0128829 0)
(-0.0327556 0.0106145 0)
(-0.0344293 0.00819111 0)
(-0.0356953 0.00562996 0)
(-0.0365317 0.00294875 0)
(-0.0369173 0.000167104 0)
(-0.0368318 -0.00269237 0)
(-0.0362564 -0.00560239 0)
(-0.0351742 -0.00852956 0)
(-0.0335727 -0.0114323 0)
(-0.0314459 -0.0142581 0)
(-0.0287979 -0.0169389 0)
(-0.0256481 -0.0193817 0)
(-0.022039 -0.0214503 0)
(-0.0180473 -0.0229352 0)
(-0.0138039 -0.0235118 0)
(-0.00951485 -0.022705 0)
(-0.00546589 -0.0198961 0)
(-0.00208558 -0.0144244 0)
(-0.000314668 -0.00582343 0)
(-0.000317416 0.00644211 0)
(-0.00201707 0.015601 0)
(-0.00519036 0.0212345 0)
(-0.00894047 0.024071 0)
(-0.0128977 0.0249554 0)
(-0.0168474 0.0245928 0)
(-0.020649 0.0234623 0)
(-0.0242187 0.0218436 0)
(-0.0275041 0.0198841 0)
(-0.0304677 0.0176588 0)
(-0.0330793 0.0152085 0)
(-0.0353129 0.0125591 0)
(-0.0371441 0.00973096 0)
(-0.0385498 0.00674209 0)
(-0.0395067 0.00361065 0)
(-0.0399909 0.000356414 0)
(-0.0399782 -0.0029976 0)
(-0.0394441 -0.00642293 0)
(-0.0383645 -0.00988352 0)
(-0.0367183 -0.0133329 0)
(-0.0344902 -0.0167102 0)
(-0.0316753 -0.0199341 0)
(-0.0282862 -0.0228909 0)
(-0.0243627 -0.025413 0)
(-0.0199867 -0.0272436 0)
(-0.0153049 -0.0279883 0)
(-0.0105529 -0.027075 0)
(-0.00605832 -0.0237623 0)
(-0.00230657 -0.0172566 0)
(-0.000345825 -0.00698548 0)
(-0.000345738 0.00756823 0)
(-0.00219653 0.0182647 0)
(-0.00564855 0.0248038 0)
(-0.00972121 0.028069 0)
(-0.0140109 0.0290637 0)
(-0.0182849 0.0286164 0)
(-0.0223929 0.0272867 0)
(-0.026247 0.0254001 0)
(-0.0297938 0.0231274 0)
(-0.0329967 0.0205554 0)
(-0.0358269 0.0177306 0)
(-0.0382596 0.014682 0)
(-0.0402718 0.011431 0)
(-0.0418406 0.00799577 0)
(-0.0429419 0.00439355 0)
(-0.0435493 0.000642755 0)
(-0.0436341 -0.00323495 0)
(-0.043165 -0.0072119 0)
(-0.0421089 -0.0112512 0)
(-0.0404334 -0.0153029 0)
(-0.0381101 -0.0192983 0)
(-0.0351211 -0.0231415 0)
(-0.0314677 -0.0266949 0)
(-0.0271837 -0.0297528 0)
(-0.0223548 -0.0320004 0)
(-0.0171461 -0.0329597 0)
(-0.0118303 -0.0319448 0)
(-0.00678859 -0.0280754 0)
(-0.00257908 -0.0204132 0)
(-0.000384232 -0.00827611 0)
(-0.000379699 0.00879911 0)
(-0.00240941 0.0211735 0)
(-0.00618877 0.0286948 0)
(-0.0106371 0.0324186 0)
(-0.0153105 0.0335239 0)
(-0.0199556 0.0329766 0)
(-0.0244112 0.0314254 0)
(-0.0285853 0.0292462 0)
(-0.0324245 0.0266359 0)
(-0.0358938 0.0236942 0)
(-0.0389672 0.020474 0)
(-0.0416225 0.017007 0)
(-0.0438392 0.0133152 0)
(-0.0455956 0.0094157 0)
(-0.0468678 0.00532339 0)
(-0.0476272 0.00105325 0)
(-0.0478407 -0.00337686 0)
(-0.047469 -0.00794279 0)
(-0.046468 -0.0126097 0)
(-0.0447905 -0.0173265 0)
(-0.0423906 -0.022018 0)
(-0.0392313 -0.0265737 0)
(-0.035296 -0.030828 0)
(-0.0306066 -0.0345289 0)
(-0.0252493 -0.0372899 0)
(-0.0194097 -0.0385297 0)
(-0.0134064 -0.0374262 0)
(-0.00769042 -0.0329388 0)
(-0.00291451 -0.0239696 0)
(-0.000430867 -0.00972474 0)
(-0.000420099 0.0101541 0)
(-0.00266085 0.0243703 0)
(-0.00682356 0.032961 0)
(-0.0117076 0.0371746 0)
(-0.0168215 0.0383873 0)
(-0.0218879 0.0377188 0)
(-0.0267337 0.0359173 0)
(-0.0312631 0.033415 0)
(-0.0354242 0.0304381 0)
(-0.0391851 0.0271005 0)
(-0.0425239 0.023462 0)
(-0.0454233 0.019557 0)
(-0.0478666 0.0154075 0)
(-0.0498355 0.0110282 0)
(-0.0513072 0.00642962 0)
(-0.0522524 0.00162087 0)
(-0.0526333 -0.00338725 0)
(-0.0524025 -0.00857796 0)
(-0.0515025 -0.0139225 0)
(-0.0498675 -0.0193729 0)
(-0.0474283 -0.0248507 0)
(-0.0441205 -0.0302311 0)
(-0.0398999 -0.0353176 0)
(-0.0347669 -0.0398018 0)
(-0.0288009 -0.0432074 0)
(-0.0222082 -0.0448231 0)
(-0.0153643 -0.0436586 0)
(-0.00881165 -0.0384833 0)
(-0.00332902 -0.0280212 0)
(-0.000487071 -0.0113673 0)
(-0.000468111 0.0116556 0)
(-0.00295782 0.0279054 0)
(-0.00756929 0.0376641 0)
(-0.0129578 0.0423986 0)
(-0.0185751 0.0437096 0)
(-0.0241163 0.0428903 0)
(-0.0293955 0.0408014 0)
(-0.0343144 0.0379384 0)
(-0.0388237 0.03456 0)
(-0.0428972 0.0307963 0)
(-0.0465196 0.0267148 0)
(-0.0496805 0.0223526 0)
(-0.05237 0.0177308 0)
(-0.0545751 0.0128603 0)
(-0.0562765 0.00774504 0)
(-0.0574457 0.00238509 0)
(-0.0580416 -0.0032199 0)
(-0.0580084 -0.00906558 0)
(-0.0572736 -0.0151353 0)
(-0.0557492 -0.0213903 0)
(-0.0533351 -0.0277549 0)
(-0.0499288 -0.0340936 0)
(-0.0454447 -0.0401767 0)
(-0.0398455 -0.0456287 0)
(-0.033191 -0.0498598 0)
(-0.0257034 -0.0519915 0)
(-0.0178265 -0.0508191 0)
(-0.0102241 -0.0448791 0)
(-0.00384689 -0.0326922 0)
(-0.000554694 -0.0132489 0)
(-0.000525465 0.0133306 0)
(-0.00331012 0.0318382 0)
(-0.00844833 0.0428754 0)
(-0.0144209 0.0481605 0)
(-0.0206118 0.0495515 0)
(-0.0266846 0.0485406 0)
(-0.0324401 0.0461159 0)
(-0.0377793 0.0428449 0)
(-0.0426582 0.039023 0)
(-0.0470592 0.0347987 0)
(-0.0509767 0.0302478 0)
(-0.0544106 0.0254101 0)
(-0.0573606 0.0203052 0)
(-0.0598225 0.0149385 0)
(-0.0617835 0.00930498 0)
(-0.0632186 0.00339194 0)
(-0.0640859 -0.00281695 0)
(-0.0643224 -0.0093364 0)
(-0.0638399 -0.0161699 0)
(-0.0625248 -0.0232976 0)
(-0.0602383 -0.0306563 0)
(-0.0568267 -0.0381078 0)
(-0.0521428 -0.045391 0)
(-0.0460875 -0.0520531 0)
(-0.0386767 -0.0573613 0)
(-0.0301342 -0.0602185 0)
(-0.0209807 -0.0591374 0)
(-0.0120408 -0.0523548 0)
(-0.00450665 -0.0381514 0)
(-0.000636494 -0.0154289 0)
(-0.000594732 0.0152122 0)
(-0.0037317 0.0362409 0)
(-0.00949176 0.0486797 0)
(-0.0161421 0.0545398 0)
(-0.0229853 0.0559792 0)
(-0.0296493 0.0547198 0)
(-0.0359222 0.0518965 0)
(-0.0417071 0.048158 0)
(-0.0469692 0.0438418 0)
(-0.0517032 0.0391169 0)
(-0.0559175 0.0340683 0)
(-0.0596262 0.0287387 0)
(-0.0628429 0.0231453 0)
(-0.065576 0.0172865 0)
(-0.0678236 0.0111455 0)
(-0.0695681 0.00469327 0)
(-0.0707711 -0.00210826 0)
(-0.0713654 -0.00930083 0)
(-0.0712491 -0.0169184 0)
(-0.0702812 -0.0249738 0)
(-0.0682773 -0.0334321 0)
(-0.065017 -0.0421676 0)
(-0.0602658 -0.0508976 0)
(-0.0538262 -0.0590858 0)
(-0.0456276 -0.0658234 0)
(-0.0358623 -0.0697247 0)
(-0.0251248 -0.0689169 0)
(-0.0144485 -0.0612294 0)
(-0.00537385 -0.0446394 0)
(-0.00073742 -0.0179897 0)
(-0.000679837 0.0173427 0)
(-0.00424295 0.0412037 0)
(-0.0107436 0.0551795 0)
(-0.0181835 0.0616289 0)
(-0.0257674 0.0630648 0)
(-0.0330841 0.0614783 0)
(-0.0399112 0.0581738 0)
(-0.0461581 0.0538931 0)
(-0.0518051 0.0490208 0)
(-0.0568643 0.0437488 0)
(-0.0613633 0.0381724 0)
(-0.065335 0.032337 0)
(-0.068812 0.0262566 0)
(-0.0718202 0.0199214 0)
(-0.0743739 0.0133004 0)
(-0.0764687 0.00634401 0)
(-0.0780763 -0.00101334 0)
(-0.0791315 -0.00884744 0)
(-0.0795237 -0.0172375 0)
(-0.0790874 -0.0262466 0)
(-0.0775895 -0.0358917 0)
(-0.0747278 -0.0460865 0)
(-0.0701497 -0.0565502 0)
(-0.0635072 -0.0666695 0)
(-0.0545741 -0.075329 0)
(-0.0434408 -0.0807644 0)
(-0.0307421 -0.0805626 0)
(-0.0177671 -0.0719632 0)
(-0.00656743 -0.0525179 0)
(-0.000868312 -0.0210545 0)
(-0.000786993 0.019778 0)
(-0.00487426 0.0468424 0)
(-0.0122671 0.0625009 0)
(-0.0206317 0.0695352 0)
(-0.0290551 0.0708859 0)
(-0.0370852 0.0688637 0)
(-0.0444942 0.06497 0)
(-0.0512058 0.0600529 0)
(-0.0572222 0.0545495 0)
(-0.0625801 0.0486763 0)
(-0.067332 0.0425398 0)
(-0.0715358 0.0361878 0)
(-0.0752482 0.0296306 0)
(-0.0785188 0.0228488 0)
(-0.0813842 0.0157954 0)
(-0.0838614 0.00839766 0)
(-0.0859388 0.000557384 0)
(-0.0875652 -0.00784403 0)
(-0.0886339 -0.0169449 0)
(-0.0889635 -0.0268812 0)
(-0.0882766 -0.037754 0)
(-0.0861819 -0.0495597 0)
(-0.0821765 -0.062066 0)
(-0.0756956 -0.0746166 0)
(-0.0662504 -0.085877 0)
(-0.0536987 -0.0936008 0)
(-0.0386124 -0.0946091 0)
(-0.0225513 -0.0852374 0)
(-0.00831121 -0.0623581 0)
(-0.00105544 -0.0248251 0)
(-0.000926495 0.0225948 0)
(-0.00567222 0.0533095 0)
(-0.0141546 0.0708018 0)
(-0.0236076 0.078384 0)
(-0.0329784 0.079524 0)
(-0.0417768 0.0769165 0)
(-0.0497796 0.0722931 0)
(-0.0569364 0.0666216 0)
(-0.0632815 0.0603961 0)
(-0.0688849 0.0538591 0)
(-0.0738311 0.0471278 0)
(-0.0782091 0.0402519 0)
(-0.0821056 0.0332375 0)
(-0.0855998 0.0260548 0)
(-0.088758 0.0186405 0)
(-0.0916268 0.0108972 0)
(-0.0942233 0.00269189 0)
(-0.096525 -0.00614611 0)
(-0.0984476 -0.0158243 0)
(-0.0998154 -0.0265761 0)
(-0.100327 -0.038628 0)
(-0.0995085 -0.0521214 0)
(-0.0966881 -0.0669548 0)
(-0.0910104 -0.0825119 0)
(-0.0815762 -0.097277 0)
(-0.0677899 -0.108433 0)
(-0.0499294 -0.111729 0)
(-0.0297317 -0.102061 0)
(-0.011025 -0.0750902 0)
(-0.00136245 -0.029658 0)
(-0.00111631 0.0259026 0)
(-0.00671038 0.0608109 0)
(-0.0165426 0.0802817 0)
(-0.0272805 0.0883195 0)
(-0.0377099 0.0890593 0)
(-0.047314 0.0856621 0)
(-0.0558933 0.0801273 0)
(-0.0634405 0.0735549 0)
(-0.0700359 0.0664983 0)
(-0.0757925 0.0592253 0)
(-0.0808351 0.0518619 0)
(-0.0852901 0.0444586 0)
(-0.0892798 0.037016 0)
(-0.0929187 0.0294942 0)
(-0.0963091 0.0218145 0)
(-0.0995362 0.0138563 0)
(-0.10266 0.00545217 0)
(-0.105703 -0.00362113 0)
(-0.10863 -0.0136484 0)
(-0.111306 -0.0249807 0)
(-0.113448 -0.0380149 0)
(-0.114538 -0.0531187 0)
(-0.113746 -0.0704474 0)
(-0.10987 -0.0895866 0)
(-0.101429 -0.10898 0)
(-0.0870529 -0.125231 0)
(-0.0662969 -0.132659 0)
(-0.0407374 -0.123871 0)
(-0.0154593 -0.0922247 0)
(-0.00193549 -0.0362104 0)
(-0.00138945 0.0298655 0)
(-0.00810806 0.0696309 0)
(-0.0196342 0.0911919 0)
(-0.0318839 0.0995011 0)
(-0.0434683 0.0995578 0)
(-0.0538741 0.0950938 0)
(-0.0629578 0.0884153 0)
(-0.07078 0.0807629 0)
(-0.0774846 0.072747 0)
(-0.0832401 0.0646558 0)
(-0.0882194 0.0566204 0)
(-0.0925926 0.0486891 0)
(-0.0965225 0.0408558 0)
(-0.100163 0.0330709 0)
(-0.103656 0.025242 0)
(-0.107132 0.0172306 0)
(-0.110706 0.0088413 0)
(-0.114464 -0.000193736 0)
(-0.118447 -0.0102351 0)
(-0.12261 -0.0217581 0)
(-0.126752 -0.0353678 0)
(-0.130392 -0.0517484 0)
(-0.132609 -0.0714823 0)
(-0.131866 -0.0946186 0)
(-0.125961 -0.119869 0)
(-0.112376 -0.143443 0)
(-0.0892983 -0.157942 0)
(-0.0573911 -0.152488 0)
(-0.0228372 -0.116091 0)
(-0.00308614 -0.0456872 0)
(-0.00180948 0.0347405 0)
(-0.0100636 0.0801666 0)
(-0.0237293 0.103841 0)
(-0.0377255 0.112085 0)
(-0.0505011 0.111041 0)
(-0.0616095 0.105139 0)
(-0.0710159 0.0970242 0)
(-0.0788842 0.0880767 0)
(-0.0854438 0.078953 0)
(-0.0909327 0.0699523 0)
(-0.0955816 0.0612034 0)
(-0.0996093 0.0527469 0)
(-0.103222 0.0445671 0)
(-0.106613 0.0366043 0)
(-0.109966 0.0287563 0)
(-0.113457 0.0208733 0)
(-0.117257 0.0127453 0)
(-0.121527 0.00407661 0)
(-0.126407 -0.00555074 0)
(-0.131986 -0.0167235 0)
(-0.138224 -0.0302608 0)
(-0.144795 -0.047242 0)
(-0.150837 -0.0688651 0)
(-0.154612 -0.0959978 0)
(-0.153215 -0.128138 0)
(-0.142712 -0.161614 0)
(-0.119195 -0.187344 0)
(-0.0811761 -0.189647 0)
(-0.0348667 -0.149887 0)
(-0.00542592 -0.0602014 0)
(-0.00250313 0.0409494 0)
(-0.0129121 0.0929719 0)
(-0.0292574 0.118581 0)
(-0.0451638 0.126167 0)
(-0.0589945 0.123414 0)
(-0.0704912 0.115581 0)
(-0.0798101 0.105669 0)
(-0.0872671 0.0951741 0)
(-0.0932061 0.0847774 0)
(-0.0979525 0.0747718 0)
(-0.101805 0.0652711 0)
(-0.105037 0.0562991 0)
(-0.107896 0.0478245 0)
(-0.110613 0.039775 0)
(-0.113405 0.0320404 0)
(-0.116482 0.0244683 0)
(-0.120064 0.0168497 0)
(-0.124377 0.00888885 0)
(-0.129656 0.000145251 0)
(-0.136134 -0.0100553 0)
(-0.143995 -0.0226896 0)
(-0.153196 -0.0392576 0)
(-0.163152 -0.0617229 0)
(-0.17224 -0.0921442 0)
(-0.177185 -0.131486 0)
(-0.172774 -0.177115 0)
(-0.152556 -0.218953 0)
(-0.111432 -0.235769 0)
(-0.0532833 -0.197098 0)
(-0.010019 -0.0831797 0)
(-0.00372851 0.0492124 0)
(-0.0172217 0.108794 0)
(-0.0367839 0.13572 0)
(-0.0544749 0.141639 0)
(-0.0687898 0.136295 0)
(-0.0798777 0.12589 0)
(-0.0882146 0.113745 0)
(-0.0943378 0.101421 0)
(-0.0987473 0.0895847 0)
(-0.10188 0.0784939 0)
(-0.104117 0.0682271 0)
(-0.105785 0.0587751 0)
(-0.107172 0.050079 0)
(-0.10853 0.0420463 0)
(-0.110092 0.0345562 0)
(-0.11208 0.0274575 0)
(-0.114726 0.0205554 0)
(-0.118288 0.0135804 0)
(-0.123069 0.00612187 0)
(-0.129379 -0.00249732 0)
(-0.137604 -0.0134198 0)
(-0.148071 -0.0283997 0)
(-0.160685 -0.0501906 0)
(-0.174414 -0.0822769 0)
(-0.186386 -0.127735 0)
(-0.190977 -0.186178 0)
(-0.17959 -0.248176 0)
(-0.142561 -0.287848 0)
(-0.0782362 -0.25961 0)
(-0.0182772 -0.119436 0)
(-0.0060143 0.0608109 0)
(-0.0239431 0.128544 0)
(-0.0468933 0.15525 0)
(-0.0653973 0.157816 0)
(-0.0785982 0.148629 0)
(-0.0874397 0.134845 0)
(-0.0929198 0.11998 0)
(-0.0959024 0.105564 0)
(-0.0971012 0.0921794 0)
(-0.0970936 0.0800045 0)
(-0.096345 0.0690457 0)
(-0.0952302 0.0592328 0)
(-0.0940522 0.0504582 0)
(-0.0930596 0.0425934 0)
(-0.0924644 0.0354971 0)
(-0.0924599 0.0290149 0)
(-0.0932405 0.0229681 0)
(-0.0950244 0.017125 0)
(-0.0980844 0.011138 0)
(-0.102796 0.00441234 0)
(-0.109566 -0.00418046 0)
(-0.118956 -0.0165782 0)
(-0.131533 -0.0360065 0)
(-0.147298 -0.0672231 0)
(-0.164845 -0.115656 0)
(-0.179854 -0.1843 0)
(-0.183333 -0.267059 0)
(-0.161555 -0.336968 0)
(-0.104911 -0.333853 0)
(-0.0308015 -0.173985 0)
(-0.0104305 0.0781504 0)
(-0.0345927 0.153041 0)
(-0.0596157 0.176146 0)
(-0.0757623 0.172623 0)
(-0.0839954 0.157906 0)
(-0.086708 0.139847 0)
(-0.0857201 0.121872 0)
(-0.0823479 0.105296 0)
(-0.0775603 0.0904999 0)
(-0.0720613 0.0774951 0)
(-0.0663591 0.0661555 0)
(-0.0608179 0.0563076 0)
(-0.0556967 0.0477651 0)
(-0.0511803 0.0403437 0)
(-0.0474041 0.033867 0)
(-0.0444757 0.0281662 0)
(-0.0424955 0.0230697 0)
(-0.0415775 0.0183783 0)
(-0.0418788 0.0138074 0)
(-0.0436446 0.00886986 0)
(-0.0472734 0.00265541 0)
(-0.0533729 -0.00668888 0)
(-0.0628705 -0.0224132 0)
(-0.076964 -0.0497887 0)
(-0.0964788 -0.0959862 0)
(-0.120547 -0.167767 0)
(-0.142892 -0.265371 0)
(-0.148337 -0.367359 0)
(-0.120028 -0.406156 0)
(-0.044472 -0.249078 0)
(-0.0189814 0.105588 0)
(-0.0510619 0.181652 0)
(-0.0719701 0.194696 0)
(-0.0773701 0.181027 0)
(-0.0724611 0.158904 0)
(-0.0619408 0.13607 0)
(-0.048653 0.11521 0)
(-0.0343001 0.0970838 0)
(-0.0199526 0.0816525 0)
(-0.00625163 0.0686311 0)
(0.00643541 0.057687 0)
(0.017914 0.0485017 0)
(0.0280997 0.0407891 0)
(0.0369761 0.034299 0)
(0.0445659 0.0288156 0)
(0.0509087 0.0241512 0)
(0.0560457 0.0201344 0)
(0.0600048 0.0165868 0)
(0.06278 0.0132766 0)
(0.064293 0.00982718 0)
(0.0643092 0.00553656 0)
(0.0622657 -0.000979428 0)
(0.0571464 -0.0124561 0)
(0.0470868 -0.0335724 0)
(0.0293241 -0.0716753 0)
(0.00025087 -0.136276 0)
(-0.0402351 -0.234758 0)
(-0.0803023 -0.359583 0)
(-0.10318 -0.451552 0)
(-0.0496076 -0.33923 0)
(-0.0336107 0.148445 0)
(-0.0706454 0.206157 0)
(-0.0664556 0.1989 0)
(-0.0431148 0.171056 0)
(-0.0116279 0.141389 0)
(0.0214547 0.115381 0)
(0.0531506 0.0938823 0)
(0.0822736 0.0764726 0)
(0.108338 0.0624619 0)
(0.131289 0.0511958 0)
(0.151281 0.0421248 0)
(0.168555 0.0348031 0)
(0.183385 0.0288733 0)
(0.196045 0.0240504 0)
(0.206792 0.0201064 0)
(0.215855 0.0168571 0)
(0.223433 0.0141462 0)
(0.229686 0.0118238 0)
(0.234725 0.00970976 0)
(0.238587 0.00752548 0)
(0.241156 0.00477018 0)
(0.241904 0.00050848 0)
(0.239883 -0.00695084 0)
(0.232993 -0.0208749 0)
(0.217333 -0.0467761 0)
(0.186821 -0.0937684 0)
(0.134057 -0.173668 0)
(0.0617499 -0.298272 0)
(-0.0329647 -0.439153 0)
(-0.029246 -0.417645 0)
(-0.0367595 0.238007 0)
(-0.0435189 0.208037 0)
(0.034787 0.157232 0)
(0.10721 0.119438 0)
(0.173245 0.0903969 0)
(0.230285 0.0685293 0)
(0.278162 0.0524408 0)
(0.317939 0.0405775 0)
(0.35087 0.0317251 0)
(0.378116 0.0250469 0)
(0.400676 0.0199656 0)
(0.419385 0.0160696 0)
(0.434936 0.0130592 0)
(0.447895 0.0107138 0)
(0.458721 0.00887045 0)
(0.467785 0.00740551 0)
(0.475381 0.00622044 0)
(0.481731 0.00522541 0)
(0.486981 0.00431756 0)
(0.49117 0.00334462 0)
(0.494158 0.00204463 0)
(0.49551 -6.94991e-05 0)
(0.49426 -0.00376305 0)
(0.488244 -0.0106827 0)
(0.473267 -0.023551 0)
(0.443165 -0.0476092 0)
(0.385229 -0.0921377 0)
(0.294302 -0.182219 0)
(0.12124 -0.334692 0)
(0.0536001 -0.41309 0)
(0.231512 0.158622 0)
(0.29324 0.118324 0)
(0.445266 0.0771341 0)
(0.545925 0.0515278 0)
(0.613608 0.0346868 0)
(0.662332 0.0233562 0)
(0.698332 0.015853 0)
(0.725211 0.0109149 0)
(0.745538 0.00763909 0)
(0.761146 0.00544104 0)
(0.773305 0.00395153 0)
(0.782904 0.0029329 0)
(0.790581 0.00222927 0)
(0.796798 0.00173761 0)
(0.801895 0.00138933 0)
(0.806119 0.00113791 0)
(0.809653 0.000950054 0)
(0.812619 0.000798135 0)
(0.815082 0.000652607 0)
(0.817036 0.000473143 0)
(0.818341 0.000198592 0)
(0.818668 -0.000276869 0)
(0.817187 -0.00115599 0)
(0.812478 -0.002867 0)
(0.801251 -0.00601991 0)
(0.779923 -0.0120716 0)
(0.733918 -0.0232977 0)
(0.661156 -0.0482249 0)
(0.458623 -0.111558 0)
(0.314468 -0.179743 0)
)
;

boundaryField
{
    movingWall
    {
        type            fixedValue;
        value           uniform (1 0 0);
    }
    fixedWalls
    {
        type            noSlip;
    }
    frontAndBack
    {
        type            empty;
    }
}


// ************************************************************************* //
