/*--------------------------------*- C++ -*----------------------------------*\
  =========                 |
  \\      /  F ield         | OpenFOAM: The Open Source CFD Toolbox
   \\    /   O peration     | Website:  https://openfoam.org
    \\  /    A nd           | Version:  7
     \\/     M anipulation  |
\*---------------------------------------------------------------------------*/
FoamFile
{
    version     2.0;
    format      ascii;
    class       volScalarField;
    location    "1.41";
    object      p;
}
// * * * * * * * * * * * * * * * * * * * * * * * * * * * * * * * * * * * * * //

dimensions      [0 2 -2 0 0 0 0];

internalField   nonuniform List<scalar> 
1936
(
-2.06893e-05
-3347.6
-6341.84
-5423.74
-4193.54
-3608.88
-3388.13
-3881.59
-5887.27
-7272.99
-5534.46
-3507.89
-2999.93
-3012.63
-3715.48
-5599.68
-6812.74
-5394.9
-3461.37
-2848.39
-2865.59
-3558.98
-5843.37
-7248.35
-5420.88
-3331.66
-2773.78
-2795.89
-3467.77
-5360.32
-6841.61
-5585.18
-3472.11
-2793.19
-2831.9
-3701.56
-6202.93
-7153.41
-4849.2
-2953.31
-2649.11
-2769.15
-4151.78
-6642.98
-85.4049
-3299.34
-6280.44
-5420.02
-4214.63
-3648.31
-3430.3
-3884.84
-5837.29
-7198.66
-5488.46
-3517.12
-3049.3
-3066.69
-3738.85
-5577.85
-6763.92
-5370.67
-3487.72
-2905.87
-2914.12
-3558.54
-5782.92
-7171.22
-5379.25
-3340.79
-2823
-2852.1
-3494.92
-5344.32
-6791.49
-5552.58
-3494.99
-2853.19
-2881.29
-3695.41
-6136.43
-7079.13
-4817.56
-2977.54
-2707.16
-2821.07
-4154.12
-6596.61
-361.441
-3165.68
-6048.82
-5412.91
-4290
-3746.17
-3531.97
-3915.97
-5709.08
-6965.25
-5376.18
-3562.63
-3164.22
-3202.99
-3823.04
-5519.84
-6602.55
-5308.09
-3578.17
-3046.57
-3030.02
-3582.54
-5623.38
-6929.03
-5280.74
-3389.28
-2938.89
-2991.75
-3589.76
-5306.65
-6625.35
-5462.91
-3577.79
-2999.04
-3000.9
-3707.65
-5951.21
-6845.45
-4756.57
-3058.83
-2838.37
-2962.51
-4187.78
-6447.51
-747.329
-3025.4
-5696.43
-5359.35
-4382.29
-3875.3
-3677.58
-3986.13
-5536.44
-6620.87
-5229.65
-3652.19
-3327.77
-3384.64
-3937.14
-5423
-6349.86
-5210.99
-3703.31
-3233.51
-3195.97
-3644.27
-5408.58
-6568.89
-5147.29
-3482.89
-3106.53
-3178.41
-3718.66
-5237.14
-6364.1
-5328.5
-3694.5
-3193.31
-3173.25
-3753.1
-5693.68
-6496.37
-4681.82
-3193.98
-3022.13
-3156.55
-4232.86
-6210.69
-1185.75
-2925.15
-5282.85
-5247.31
-4461.41
-4009.58
-3842.57
-4085.44
-5348.95
-6224.9
-5075.43
-3775.58
-3517.73
-3578.8
-4053.95
-5297.53
-6045.33
-5091.31
-3834.61
-3433.33
-3388.2
-3737.38
-5177.87
-6151.39
-5000.08
-3610.79
-3304.64
-3380.07
-3852.48
-5139.92
-6048.32
-5169.11
-3818.04
-3400.66
-3372.39
-3827.32
-5410.8
-6091.28
-4605.13
-3365.22
-3233.12
-3366.05
-4272.94
-5922.96
-1638.58
-2892.56
-4864.61
-5075.79
-4509.02
-4131.45
-4006.15
-4196.64
-5165.47
-5824.28
-4930.68
-3919
-3716.38
-3767.57
-4157.86
-5151.68
-5720.38
-4957.71
-3956.02
-3628
-3588.06
-3851.05
-4958.91
-5726.33
-4853.06
-3758.94
-3514.35
-3578.99
-3975.11
-5018.83
-5710.69
-4999.36
-3933.74
-3601.18
-3577.59
-3921.51
-5137.03
-5678.09
-4533.44
-3553.86
-3452.06
-3569.68
-4299.16
-5613.54
-2078.77
-2934.96
-4491.87
-4861.47
-4516.3
-4231.81
-4149.52
-4299.41
-4996.28
-5453.37
-4805.47
-4065.4
-3907.99
-3940
-4244.26
-4995.98
-5400.89
-4820.99
-4062.85
-3807.42
-3779.17
-3970.97
-4769.68
-5331.73
-4716.27
-3909.38
-3719.03
-3764.13
-4080.7
-4882.33
-5378.69
-4833.26
-4036.86
-3784.48
-3771.48
-4022.81
-4895.53
-5293.48
-4470.42
-3740.85
-3661.87
-3754.57
-4314.02
-5306.66
-2488.03
-3044.06
-4199.92
-4634.08
-4485.3
-4303.17
-4259.38
-4377.8
-4844.25
-5134.55
-4702.22
-4199.4
-4078.89
-4091
-4313.25
-4841.54
-5108.82
-4693.64
-4154.44
-3965.82
-3949.19
-4084.04
-4617.05
-4994.67
-4595.41
-4046.92
-3903.93
-3929.26
-4168.51
-4741.58
-5075.39
-4684.47
-4126.3
-3944.68
-3941.69
-4118.91
-4697.15
-4963.94
-4416.37
-3910.63
-3849.13
-3914.48
-4322.57
-5023.43
-2853.73
-3201.2
-4005.37
-4425.87
-4424.71
-4339.72
-4329.24
-4423.83
-4711.87
-4879.57
-4619.25
-4308.41
-4218.87
-4216.98
-4363.87
-4701.12
-4861.21
-4584.95
-4230.16
-4100.12
-4089.53
-4179.79
-4502.25
-4730.54
-4496.34
-4159.93
-4058.2
-4070.25
-4236.24
-4610.82
-4818.77
-4561.4
-4200.68
-4078.91
-4080.07
-4199.49
-4545.85
-4704.57
-4372.24
-4051.86
-4005.46
-4048.32
-4326.32
-4780.11
-3166.49
-3381.02
-3906
-4261.42
-4347.92
-4341.69
-4361.12
-4437.27
-4601.25
-4689.72
-4554.09
-4384.41
-4322.58
-4312.97
-4396.22
-4585.35
-4668.31
-4501.08
-4288.99
-4206.11
-4196.98
-4251.01
-4422.8
-4543.82
-4422.97
-4241.83
-4176.91
-4181.4
-4283.45
-4502.54
-4619.77
-4468.28
-4258.03
-4183.59
-4184.62
-4257.88
-4440.07
-4520.17
-4339.71
-4159.29
-4126.71
-4154.11
-4325.38
-4587.83
-3421.25
-3558.81
-3883.26
-4152.67
-4272.29
-4318.67
-4362.36
-4424.73
-4512.99
-4558.34
-4503.32
-4426.51
-4389.36
-4376.28
-4411.81
-4499.2
-4532.31
-4442.44
-4329.86
-4281.32
-4272.06
-4297.56
-4373.83
-4427.64
-4375.77
-4294.17
-4259.23
-4259.53
-4312.83
-4423.22
-4480.53
-4404.1
-4297.25
-4256.76
-4256.86
-4294.43
-4374.02
-4404.96
-4319.64
-4232.38
-4213.49
-4229.74
-4320.85
-4451.28
-3620.21
-3714.15
-3909.25
-4097.52
-4213.93
-4285.82
-4343.5
-4395.86
-4445.45
-4473.16
-4463.59
-4440.39
-4422.64
-4409.18
-4414.68
-4441.56
-4447.18
-4404.92
-4353.34
-4327.48
-4318.6
-4324.4
-4348.45
-4366.7
-4350.63
-4323.39
-4308.93
-4306.74
-4327.63
-4372.21
-4394.95
-4364.03
-4319.58
-4301.25
-4300.59
-4313.97
-4338.7
-4344.63
-4310.65
-4276.69
-4268.6
-4276.38
-4315.06
-4366.98
-3770.03
-3838.57
-3957.85
-4082
-4179.9
-4255
-4314.7
-4360.78
-4395.66
-4419.7
-4431.84
-4434.82
-4429.98
-4418.16
-4408.86
-4406.62
-4400.47
-4382.7
-4363.03
-4350.87
-4342.9
-4338.06
-4338.84
-4341.92
-4340.43
-4336.95
-4333.5
-4330.01
-4332.77
-4344.03
-4350.26
-4341.79
-4329.17
-4323.7
-4322.44
-4322.74
-4323.82
-4320.45
-4309.37
-4300.3
-4298.44
-4300.16
-4310.32
-4323.76
-3885.33
-3932.44
-4007.77
-4090.36
-4166.54
-4232.62
-4286.97
-4328.56
-4359.92
-4385.1
-4405.42
-4418.41
-4420.8
-4412.2
-4398.51
-4386.68
-4377.65
-4370.16
-4364.3
-4359.22
-4352.5
-4344.24
-4337.82
-4336.04
-4338.12
-4341.52
-4341.98
-4338.04
-4333.15
-4331.23
-4331.35
-4331.21
-4331.36
-4331.87
-4330.42
-4326.03
-4320.22
-4315.16
-4311.85
-4311.26
-4311.45
-4309.63
-4307.85
-4306.99
-3975.84
-4005.31
-4053.19
-4108.94
-4165.83
-4219.15
-4265.48
-4303.3
-4333.94
-4360.01
-4381.93
-4397.09
-4402.34
-4397.35
-4386.19
-4374.75
-4366.85
-4363.19
-4361.82
-4359.58
-4354.27
-4346.6
-4339.86
-4337.21
-4338.77
-4341.91
-4342.54
-4338.58
-4332.15
-4326.91
-4325.33
-4327.18
-4330.59
-4332.91
-4331.79
-4327.02
-4321.11
-4316.69
-4315.25
-4315.72
-4315.51
-4312.38
-4307.51
-4303.39
-4047.69
-4064.69
-4094.38
-4131.6
-4172.41
-4213.42
-4251.32
-4284.75
-4313.76
-4338.9
-4359.71
-4374.37
-4381.06
-4379.83
-4373.48
-4366.15
-4360.98
-4358.8
-4358.1
-4356.51
-4352.54
-4346.9
-4341.87
-4339.36
-4339.54
-4340.63
-4340.11
-4336.67
-4331.47
-4327.09
-4325.43
-4326.77
-4329.46
-4331.22
-4330.29
-4326.91
-4322.71
-4319.52
-4318.03
-4317.47
-4316.25
-4313.06
-4308.87
-4305.63
-4104.43
-4113.92
-4131.85
-4156.01
-4184.17
-4214.06
-4243.87
-4271.85
-4297.37
-4319.93
-4338.63
-4352.3
-4360.09
-4362.33
-4360.74
-4357.8
-4355.44
-4354.29
-4353.63
-4352.25
-4349.5
-4345.86
-4342.5
-4340.4
-4339.6
-4339.11
-4337.74
-4334.92
-4331.32
-4328.31
-4326.97
-4327.38
-4328.58
-4329.24
-4328.46
-4326.35
-4323.74
-4321.4
-4319.69
-4318.26
-4316.44
-4313.85
-4311.09
-4309.1
-4148.78
-4154.18
-4164.98
-4180.35
-4199.21
-4220.25
-4242.23
-4264.12
-4284.92
-4303.82
-4319.93
-4332.48
-4341.03
-4345.86
-4347.9
-4348.43
-4348.48
-4348.49
-4348.27
-4347.42
-4345.78
-4343.63
-4341.54
-4339.9
-4338.72
-4337.57
-4336.01
-4333.86
-4331.48
-4329.49
-4328.36
-4328.09
-4328.16
-4328
-4327.21
-4325.79
-4324.04
-4322.29
-4320.65
-4319.03
-4317.27
-4315.35
-4313.61
-4312.47
-4183.11
-4186.34
-4192.97
-4202.75
-4215.17
-4229.54
-4245.13
-4261.22
-4277.07
-4291.96
-4305.22
-4316.29
-4324.89
-4331.09
-4335.33
-4338.12
-4340
-4341.22
-4341.85
-4341.85
-4341.26
-4340.27
-4339.14
-4338.05
-4337.02
-4335.91
-4334.61
-4333.09
-4331.54
-4330.17
-4329.18
-4328.53
-4328.03
-4327.44
-4326.58
-4325.47
-4324.19
-4322.83
-4321.45
-4320.06
-4318.66
-4317.33
-4316.25
-4315.59
-4209.41
-4211.44
-4215.64
-4221.94
-4230.1
-4239.76
-4250.51
-4261.9
-4273.47
-4284.69
-4295.13
-4304.41
-4312.3
-4318.76
-4323.87
-4327.84
-4330.87
-4333.11
-4334.66
-4335.58
-4335.97
-4335.94
-4335.66
-4335.21
-4334.63
-4333.93
-4333.09
-4332.14
-4331.15
-4330.22
-4329.39
-4328.67
-4327.98
-4327.25
-4326.43
-4325.5
-4324.5
-4323.46
-4322.41
-4321.36
-4320.37
-4319.49
-4318.83
-4318.44
-4229.29
-4230.62
-4233.36
-4237.49
-4242.9
-4249.39
-4256.73
-4264.66
-4272.88
-4281.14
-4289.11
-4296.56
-4303.31
-4309.25
-4314.37
-4318.68
-4322.25
-4325.13
-4327.38
-4329.07
-4330.27
-4331.06
-4331.53
-4331.74
-4331.74
-4331.56
-4331.24
-4330.79
-4330.26
-4329.69
-4329.1
-4328.51
-4327.89
-4327.24
-4326.55
-4325.82
-4325.06
-4324.29
-4323.53
-4322.81
-4322.16
-4321.6
-4321.19
-4320.96
-4244
-4244.9
-4246.74
-4249.51
-4253.16
-4257.58
-4262.64
-4268.18
-4274.04
-4280.06
-4286.06
-4291.88
-4297.41
-4302.53
-4307.18
-4311.34
-4314.99
-4318.13
-4320.79
-4322.99
-4324.77
-4326.19
-4327.27
-4328.07
-4328.62
-4328.97
-4329.13
-4329.14
-4329.02
-4328.81
-4328.51
-4328.16
-4327.74
-4327.29
-4326.79
-4326.28
-4325.74
-4325.22
-4324.71
-4324.23
-4323.82
-4323.47
-4323.23
-4323.09
-4253.71
-4254.37
-4255.68
-4257.66
-4260.29
-4263.48
-4267.16
-4271.24
-4275.62
-4280.19
-4284.86
-4289.52
-4294.07
-4298.43
-4302.55
-4306.38
-4309.88
-4313.03
-4315.83
-4318.28
-4320.4
-4322.19
-4323.69
-4324.91
-4325.89
-4326.64
-4327.2
-4327.57
-4327.8
-4327.89
-4327.88
-4327.77
-4327.58
-4327.34
-4327.05
-4326.73
-4326.39
-4326.04
-4325.71
-4325.41
-4325.14
-4324.93
-4324.78
-4324.69
-4259.22
-4259.74
-4260.77
-4262.34
-4264.43
-4266.97
-4269.92
-4273.22
-4276.79
-4280.57
-4284.47
-4288.43
-4292.37
-4296.24
-4299.97
-4303.52
-4306.85
-4309.94
-4312.76
-4315.31
-4317.58
-4319.58
-4321.31
-4322.79
-4324.03
-4325.04
-4325.86
-4326.48
-4326.94
-4327.26
-4327.44
-4327.52
-4327.51
-4327.42
-4327.28
-4327.1
-4326.89
-4326.66
-4326.44
-4326.24
-4326.06
-4325.91
-4325.81
-4325.76
-4262.07
-4262.52
-4263.41
-4264.77
-4266.58
-4268.79
-4271.37
-4274.26
-4277.41
-4280.77
-4284.27
-4287.85
-4291.46
-4295.04
-4298.55
-4301.93
-4305.15
-4308.19
-4311.01
-4313.61
-4315.96
-4318.07
-4319.94
-4321.56
-4322.96
-4324.13
-4325.1
-4325.89
-4326.49
-4326.94
-4327.26
-4327.46
-4327.55
-4327.57
-4327.52
-4327.42
-4327.28
-4327.13
-4326.97
-4326.82
-4326.69
-4326.58
-4326.5
-4326.46
-4263.4
-4263.81
-4264.63
-4265.88
-4267.55
-4269.59
-4271.98
-4274.67
-4277.62
-4280.76
-4284.05
-4287.45
-4290.89
-4294.33
-4297.72
-4301.03
-4304.2
-4307.22
-4310.05
-4312.68
-4315.09
-4317.27
-4319.22
-4320.94
-4322.43
-4323.71
-4324.78
-4325.65
-4326.35
-4326.88
-4327.28
-4327.54
-4327.7
-4327.77
-4327.77
-4327.71
-4327.62
-4327.51
-4327.38
-4327.25
-4327.14
-4327.05
-4326.98
-4326.95
-4263.84
-4264.24
-4265.02
-4266.22
-4267.82
-4269.8
-4272.1
-4274.7
-4277.54
-4280.6
-4283.81
-4287.12
-4290.5
-4293.89
-4297.24
-4300.52
-4303.69
-4306.71
-4309.57
-4312.23
-4314.69
-4316.92
-4318.93
-4320.71
-4322.27
-4323.6
-4324.73
-4325.66
-4326.41
-4326.99
-4327.42
-4327.72
-4327.91
-4328
-4328.03
-4327.99
-4327.91
-4327.81
-4327.69
-4327.58
-4327.47
-4327.39
-4327.33
-4327.3
-4263.81
-4264.2
-4264.97
-4266.15
-4267.73
-4269.68
-4271.96
-4274.53
-4277.35
-4280.38
-4283.57
-4286.87
-4290.24
-4293.63
-4296.99
-4300.28
-4303.47
-4306.52
-4309.4
-4312.1
-4314.59
-4316.86
-4318.91
-4320.73
-4322.32
-4323.69
-4324.84
-4325.8
-4326.57
-4327.16
-4327.61
-4327.92
-4328.11
-4328.21
-4328.23
-4328.19
-4328.11
-4328.01
-4327.89
-4327.77
-4327.67
-4327.58
-4327.52
-4327.49
-4263.6
-4263.99
-4264.75
-4265.94
-4267.52
-4269.47
-4271.76
-4274.34
-4277.17
-4280.22
-4283.42
-4286.75
-4290.13
-4293.54
-4296.93
-4300.25
-4303.46
-4306.54
-4309.45
-4312.17
-4314.69
-4316.98
-4319.05
-4320.88
-4322.48
-4323.86
-4325.02
-4325.97
-4326.73
-4327.32
-4327.75
-4328.05
-4328.23
-4328.31
-4328.32
-4328.27
-4328.17
-4328.06
-4327.93
-4327.8
-4327.69
-4327.6
-4327.54
-4327.5
-4263.39
-4263.78
-4264.55
-4265.74
-4267.34
-4269.31
-4271.62
-4274.23
-4277.1
-4280.17
-4283.42
-4286.77
-4290.2
-4293.64
-4297.05
-4300.4
-4303.64
-4306.73
-4309.66
-4312.4
-4314.92
-4317.22
-4319.28
-4321.1
-4322.69
-4324.05
-4325.19
-4326.11
-4326.85
-4327.4
-4327.8
-4328.07
-4328.21
-4328.27
-4328.24
-4328.16
-4328.05
-4327.91
-4327.76
-4327.62
-4327.5
-4327.4
-4327.34
-4327.3
-4263.29
-4263.68
-4264.45
-4265.66
-4267.28
-4269.29
-4271.63
-4274.28
-4277.18
-4280.3
-4283.58
-4286.97
-4290.42
-4293.89
-4297.33
-4300.7
-4303.95
-4307.06
-4309.99
-4312.72
-4315.24
-4317.52
-4319.56
-4321.36
-4322.91
-4324.23
-4325.32
-4326.2
-4326.89
-4327.39
-4327.74
-4327.95
-4328.04
-4328.04
-4327.97
-4327.85
-4327.7
-4327.53
-4327.37
-4327.21
-4327.08
-4326.98
-4326.91
-4326.87
-4263.38
-4263.77
-4264.55
-4265.77
-4267.42
-4269.46
-4271.83
-4274.51
-4277.45
-4280.59
-4283.89
-4287.31
-4290.78
-4294.27
-4297.72
-4301.1
-4304.35
-4307.46
-4310.38
-4313.1
-4315.6
-4317.85
-4319.86
-4321.61
-4323.12
-4324.39
-4325.42
-4326.24
-4326.86
-4327.29
-4327.57
-4327.7
-4327.73
-4327.66
-4327.53
-4327.35
-4327.14
-4326.93
-4326.74
-4326.56
-4326.42
-4326.31
-4326.24
-4326.21
-4263.71
-4264.09
-4264.88
-4266.12
-4267.79
-4269.84
-4272.23
-4274.92
-4277.86
-4281.02
-4284.33
-4287.75
-4291.24
-4294.73
-4298.18
-4301.55
-4304.81
-4307.9
-4310.81
-4313.51
-4315.97
-4318.19
-4320.16
-4321.87
-4323.32
-4324.53
-4325.49
-4326.24
-4326.78
-4327.13
-4327.33
-4327.38
-4327.31
-4327.16
-4326.94
-4326.68
-4326.41
-4326.13
-4325.88
-4325.67
-4325.5
-4325.39
-4325.32
-4325.3
-4264.3
-4264.69
-4265.47
-4266.71
-4268.37
-4270.41
-4272.79
-4275.46
-4278.39
-4281.53
-4284.83
-4288.25
-4291.73
-4295.21
-4298.66
-4302.02
-4305.26
-4308.35
-4311.24
-4313.91
-4316.34
-4318.53
-4320.45
-4322.11
-4323.51
-4324.65
-4325.55
-4326.23
-4326.69
-4326.96
-4327.06
-4327.02
-4326.86
-4326.6
-4326.28
-4325.92
-4325.54
-4325.18
-4324.84
-4324.56
-4324.35
-4324.21
-4324.15
-4324.14
-4265.21
-4265.59
-4266.35
-4267.54
-4269.15
-4271.13
-4273.45
-4276.08
-4278.96
-4282.07
-4285.35
-4288.74
-4292.21
-4295.68
-4299.12
-4302.47
-4305.7
-4308.77
-4311.64
-4314.29
-4316.69
-4318.84
-4320.73
-4322.34
-4323.69
-4324.77
-4325.61
-4326.21
-4326.6
-4326.78
-4326.8
-4326.66
-4326.4
-4326.04
-4325.6
-4325.12
-4324.62
-4324.13
-4323.67
-4323.27
-4322.97
-4322.76
-4322.7
-4322.71
-4266.51
-4266.83
-4267.52
-4268.57
-4270.07
-4271.94
-4274.16
-4276.71
-4279.53
-4282.59
-4285.83
-4289.2
-4292.65
-4296.11
-4299.53
-4302.88
-4306.1
-4309.15
-4312
-4314.63
-4317.02
-4319.14
-4320.99
-4322.56
-4323.86
-4324.89
-4325.67
-4326.21
-4326.52
-4326.63
-4326.56
-4326.34
-4325.98
-4325.51
-4324.96
-4324.35
-4323.72
-4323.07
-4322.45
-4321.89
-4321.42
-4321.06
-4320.94
-4320.94
-4268.29
-4268.41
-4268.95
-4269.74
-4271.05
-4272.76
-4274.86
-4277.3
-4280.05
-4283.05
-4286.25
-4289.6
-4293.02
-4296.47
-4299.89
-4303.23
-4306.44
-4309.48
-4312.32
-4314.94
-4317.3
-4319.4
-4321.22
-4322.76
-4324.02
-4325.01
-4325.74
-4326.22
-4326.47
-4326.51
-4326.37
-4326.06
-4325.61
-4325.05
-4324.39
-4323.66
-4322.88
-4322.07
-4321.27
-4320.48
-4319.79
-4319.15
-4318.9
-4318.72
-4270.71
-4270.31
-4270.55
-4270.95
-4272.01
-4273.52
-4275.48
-4277.81
-4280.48
-4283.43
-4286.6
-4289.92
-4293.33
-4296.77
-4300.18
-4303.52
-4306.72
-4309.76
-4312.6
-4315.2
-4317.55
-4319.63
-4321.42
-4322.94
-4324.17
-4325.12
-4325.81
-4326.24
-4326.44
-4326.43
-4326.22
-4325.85
-4325.32
-4324.67
-4323.92
-4323.07
-4322.16
-4321.19
-4320.19
-4319.15
-4318.17
-4317.11
-4316.59
-4315.92
-4273.89
-4272.42
-4272.21
-4272.1
-4272.88
-4274.17
-4275.99
-4278.22
-4280.83
-4283.73
-4286.86
-4290.17
-4293.57
-4297
-4300.41
-4303.74
-4306.95
-4309.98
-4312.81
-4315.41
-4317.75
-4319.82
-4321.6
-4323.09
-4324.29
-4325.22
-4325.87
-4326.27
-4326.43
-4326.38
-4326.12
-4325.69
-4325.1
-4324.38
-4323.54
-4322.6
-4321.57
-4320.46
-4319.27
-4317.97
-4316.68
-4315.09
-4314.15
-4312.41
-4277.92
-4274.56
-4273.78
-4273.08
-4273.58
-4274.68
-4276.37
-4278.53
-4281.07
-4283.94
-4287.05
-4290.34
-4293.74
-4297.17
-4300.58
-4303.91
-4307.12
-4310.15
-4312.98
-4315.57
-4317.91
-4319.96
-4321.73
-4323.21
-4324.4
-4325.3
-4325.93
-4326.31
-4326.44
-4326.35
-4326.05
-4325.58
-4324.95
-4324.17
-4323.27
-4322.26
-4321.13
-4319.9
-4318.56
-4317.03
-4315.43
-4313.24
-4311.76
-4308.1
-4282.73
-4276.53
-4275.08
-4273.83
-4274.09
-4275.03
-4276.64
-4278.73
-4281.23
-4284.07
-4287.17
-4290.46
-4293.85
-4297.28
-4300.69
-4304.03
-4307.23
-4310.27
-4313.1
-4315.69
-4318.02
-4320.07
-4321.83
-4323.3
-4324.47
-4325.36
-4325.98
-4326.34
-4326.45
-4326.33
-4326.01
-4325.51
-4324.85
-4324.04
-4323.09
-4322.02
-4320.83
-4319.51
-4318.06
-4316.34
-4314.49
-4311.74
-4309.62
-4303.09
-4287.96
-4278.09
-4276
-4274.32
-4274.42
-4275.25
-4276.79
-4278.84
-4281.33
-4284.15
-4287.24
-4290.52
-4293.92
-4297.35
-4300.76
-4304.09
-4307.3
-4310.34
-4313.17
-4315.76
-4318.09
-4320.13
-4321.89
-4323.35
-4324.52
-4325.41
-4326.01
-4326.36
-4326.45
-4326.33
-4325.99
-4325.48
-4324.79
-4323.96
-4322.99
-4321.89
-4320.66
-4319.28
-4317.75
-4315.92
-4313.88
-4310.7
-4307.95
-4297.72
-4292.9
-4279.07
-4276.49
-4274.58
-4274.57
-4275.35
-4276.87
-4278.9
-4281.37
-4284.19
-4287.28
-4290.55
-4293.94
-4297.38
-4300.79
-4304.12
-4307.33
-4310.37
-4313.2
-4315.79
-4318.12
-4320.16
-4321.92
-4323.38
-4324.54
-4325.42
-4326.03
-4326.36
-4326.46
-4326.33
-4325.99
-4325.46
-4324.77
-4323.92
-4322.94
-4321.82
-4320.57
-4319.17
-4317.6
-4315.71
-4313.58
-4310.15
-4306.92
-4292.71
-4296.85
-4279.5
-4276.66
-4274.66
-4274.63
-4275.39
-4276.89
-4278.92
-4281.38
-4284.2
-4287.29
-4290.56
-4293.95
-4297.39
-4300.8
-4304.13
-4307.34
-4310.38
-4313.21
-4315.8
-4318.13
-4320.17
-4321.93
-4323.39
-4324.55
-4325.43
-4326.03
-4326.37
-4326.46
-4326.32
-4325.98
-4325.45
-4324.76
-4323.91
-4322.92
-4321.8
-4320.55
-4319.14
-4317.56
-4315.64
-4313.47
-4309.97
-4306.47
-4288.74
)
;

boundaryField
{
    movingWall
    {
        type            zeroGradient;
    }
    fixedWalls
    {
        type            zeroGradient;
    }
    frontAndBack
    {
        type            empty;
    }
    defaultFaces
    {
        type            empty;
    }
}


// ************************************************************************* //
