/*--------------------------------*- C++ -*----------------------------------*\
  =========                 |
  \\      /  F ield         | OpenFOAM: The Open Source CFD Toolbox
   \\    /   O peration     | Website:  https://openfoam.org
    \\  /    A nd           | Version:  7
     \\/     M anipulation  |
\*---------------------------------------------------------------------------*/
FoamFile
{
    version     2.0;
    format      ascii;
    class       volVectorField;
    location    "1.41";
    object      U;
}
// * * * * * * * * * * * * * * * * * * * * * * * * * * * * * * * * * * * * * //

dimensions      [0 1 -1 0 0 0 0];

internalField   nonuniform List<vector> 
1936
(
(-18.2826 2.521 0)
(-55.469 214.522 0)
(13.5878 406.161 0)
(19.8432 350.228 0)
(3.58029 272.749 0)
(-1.29072 236.59 0)
(-19.0455 222.787 0)
(-26.5553 252.733 0)
(-35.5819 378.608 0)
(3.8892 465.681 0)
(39.7723 356.108 0)
(28.3193 228.673 0)
(19.9069 197.494 0)
(1.94603 197.735 0)
(-14.0135 241.414 0)
(-25.8403 360.527 0)
(-0.334176 436.953 0)
(26.5572 347.334 0)
(13.8403 225.034 0)
(-3.9049 187.164 0)
(-20.1761 188.607 0)
(-31.2511 231.419 0)
(-36.6642 375.234 0)
(8.39532 463.932 0)
(40.5407 348.822 0)
(29.2611 217.215 0)
(20.8014 182.84 0)
(2.34478 183.839 0)
(-13.5699 225.608 0)
(-27.3309 345.369 0)
(-6.65014 438.725 0)
(26.567 359.217 0)
(16.4534 225.582 0)
(-4.03872 183.669 0)
(-18.6889 186.418 0)
(-32.8288 240.342 0)
(-34.5366 397.885 0)
(17.642 457.851 0)
(40.976 312.599 0)
(25.2503 193.311 0)
(13.7818 174.896 0)
(-2.77324 181.676 0)
(-25.3999 268.556 0)
(-22.1744 417.127 0)
(-18.1302 6.32161 0)
(-64.2974 -3.18206 0)
(10.2969 -5.0703 0)
(22.3708 -0.192683 0)
(3.58667 1.69499 0)
(-3.10523 2.46205 0)
(-14.7262 2.59497 0)
(-21.8099 0.596653 0)
(-35.8814 -3.13562 0)
(3.68099 -5.35677 0)
(39.1843 -2.79061 0)
(22.3867 0.961084 0)
(15.5202 2.96416 0)
(4.12084 3.40128 0)
(-12.441 1.88459 0)
(-27.1908 -1.40137 0)
(-0.339245 -3.65596 0)
(27.3544 -1.5252 0)
(11.623 2.04908 0)
(-5.51023 3.54568 0)
(-14.9655 2.96192 0)
(-25.6488 0.401187 0)
(-36.6153 -3.86344 0)
(8.7679 -5.55844 0)
(40.6662 -2.47262 0)
(23.6443 1.0099 0)
(15.6872 2.98171 0)
(4.41669 3.50658 0)
(-11.9275 2.14093 0)
(-29.0161 -0.945678 0)
(-7.10086 -3.76086 0)
(27.2682 -2.14265 0)
(13.9081 1.85072 0)
(-5.82376 3.6848 0)
(-13.1427 3.04271 0)
(-27.6692 0.0878437 0)
(-34.9397 -4.4078 0)
(18.6825 -5.35935 0)
(40.418 -1.64809 0)
(18.7462 1.87451 0)
(11.036 3.42118 0)
(0.960662 3.44074 0)
(-24.6323 0.614544 0)
(-23.8749 -3.35528 0)
(-5.5221 13.4417 0)
(-65.1763 -5.49003 0)
(-1.62645 -11.5073 0)
(20.5803 -1.16221 0)
(10.207 3.40798 0)
(4.104 4.70836 0)
(-5.65461 5.1725 0)
(-17.6091 2.04369 0)
(-35.6017 -6.01736 0)
(4.267 -11.4296 0)
(39.6251 -5.1855 0)
(18.6352 2.74066 0)
(7.37003 5.82093 0)
(-3.31441 6.5632 0)
(-17.1245 4.00203 0)
(-29.0736 -3.06586 0)
(0.84127 -8.18031 0)
(30.2124 -3.16942 0)
(16.1003 4.3516 0)
(1.69844 6.77314 0)
(-7.36566 5.87899 0)
(-22.0189 1.71767 0)
(-38.0037 -7.47212 0)
(6.97423 -11.9149 0)
(40.5551 -4.63886 0)
(20.8662 2.88291 0)
(7.56471 5.93708 0)
(-3.20219 6.75651 0)
(-17.1468 4.52103 0)
(-30.8812 -2.1158 0)
(-4.94685 -8.44087 0)
(30.7104 -4.44849 0)
(18.0026 4.0217 0)
(1.02119 7.03701 0)
(-6.17737 6.08692 0)
(-24.7032 1.14065 0)
(-36.7449 -8.80775 0)
(17.4397 -11.5207 0)
(40.6784 -2.73224 0)
(15.6697 4.44042 0)
(3.98552 6.60515 0)
(-5.57818 6.88813 0)
(-28.7361 1.57837 0)
(-25.5488 -7.48273 0)
(7.39789 18.9273 0)
(-55.8625 -5.40354 0)
(-10.9389 -16.7563 0)
(10.4358 -3.59925 0)
(7.72547 3.90517 0)
(4.91127 6.19604 0)
(2.18106 7.41222 0)
(-6.81942 3.87545 0)
(-25.9916 -8.00166 0)
(3.47121 -16.2542 0)
(28.6696 -6.69729 0)
(7.02595 4.8875 0)
(-1.67583 8.43066 0)
(-6.11373 8.79727 0)
(-12.9642 5.21901 0)
(-22.241 -4.88681 0)
(1.45862 -12.2085 0)
(23.4418 -4.77621 0)
(11.9359 5.80577 0)
(5.08754 9.07713 0)
(2.04193 8.51638 0)
(-9.25195 3.51991 0)
(-28.3095 -9.88003 0)
(4.10499 -17.0748 0)
(29.2663 -6.22982 0)
(9.89946 5.07487 0)
(-1.72478 8.74519 0)
(-6.02521 9.13073 0)
(-13.4657 5.94501 0)
(-23.4409 -3.65606 0)
(-2.40059 -12.6377 0)
(24.2633 -6.47606 0)
(12.741 5.43417 0)
(4.00841 9.44206 0)
(3.02391 8.8282 0)
(-11.6275 2.69899 0)
(-28.181 -11.9359 0)
(12.5478 -16.5452 0)
(29.0183 -3.38402 0)
(5.43834 7.11072 0)
(-2.67518 9.46509 0)
(-5.61774 9.3755 0)
(-21.0833 1.91202 0)
(-20.5818 -11.224 0)
(15.5128 22.7948 0)
(-45.1215 -3.36576 0)
(-18.6886 -19.9907 0)
(-0.133356 -6.77787 0)
(3.13787 3.1981 0)
(1.85686 6.72432 0)
(4.06474 8.78378 0)
(-0.270925 5.34742 0)
(-17.713 -9.03849 0)
(2.51065 -19.1884 0)
(18.8143 -7.30892 0)
(-0.784005 6.80049 0)
(-6.33486 10.3981 0)
(-6.27153 10.0202 0)
(-9.58763 5.50829 0)
(-16.0017 -6.52811 0)
(2.02349 -15.0864 0)
(17.3428 -6.11244 0)
(8.81065 6.33028 0)
(5.68305 10.3622 0)
(7.0477 10.4502 0)
(-0.430393 5.22161 0)
(-19.3401 -10.9494 0)
(1.47196 -20.297 0)
(19.1735 -7.15676 0)
(2.27004 7.01025 0)
(-6.60636 10.9457 0)
(-5.80277 10.5405 0)
(-10.3798 6.40533 0)
(-16.6609 -5.23848 0)
(-0.133943 -15.6528 0)
(18.2817 -7.95187 0)
(8.73754 5.98829 0)
(4.29526 10.7402 0)
(7.88766 10.769 0)
(-2.36188 4.21848 0)
(-20.1446 -13.4909 0)
(7.82523 -19.6885 0)
(18.9748 -3.63542 0)
(-1.58536 9.28317 0)
(-5.77406 11.592 0)
(-4.33726 10.7061 0)
(-14.7171 1.64605 0)
(-15.9517 -13.8962 0)
(19.2684 25.0483 0)
(-32.5029 0.119242 0)
(-22.2514 -20.6893 0)
(-8.96689 -10.0142 0)
(-3.21559 1.55068 0)
(-3.88489 6.39602 0)
(1.78041 9.00385 0)
(2.60264 5.93511 0)
(-11.2035 -9.31457 0)
(1.34814 -20.1941 0)
(10.3909 -7.16706 0)
(-5.44739 8.06943 0)
(-7.29965 11.4906 0)
(-3.23885 10.4054 0)
(-5.77151 5.17459 0)
(-10.2917 -7.85955 0)
(2.38503 -16.7195 0)
(11.8317 -7.07549 0)
(5.29768 6.24271 0)
(3.20378 10.8284 0)
(8.34925 11.4634 0)
(4.75821 6.44681 0)
(-11.5878 -10.8005 0)
(-0.49813 -21.4489 0)
(10.6466 -7.48559 0)
(-2.79112 8.27149 0)
(-7.81178 12.2343 0)
(-2.54025 11.1303 0)
(-6.54111 6.20925 0)
(-10.4637 -6.69534 0)
(1.51011 -17.3634 0)
(12.7416 -8.80287 0)
(4.70887 5.98323 0)
(1.80573 11.1416 0)
(9.12639 11.6889 0)
(3.31321 5.35028 0)
(-13.0202 -13.5653 0)
(3.82347 -20.8472 0)
(10.6708 -3.57842 0)
(-6.0973 10.5855 0)
(-5.97032 12.7486 0)
(-0.460504 11.0705 0)
(-8.98366 1.10988 0)
(-11.6736 -15.4178 0)
(19.6401 25.6317 0)
(-19.9361 4.2225 0)
(-20.8865 -18.7232 0)
(-14.1376 -12.3234 0)
(-9.18017 -0.603592 0)
(-8.85731 5.31905 0)
(-1.54564 7.95827 0)
(3.14633 5.39215 0)
(-6.44887 -9.08574 0)
(-0.0377458 -19.4113 0)
(3.44828 -6.50696 0)
(-7.90848 8.3768 0)
(-6.16012 11.4786 0)
(0.564656 10.0582 0)
(-1.48643 4.54116 0)
(-5.17844 -8.66316 0)
(2.39003 -17.009 0)
(6.86466 -7.42067 0)
(1.12012 5.84237 0)
(-0.0325128 10.5667 0)
(7.39324 11.3912 0)
(7.28747 6.90528 0)
(-5.22831 -9.71492 0)
(-1.53958 -20.5825 0)
(3.84545 -7.28737 0)
(-5.93084 8.55179 0)
(-6.7148 12.3595 0)
(1.16044 10.9561 0)
(-1.95949 5.6545 0)
(-4.98833 -7.72538 0)
(2.30505 -17.6572 0)
(7.65922 -8.86022 0)
(0.376545 5.66959 0)
(-1.12157 10.7756 0)
(8.04416 11.4695 0)
(6.2606 5.80226 0)
(-6.89652 -12.438 0)
(0.938994 -20.0599 0)
(4.14709 -3.33069 0)
(-8.43847 10.7796 0)
(-4.42159 12.7172 0)
(3.80822 10.6089 0)
(-4.007 0.67731 0)
(-7.70137 -15.6906 0)
(17.7909 24.5958 0)
(-8.77317 8.02475 0)
(-15.3975 -14.5847 0)
(-14.7069 -12.9157 0)
(-12.4072 -2.71896 0)
(-10.7206 3.53671 0)
(-3.48128 5.91304 0)
(2.64965 3.9134 0)
(-3.22911 -8.50851 0)
(-1.53745 -17.1487 0)
(-1.92681 -5.60996 0)
(-8.95459 7.65102 0)
(-4.44535 10.3284 0)
(3.11116 9.08988 0)
(2.55876 3.70716 0)
(-1.0321 -8.72846 0)
(1.94987 -15.9182 0)
(2.61098 -7.03387 0)
(-2.99271 5.21989 0)
(-2.30305 9.66462 0)
(5.61219 10.2809 0)
(8.16815 6.52904 0)
(-0.363355 -8.05578 0)
(-1.67318 -17.9599 0)
(-1.02914 -6.5942 0)
(-7.55385 7.84016 0)
(-4.85753 11.279 0)
(3.53818 10.0943 0)
(2.55558 4.82123 0)
(-0.632641 -8.02316 0)
(2.24358 -16.5012 0)
(3.24805 -8.10755 0)
(-3.60412 5.11036 0)
(-2.93589 9.74799 0)
(6.12388 10.2081 0)
(7.45853 5.48412 0)
(-1.92819 -10.4852 0)
(-0.739188 -17.5666 0)
(-0.557431 -2.95576 0)
(-9.06745 9.88699 0)
(-2.50966 11.5501 0)
(6.24071 9.54477 0)
(-0.0205608 0.379308 0)
(-4.09867 -14.699 0)
(14.3318 22.1139 0)
(0.179538 10.6739 0)
(-7.6414 -9.26833 0)
(-11.0238 -11.569 0)
(-11.5501 -4.29612 0)
(-9.42029 1.34339 0)
(-3.50262 3.44176 0)
(1.91638 1.96506 0)
(-1.21874 -7.57801 0)
(-2.77684 -13.8959 0)
(-5.36539 -4.64492 0)
(-8.92721 6.03392 0)
(-3.21153 8.29315 0)
(3.91567 7.5081 0)
(5.25242 2.68392 0)
(1.66289 -7.93024 0)
(1.14806 -13.5949 0)
(-0.664479 -6.00166 0)
(-5.77806 4.36737 0)
(-3.17161 8.1749 0)
(3.99972 8.41459 0)
(7.92279 5.41271 0)
(2.73161 -6.10801 0)
(-1.25496 -14.0944 0)
(-3.83221 -5.40279 0)
(-7.87258 6.32108 0)
(-3.327 9.28783 0)
(4.31574 8.5564 0)
(5.72612 3.71369 0)
(2.18581 -7.39299 0)
(1.61836 -14.0499 0)
(-0.105236 -6.73724 0)
(-6.06679 4.27531 0)
(-3.35409 8.14445 0)
(4.4416 8.23835 0)
(7.4807 4.4805 0)
(1.47588 -8.05277 0)
(-1.42833 -13.8535 0)
(-3.3717 -2.40995 0)
(-8.44311 8.16278 0)
(-1.25376 9.54552 0)
(6.63809 8.03195 0)
(2.92091 0.0979969 0)
(-1.13399 -12.5902 0)
(10.0177 18.5452 0)
(6.08599 11.6453 0)
(-0.102996 -4.02699 0)
(-4.93831 -8.72382 0)
(-7.41954 -4.88747 0)
(-6.42572 -0.632735 0)
(-2.51074 1.16189 0)
(1.34635 0.0883132 0)
(-0.0643429 -6.35263 0)
(-3.21768 -10.2905 0)
(-6.54765 -3.71311 0)
(-7.85055 3.92452 0)
(-2.47979 5.82029 0)
(3.47491 5.42897 0)
(5.87626 1.59263 0)
(2.75199 -6.43013 0)
(0.22865 -10.4484 0)
(-2.76412 -4.56629 0)
(-6.52297 3.30121 0)
(-3.02702 6.20231 0)
(2.7516 6.2194 0)
(6.68029 3.88513 0)
(3.87119 -4.14459 0)
(-0.762449 -9.73726 0)
(-4.64132 -3.88266 0)
(-6.91159 4.43098 0)
(-2.26682 6.85364 0)
(3.95072 6.45806 0)
(6.67264 2.52792 0)
(3.4442 -5.97501 0)
(0.83079 -10.7385 0)
(-2.19381 -5.03637 0)
(-6.45957 3.19652 0)
(-2.93435 6.09493 0)
(3.12342 6.01669 0)
(6.46536 3.1218 0)
(2.99384 -5.52715 0)
(-1.44803 -9.62152 0)
(-4.3864 -1.70072 0)
(-6.85834 6.0084 0)
(-0.599005 7.14886 0)
(5.89836 6.13182 0)
(4.59182 -0.166274 0)
(0.760165 -9.68262 0)
(5.90184 14.5025 0)
(7.91109 10.9155 0)
(4.74201 -0.00716431 0)
(0.933337 -5.29154 0)
(-2.30145 -4.31145 0)
(-2.98643 -1.78251 0)
(-1.07228 -0.523957 0)
(1.21255 -1.28777 0)
(0.527526 -4.99083 0)
(-2.77073 -6.96234 0)
(-5.78159 -2.89944 0)
(-5.95804 1.87276 0)
(-1.87469 3.37369 0)
(2.51064 3.24258 0)
(4.79964 0.62514 0)
(2.61578 -4.61993 0)
(-0.486325 -7.09612 0)
(-3.5779 -3.10344 0)
(-5.60306 2.13092 0)
(-2.48474 4.09365 0)
(1.67028 4.08214 0)
(4.73351 2.41623 0)
(3.41017 -2.41852 0)
(-0.435401 -5.74362 0)
(-3.98632 -2.35053 0)
(-5.06806 2.68785 0)
(-1.41204 4.43166 0)
(3.08317 4.21419 0)
(5.68946 1.46176 0)
(3.42277 -4.19204 0)
(0.203253 -7.21297 0)
(-2.97277 -3.36307 0)
(-5.31961 2.03665 0)
(-2.28079 3.96935 0)
(1.96414 3.89053 0)
(4.67826 1.84558 0)
(2.87595 -3.28705 0)
(-1.10832 -5.69014 0)
(-3.93254 -0.951286 0)
(-4.75123 3.88559 0)
(-0.195705 4.78375 0)
(4.59977 4.08525 0)
(4.76923 -0.326776 0)
(1.5383 -6.50468 0)
(3.1669 10.6394 0)
(6.70038 9.01507 0)
(6.35797 2.27551 0)
(4.37131 -2.27967 0)
(1.59316 -2.92903 0)
(0.13423 -1.99685 0)
(0.549868 -1.47076 0)
(1.44793 -1.98112 0)
(0.798612 -3.68468 0)
(-1.77542 -4.37139 0)
(-3.9327 -2.24101 0)
(-3.81482 0.3043 0)
(-1.25822 1.34769 0)
(1.54198 1.38498 0)
(3.09437 -0.0735835 0)
(1.83041 -2.93532 0)
(-0.767471 -4.18394 0)
(-3.17811 -1.89918 0)
(-3.97155 1.07954 0)
(-1.8679 2.273 0)
(0.754938 2.30633 0)
(2.69539 1.30468 0)
(2.15988 -1.1271 0)
(-0.306426 -2.75082 0)
(-2.68167 -1.13638 0)
(-3.05579 1.38179 0)
(-0.713155 2.41919 0)
(2.11028 2.29842 0)
(3.86033 0.649954 0)
(2.58 -2.51816 0)
(-0.118119 -4.13775 0)
(-2.63737 -1.98319 0)
(-3.64158 1.03667 0)
(-1.64586 2.18684 0)
(0.967946 2.13568 0)
(2.71174 0.913875 0)
(1.86885 -1.61018 0)
(-0.759707 -2.71276 0)
(-2.72268 -0.338359 0)
(-2.74165 2.19331 0)
(0.066774 2.7682 0)
(3.10781 2.28738 0)
(3.68806 -0.332171 0)
(1.45683 -3.6821 0)
(1.80853 7.53828 0)
(4.42928 6.76112 0)
(5.39145 2.96098 0)
(4.75207 -0.264828 0)
(3.10318 -1.459 0)
(1.92353 -1.60735 0)
(1.65604 -1.69114 0)
(1.628 -2.01474 0)
(0.885138 -2.57796 0)
(-0.734404 -2.66147 0)
(-2.00803 -1.7464 0)
(-1.97842 -0.635971 0)
(-0.694827 -0.0199248 0)
(0.809879 0.123205 0)
(1.63348 -0.476571 0)
(0.974131 -1.67694 0)
(-0.667608 -2.13271 0)
(-2.13627 -1.06398 0)
(-2.41262 0.348809 0)
(-1.27868 0.993878 0)
(0.15095 1.05732 0)
(1.16569 0.613207 0)
(0.981168 -0.337131 0)
(-0.240054 -0.958661 0)
(-1.42812 -0.392175 0)
(-1.49747 0.565064 0)
(-0.266006 1.03366 0)
(1.2394 0.979186 0)
(2.13566 0.176457 0)
(1.47851 -1.26155 0)
(-0.215245 -1.95873 0)
(-1.76252 -1.00904 0)
(-2.15346 0.371002 0)
(-1.10109 0.958008 0)
(0.278783 0.931604 0)
(1.17637 0.374346 0)
(0.818528 -0.577645 0)
(-0.495992 -0.923028 0)
(-1.48287 0.0279965 0)
(-1.30219 1.07004 0)
(0.159042 1.33276 0)
(1.77443 1.03456 0)
(2.18325 -0.221511 0)
(0.960148 -1.66559 0)
(1.0699 5.37066 0)
(2.54276 4.8429 0)
(3.51456 2.72089 0)
(3.49673 0.741156 0)
(2.79961 -0.421897 0)
(2.13371 -1.02628 0)
(1.74338 -1.39561 0)
(1.3922 -1.62786 0)
(0.796323 -1.75105 0)
(-0.0291195 -1.69308 0)
(-0.647441 -1.40729 0)
(-0.702202 -1.05213 0)
(-0.216742 -0.76129 0)
(0.396898 -0.570352 0)
(0.701834 -0.636623 0)
(0.37227 -0.916035 0)
(-0.436008 -0.97348 0)
(-1.14719 -0.562733 0)
(-1.26572 -0.0268604 0)
(-0.773223 0.263017 0)
(-0.119612 0.338012 0)
(0.325331 0.249144 0)
(0.290373 0.0226371 0)
(-0.152149 -0.146942 0)
(-0.579848 -0.0529103 0)
(-0.562134 0.148765 0)
(-0.0405887 0.272068 0)
(0.609019 0.257838 0)
(0.952991 -0.0148456 0)
(0.626192 -0.500821 0)
(-0.200311 -0.730206 0)
(-0.949245 -0.425827 0)
(-1.11903 0.0462041 0)
(-0.676416 0.275481 0)
(-0.0729858 0.277991 0)
(0.298407 0.125657 0)
(0.174943 -0.085607 0)
(-0.300033 -0.119835 0)
(-0.637179 0.164593 0)
(-0.489306 0.449696 0)
(0.14512 0.501632 0)
(0.843541 0.359294 0)
(0.999984 -0.0835416 0)
(0.473468 -0.536455 0)
(0.651823 3.85008 0)
(1.52437 3.53448 0)
(2.12611 2.29232 0)
(2.24605 1.07514 0)
(1.98892 0.139911 0)
(1.62246 -0.515646 0)
(1.29143 -0.942774 0)
(0.967462 -1.15306 0)
(0.615004 -1.21164 0)
(0.263329 -1.20926 0)
(0.00857427 -1.19213 0)
(-0.0671336 -1.14458 0)
(0.0323771 -1.03138 0)
(0.182233 -0.84038 0)
(0.220917 -0.653589 0)
(0.0534736 -0.543168 0)
(-0.256169 -0.445437 0)
(-0.514643 -0.302089 0)
(-0.562896 -0.160002 0)
(-0.398686 -0.0645841 0)
(-0.160413 0.00746382 0)
(0.00828375 0.0734484 0)
(0.0311232 0.106133 0)
(-0.0602152 0.0848996 0)
(-0.148289 0.0371541 0)
(-0.11651 -0.020186 0)
(0.0493635 -0.043451 0)
(0.245886 -0.0313076 0)
(0.321556 -0.0446969 0)
(0.174169 -0.116795 0)
(-0.135198 -0.166212 0)
(-0.416351 -0.122932 0)
(-0.490597 -0.0489349 0)
(-0.357153 -0.0121666 0)
(-0.165446 0.00176762 0)
(-0.0475038 0.0249619 0)
(-0.0659245 0.0638856 0)
(-0.162284 0.111748 0)
(-0.208972 0.163021 0)
(-0.118014 0.167596 0)
(0.10243 0.13197 0)
(0.322509 0.0937879 0)
(0.341266 0.0235579 0)
(0.17595 -0.041124 0)
(0.412107 2.7507 0)
(1.02175 2.6378 0)
(1.41336 1.89937 0)
(1.52355 1.12668 0)
(1.42401 0.430182 0)
(1.20105 -0.132375 0)
(0.941304 -0.526983 0)
(0.699447 -0.759205 0)
(0.488803 -0.877316 0)
(0.316855 -0.958049 0)
(0.189214 -1.03294 0)
(0.101999 -1.06777 0)
(0.0515544 -1.00737 0)
(0.021659 -0.835242 0)
(-0.020196 -0.607365 0)
(-0.0885113 -0.405515 0)
(-0.166922 -0.273255 0)
(-0.219662 -0.212349 0)
(-0.221911 -0.19446 0)
(-0.180269 -0.173074 0)
(-0.119343 -0.111746 0)
(-0.0608262 -0.0153235 0)
(-0.0222415 0.0654727 0)
(-0.00236553 0.0781518 0)
(0.0108678 0.0211631 0)
(0.0329483 -0.0665402 0)
(0.065763 -0.114911 0)
(0.0896552 -0.0877512 0)
(0.0817452 -0.0208355 0)
(0.0256848 0.0316733 0)
(-0.0596682 0.0367871 0)
(-0.13319 0.00290085 0)
(-0.162134 -0.0482954 0)
(-0.149037 -0.0871819 0)
(-0.12175 -0.0790434 0)
(-0.0987414 -0.0152271 0)
(-0.0849552 0.0639004 0)
(-0.0684876 0.114286 0)
(-0.0394239 0.107946 0)
(0.00522907 0.0624264 0)
(0.0556107 0.0230898 0)
(0.0913556 0.0350122 0)
(0.0779715 0.0840811 0)
(0.0507213 0.118397 0)
(0.258777 1.93732 0)
(0.692352 1.95769 0)
(1.00068 1.53843 0)
(1.13082 1.05634 0)
(1.11573 0.57485 0)
(1.00545 0.139113 0)
(0.837142 -0.205224 0)
(0.651481 -0.452911 0)
(0.484568 -0.627693 0)
(0.340783 -0.760379 0)
(0.215412 -0.8604 0)
(0.102837 -0.905885 0)
(0.00443256 -0.86522 0)
(-0.072482 -0.733787 0)
(-0.122829 -0.551504 0)
(-0.14569 -0.380715 0)
(-0.145675 -0.267528 0)
(-0.131888 -0.220568 0)
(-0.113874 -0.210855 0)
(-0.0975944 -0.19547 0)
(-0.0821404 -0.144843 0)
(-0.0607603 -0.0686963 0)
(-0.0293378 -0.00481353 0)
(0.00818552 0.0142296 0)
(0.0371702 -0.0164668 0)
(0.0493847 -0.0658762 0)
(0.0457484 -0.0894749 0)
(0.0307697 -0.0615735 0)
(0.0157291 -0.000215147 0)
(0.00514952 0.0520811 0)
(-0.00248357 0.0635346 0)
(-0.00899274 0.028211 0)
(-0.0166523 -0.028882 0)
(-0.0286339 -0.0704776 0)
(-0.0416319 -0.0672616 0)
(-0.0467741 -0.0241313 0)
(-0.0400516 0.0298193 0)
(-0.019748 0.0613053 0)
(0.00489848 0.0577185 0)
(0.0197444 0.0337656 0)
(0.0218128 0.0209576 0)
(0.0161462 0.0483197 0)
(0.00356213 0.102097 0)
(0.00988132 0.129378 0)
(0.158352 1.34223 0)
(0.449082 1.4164 0)
(0.688681 1.19252 0)
(0.832747 0.908552 0)
(0.883532 0.599033 0)
(0.856454 0.295181 0)
(0.776796 0.0181511 0)
(0.662437 -0.211942 0)
(0.530459 -0.398587 0)
(0.395655 -0.545851 0)
(0.263365 -0.650406 0)
(0.138256 -0.700012 0)
(0.0283288 -0.683493 0)
(-0.0568831 -0.605338 0)
(-0.110018 -0.491213 0)
(-0.130308 -0.37875 0)
(-0.12598 -0.29632 0)
(-0.110264 -0.250517 0)
(-0.0945643 -0.226039 0)
(-0.083532 -0.199916 0)
(-0.0745519 -0.158252 0)
(-0.0612763 -0.106482 0)
(-0.0397092 -0.0630923 0)
(-0.0129898 -0.0436411 0)
(0.00791297 -0.0488178 0)
(0.0155318 -0.0616598 0)
(0.0115337 -0.0610224 0)
(0.00301092 -0.0357066 0)
(-0.00043994 0.00438374 0)
(0.00584048 0.0367224 0)
(0.0178748 0.0434818 0)
(0.0264717 0.0227071 0)
(0.0267591 -0.0110476 0)
(0.018073 -0.0358265 0)
(0.00382633 -0.037092 0)
(-0.00726826 -0.0173945 0)
(-0.00937111 0.00881819 0)
(-0.00266926 0.0281583 0)
(0.00567517 0.0343911 0)
(0.00754654 0.03447 0)
(0.00172836 0.0422163 0)
(-0.00605845 0.0666257 0)
(-0.0118526 0.0997182 0)
(-0.00044204 0.109737 0)
(0.0950415 0.915523 0)
(0.280415 0.9948 0)
(0.448797 0.878947 0)
(0.57238 0.719799 0)
(0.64646 0.53272 0)
(0.669717 0.334416 0)
(0.649826 0.139357 0)
(0.596202 -0.0426294 0)
(0.5169 -0.201916 0)
(0.420087 -0.33404 0)
(0.314466 -0.431538 0)
(0.208686 -0.487081 0)
(0.111897 -0.497474 0)
(0.0329147 -0.468354 0)
(-0.0229811 -0.414021 0)
(-0.0555978 -0.353553 0)
(-0.0694757 -0.30164 0)
(-0.0724852 -0.263054 0)
(-0.0715898 -0.232794 0)
(-0.0699317 -0.202492 0)
(-0.0668697 -0.167611 0)
(-0.0602697 -0.130913 0)
(-0.0494178 -0.0996787 0)
(-0.0365045 -0.0795177 0)
(-0.0255315 -0.0693388 0)
(-0.0198327 -0.0622332 0)
(-0.0187784 -0.0500372 0)
(-0.0181811 -0.0294441 0)
(-0.0143563 -0.0051813 0)
(-0.00565167 0.0132129 0)
(0.00591955 0.0184385 0)
(0.0148976 0.0104217 0)
(0.0175395 -0.00314173 0)
(0.0135213 -0.0133972 0)
(0.00544595 -0.0141012 0)
(-0.00234612 -0.00533994 0)
(-0.00691007 0.00768708 0)
(-0.00791093 0.0200805 0)
(-0.00770258 0.0300231 0)
(-0.00894025 0.0397561 0)
(-0.0117517 0.0529747 0)
(-0.0133158 0.0710022 0)
(-0.0127374 0.089732 0)
(-0.00190217 0.0894866 0)
(0.0562344 0.614526 0)
(0.171121 0.679837 0)
(0.280307 0.619482 0)
(0.369412 0.532172 0)
(0.434888 0.423849 0)
(0.472443 0.302301 0)
(0.482537 0.175317 0)
(0.467704 0.0498888 0)
(0.430911 -0.0668388 0)
(0.377299 -0.168316 0)
(0.312968 -0.248897 0)
(0.243455 -0.303802 0)
(0.175331 -0.331413 0)
(0.11458 -0.334525 0)
(0.065179 -0.320187 0)
(0.0283325 -0.296287 0)
(0.00254872 -0.269929 0)
(-0.0151313 -0.244444 0)
(-0.0275431 -0.219578 0)
(-0.0363615 -0.193728 0)
(-0.0419221 -0.1664 0)
(-0.0440901 -0.139212 0)
(-0.0432557 -0.114884 0)
(-0.040647 -0.0951868 0)
(-0.0377793 -0.0795739 0)
(-0.0356379 -0.0656263 0)
(-0.0339751 -0.0508346 0)
(-0.0315026 -0.0345834 0)
(-0.0271172 -0.0188576 0)
(-0.02094 -0.00673656 0)
(-0.0144578 -0.000588155 0)
(-0.00948546 -6.82764e-05 0)
(-0.00723208 -0.00209527 0)
(-0.00805086 -0.00317508 0)
(-0.0111494 -0.000801739 0)
(-0.0149098 0.00496822 0)
(-0.0178948 0.0129974 0)
(-0.0195769 0.0219662 0)
(-0.0201982 0.0314039 0)
(-0.0200706 0.0416454 0)
(-0.0190243 0.0530383 0)
(-0.0159746 0.0649425 0)
(-0.011786 0.075257 0)
(-0.002176 0.0709923 0)
(0.0330612 0.404303 0)
(0.103651 0.45207 0)
(0.171706 0.419881 0)
(0.230736 0.372027 0)
(0.278626 0.310765 0)
(0.312188 0.239573 0)
(0.330415 0.162337 0)
(0.333345 0.0831919 0)
(0.322725 0.00594981 0)
(0.299876 -0.0641737 0)
(0.267073 -0.123963 0)
(0.228392 -0.170328 0)
(0.187456 -0.201917 0)
(0.147593 -0.219373 0)
(0.111323 -0.225044 0)
(0.080001 -0.222073 0)
(0.0538518 -0.213416 0)
(0.0323632 -0.201028 0)
(0.0148226 -0.185894 0)
(0.000691374 -0.168537 0)
(-0.0102887 -0.149662 0)
(-0.018345 -0.130342 0)
(-0.0238919 -0.111927 0)
(-0.027539 -0.0951609 0)
(-0.0299356 -0.0800608 0)
(-0.0314745 -0.0660819 0)
(-0.0321804 -0.052658 0)
(-0.0318504 -0.0397682 0)
(-0.0303723 -0.0280738 0)
(-0.0280125 -0.0184917 0)
(-0.0254174 -0.0114917 0)
(-0.0233218 -0.00669522 0)
(-0.0222683 -0.00311488 0)
(-0.0223435 0.000450263 0)
(-0.0231789 0.00478205 0)
(-0.0242184 0.0101879 0)
(-0.0249394 0.01647 0)
(-0.0250017 0.0233511 0)
(-0.0242135 0.0306884 0)
(-0.0224239 0.0383818 0)
(-0.019444 0.0461553 0)
(-0.0148775 0.0533923 0)
(-0.00975351 0.0590925 0)
(-0.00207499 0.0541273 0)
(0.0196428 0.257543 0)
(0.0634296 0.289738 0)
(0.105649 0.272265 0)
(0.143772 0.246047 0)
(0.176585 0.212004 0)
(0.202101 0.171701 0)
(0.219549 0.12699 0)
(0.228535 0.0800036 0)
(0.229203 0.0330388 0)
(0.22203 -0.011938 0)
(0.208275 -0.0522233 0)
(0.189655 -0.0862592 0)
(0.167771 -0.112993 0)
(0.144346 -0.132154 0)
(0.120869 -0.144201 0)
(0.0984184 -0.150056 0)
(0.0776523 -0.150789 0)
(0.0589003 -0.147376 0)
(0.0422928 -0.140638 0)
(0.0278928 -0.1313 0)
(0.0157549 -0.120107 0)
(0.00565807 -0.107849 0)
(-0.0025615 -0.0952696 0)
(-0.00902928 -0.0829099 0)
(-0.0141059 -0.0710461 0)
(-0.0180258 -0.0597534 0)
(-0.0209106 -0.0490383 0)
(-0.0228399 -0.0389905 0)
(-0.0239212 -0.0298158 0)
(-0.0243433 -0.0217352 0)
(-0.0243688 -0.014827 0)
(-0.0242695 -0.00893982 0)
(-0.0242322 -0.00373974 0)
(-0.0242824 0.00115338 0)
(-0.0243152 0.00602326 0)
(-0.0241713 0.0110074 0)
(-0.0236778 0.0161126 0)
(-0.022683 0.0212892 0)
(-0.0210666 0.0264727 0)
(-0.0187325 0.0315546 0)
(-0.0155994 0.0363318 0)
(-0.0115425 0.0404958 0)
(-0.00717909 0.0436164 0)
(-0.00176805 0.03928 0)
(0.0124364 0.157842 0)
(0.0412815 0.178026 0)
(0.0688761 0.16841 0)
(0.0944682 0.153994 0)
(0.117342 0.135205 0)
(0.136252 0.11277 0)
(0.150689 0.0875752 0)
(0.160276 0.0606587 0)
(0.164931 0.0331577 0)
(0.165057 0.00621207 0)
(0.160852 -0.018907 0)
(0.152725 -0.0413177 0)
(0.141689 -0.0602913 0)
(0.128616 -0.0754108 0)
(0.114309 -0.0865701 0)
(0.0994839 -0.0939121 0)
(0.0847188 -0.0977448 0)
(0.0704609 -0.0984642 0)
(0.0570434 -0.0965117 0)
(0.0447035 -0.0923572 0)
(0.0335988 -0.0864965 0)
(0.0237937 -0.0794836 0)
(0.0152801 -0.0716806 0)
(0.00796407 -0.0635259 0)
(0.00180089 -0.0553086 0)
(-0.00329818 -0.0472241 0)
(-0.00749405 -0.0394104 0)
(-0.010858 -0.0319814 0)
(-0.0134792 -0.0250388 0)
(-0.0154684 -0.0186584 0)
(-0.0169416 -0.0128639 0)
(-0.0180114 -0.0076115 0)
(-0.0187502 -0.00280948 0)
(-0.0191748 0.00165555 0)
(-0.0192731 0.00587699 0)
(-0.0190168 0.00991073 0)
(-0.0183665 0.0137749 0)
(-0.0172826 0.0174594 0)
(-0.0157346 0.0209332 0)
(-0.0137061 0.0241392 0)
(-0.0111891 0.0269853 0)
(-0.0081675 0.0293471 0)
(-0.00494376 0.0310541 0)
(-0.00136523 0.0276745 0)
(0.00878635 0.0944297 0)
(0.0299171 0.106466 0)
(0.0498705 0.100974 0)
(0.0687294 0.0927873 0)
(0.086017 0.082128 0)
(0.100874 0.0693657 0)
(0.112965 0.0549553 0)
(0.122025 0.0394356 0)
(0.127915 0.023411 0)
(0.130648 0.00751218 0)
(0.130372 -0.00778967 0)
(0.12736 -0.0218092 0)
(0.122003 -0.0341065 0)
(0.11474 -0.04437 0)
(0.106038 -0.052423 0)
(0.0963503 -0.0582197 0)
(0.0860968 -0.0618236 0)
(0.0756458 -0.0633829 0)
(0.0653081 -0.0631089 0)
(0.0553356 -0.0612593 0)
(0.0459214 -0.0581214 0)
(0.0371987 -0.0539944 0)
(0.0292478 -0.0491629 0)
(0.0221047 -0.0438892 0)
(0.0157621 -0.0383928 0)
(0.0101864 -0.0328401 0)
(0.00532933 -0.0273705 0)
(0.00120307 -0.0220883 0)
(-0.00223932 -0.0170715 0)
(-0.00510583 -0.0123739 0)
(-0.00743752 -0.00802356 0)
(-0.00928319 -0.00401183 0)
(-0.0106764 -0.000317525 0)
(-0.0116406 0.00308909 0)
(-0.0121998 0.00624105 0)
(-0.0123626 0.00916279 0)
(-0.0121318 0.011867 0)
(-0.0115118 0.0143541 0)
(-0.0105121 0.0166126 0)
(-0.009151 0.0186189 0)
(-0.00745034 0.0203358 0)
(-0.00543684 0.0217148 0)
(-0.00325761 0.0226864 0)
(-0.000971736 0.0200891 0)
(0.00679625 0.0535733 0)
(0.0236981 0.0602255 0)
(0.0393789 0.0570032 0)
(0.0544228 0.0522507 0)
(0.0684686 0.0460894 0)
(0.080832 0.0387131 0)
(0.0912674 0.030372 0)
(0.0995829 0.0213688 0)
(0.105651 0.0120342 0)
(0.109394 0.00266976 0)
(0.110906 -0.00635479 0)
(0.110365 -0.0147195 0)
(0.107938 -0.0221517 0)
(0.103859 -0.0284417 0)
(0.0984091 -0.0334514 0)
(0.0918874 -0.0371146 0)
(0.0845891 -0.039432 0)
(0.0767934 -0.0404621 0)
(0.0687523 -0.04031 0)
(0.0606851 -0.0391188 0)
(0.0527761 -0.0370558 0)
(0.0451728 -0.0343011 0)
(0.0379872 -0.0310339 0)
(0.0312972 -0.0274245 0)
(0.0251435 -0.0236256 0)
(0.0195501 -0.0197623 0)
(0.0145388 -0.0159416 0)
(0.0101123 -0.01225 0)
(0.00624149 -0.00872607 0)
(0.00290389 -0.00541509 0)
(0.000112142 -0.00235183 0)
(-0.00216494 0.000447945 0)
(-0.00400395 0.00300723 0)
(-0.0054323 0.00533671 0)
(-0.00644591 0.00745353 0)
(-0.00705638 0.00937379 0)
(-0.007283 0.0111105 0)
(-0.0071479 0.0126715 0)
(-0.0066766 0.0140577 0)
(-0.00590024 0.015263 0)
(-0.00485221 0.0162746 0)
(-0.00357772 0.0170734 0)
(-0.00214869 0.0176299 0)
(-0.00067902 0.0155399 0)
(0.00537157 0.0255208 0)
(0.0191783 0.0284821 0)
(0.0316216 0.0266445 0)
(0.0437141 0.0239902 0)
(0.055181 0.020583 0)
(0.0653989 0.0165215 0)
(0.074154 0.0119436 0)
(0.0813263 0.00701287 0)
(0.0867784 0.00190234 0)
(0.0904869 -0.0031357 0)
(0.0925394 -0.00796871 0)
(0.0929434 -0.0124165 0)
(0.0917849 -0.0163221 0)
(0.0892103 -0.0195622 0)
(0.0854056 -0.0220531 0)
(0.0805809 -0.0237511 0)
(0.0749557 -0.024651 0)
(0.0687472 -0.0247827 0)
(0.0621604 -0.0242072 0)
(0.0553836 -0.0230111 0)
(0.0485838 -0.0212927 0)
(0.0419036 -0.0191636 0)
(0.0354609 -0.0167378 0)
(0.0293464 -0.0141234 0)
(0.0236271 -0.0114209 0)
(0.0183529 -0.00871348 0)
(0.0135834 -0.00606994 0)
(0.00936272 -0.00353942 0)
(0.00565481 -0.00119399 0)
(0.00243431 0.000949601 0)
(-0.000311954 0.0028975 0)
(-0.00260312 0.00465832 0)
(-0.00442514 0.00620176 0)
(-0.00578808 0.00756593 0)
(-0.00671839 0.00876629 0)
(-0.00723945 0.00981957 0)
(-0.00737609 0.0107433 0)
(-0.00715709 0.0115528 0)
(-0.0066159 0.0122582 0)
(-0.00579098 0.0128642 0)
(-0.00472143 0.0133698 0)
(-0.00345714 0.0137684 0)
(-0.00204858 0.0140491 0)
(-0.000653105 0.0123423 0)
(0.00389952 0.00633615 0)
(0.0144783 0.00682543 0)
(0.0234219 0.0059203 0)
(0.0322674 0.00468321 0)
(0.0407418 0.00311373 0)
(0.0482763 0.00125538 0)
(0.0547687 -0.000816831 0)
(0.060048 -0.00301717 0)
(0.0640517 -0.00524104 0)
(0.0666978 -0.00734845 0)
(0.0678675 -0.00929722 0)
(0.0676393 -0.0109957 0)
(0.0661242 -0.0123703 0)
(0.0634488 -0.0133655 0)
(0.0597583 -0.0139455 0)
(0.0552171 -0.0140952 0)
(0.050002 -0.0138196 0)
(0.044284 -0.0131403 0)
(0.0382444 -0.0121024 0)
(0.0320795 -0.0107924 0)
(0.0259481 -0.00922996 0)
(0.0199701 -0.0074909 0)
(0.0142595 -0.00564924 0)
(0.00891342 -0.00377521 0)
(0.00400133 -0.00192745 0)
(-0.000433358 -0.000156534 0)
(-0.00438794 0.00149915 0)
(-0.00786424 0.00301395 0)
(-0.0108127 0.00434421 0)
(-0.0131765 0.00548678 0)
(-0.0149396 0.00645531 0)
(-0.0162169 0.00726473 0)
(-0.0170238 0.00791853 0)
(-0.0173012 0.00843501 0)
(-0.0171151 0.00883642 0)
(-0.016506 0.00914626 0)
(-0.0155055 0.00938692 0)
(-0.014149 0.00957851 0)
(-0.0124749 0.00973711 0)
(-0.0105262 0.0098738 0)
(-0.00834455 0.00999391 0)
(-0.00597412 0.0100967 0)
(-0.0034715 0.0101789 0)
(-0.00108551 0.00892036 0)
(0.00212606 -0.00483916 0)
(0.0089386 -0.00569569 0)
(0.0138523 -0.00603371 0)
(0.0188413 -0.00637274 0)
(0.0235852 -0.00674138 0)
(0.0275604 -0.00712452 0)
(0.030645 -0.00748789 0)
(0.032716 -0.00779653 0)
(0.0337173 -0.00800265 0)
(0.0336089 -0.0081382 0)
(0.0323694 -0.00812762 0)
(0.030045 -0.00795815 0)
(0.026738 -0.00761999 0)
(0.0225888 -0.00710779 0)
(0.0177356 -0.00642163 0)
(0.0123184 -0.00556913 0)
(0.00650011 -0.00456582 0)
(0.000374352 -0.00343726 0)
(-0.0058944 -0.00225899 0)
(-0.0120081 -0.000966279 0)
(-0.0178153 0.000327023 0)
(-0.0232655 0.00158471 0)
(-0.0282814 0.00277152 0)
(-0.032777 0.00385359 0)
(-0.0366731 0.00480451 0)
(-0.0399124 0.00560301 0)
(-0.0424655 0.00623358 0)
(-0.0443231 0.00668397 0)
(-0.0454777 0.00698638 0)
(-0.0459291 0.00714284 0)
(-0.0456943 0.00715274 0)
(-0.0448164 0.00701692 0)
(-0.0433271 0.00680332 0)
(-0.041266 0.00651622 0)
(-0.038705 0.00618308 0)
(-0.0357035 0.00583068 0)
(-0.0323205 0.00548092 0)
(-0.0286083 0.00515355 0)
(-0.0246071 0.00486369 0)
(-0.0203592 0.00462352 0)
(-0.0159039 0.00444165 0)
(-0.0112703 0.00431944 0)
(-0.00652499 0.00425658 0)
(-0.00203828 0.00371892 0)
(2.05113e-05 -0.00878666 0)
(0.00214697 -0.0100177 0)
(0.00203443 -0.0100501 0)
(0.00225402 -0.00984414 0)
(0.00232228 -0.00942891 0)
(0.00173158 -0.00881524 0)
(0.00033171 -0.00801835 0)
(-0.00193709 -0.007056 0)
(-0.00500891 -0.00596097 0)
(-0.00886646 -0.00476633 0)
(-0.0134993 -0.00349091 0)
(-0.0188765 -0.00216318 0)
(-0.0248738 -0.000810835 0)
(-0.0312973 0.000541493 0)
(-0.0380053 0.00187113 0)
(-0.0448862 0.00315584 0)
(-0.0518068 0.00436736 0)
(-0.0586575 0.00547233 0)
(-0.0652132 0.00650365 0)
(-0.0713633 0.00741565 0)
(-0.0770824 0.00814288 0)
(-0.0821926 0.00867513 0)
(-0.0865702 0.00900095 0)
(-0.0901365 0.00911449 0)
(-0.0928327 0.00901241 0)
(-0.0946143 0.00869802 0)
(-0.0954527 0.00818177 0)
(-0.0953388 0.00748059 0)
(-0.094276 0.00662295 0)
(-0.092277 0.0056368 0)
(-0.0893791 0.00455289 0)
(-0.0856321 0.00340616 0)
(-0.081064 0.00224073 0)
(-0.0757588 0.00109218 0)
(-0.0698419 -4.25119e-06 0)
(-0.0634056 -0.00101989 0)
(-0.056565 -0.00193111 0)
(-0.0494208 -0.00272312 0)
(-0.0420327 -0.0033878 0)
(-0.0344591 -0.00392303 0)
(-0.0267421 -0.0043292 0)
(-0.0188845 -0.00461224 0)
(-0.0109398 -0.00477611 0)
(-0.00342938 -0.00423793 0)