/*--------------------------------*- C++ -*----------------------------------*\
  =========                 |
  \\      /  F ield         | OpenFOAM: The Open Source CFD Toolbox
   \\    /   O peration     | Website:  https://openfoam.org
    \\  /    A nd           | Version:  7
     \\/     M anipulation  |
\*---------------------------------------------------------------------------*/
FoamFile
{
    version     2.0;
    format      ascii;
    class       volScalarField;
    location    "0.25";
    object      p;
}
// * * * * * * * * * * * * * * * * * * * * * * * * * * * * * * * * * * * * * //

dimensions      [0 2 -2 0 0 0 0];

internalField   nonuniform List<scalar> 
1936
(
3.0121e-05
-2957.85
-6782.12
-6976.71
-6412.86
-6642.42
-6637.86
-5983.36
-5014.9
-4413.21
-4390.01
-4892.18
-6590.06
-8042.85
-6657.22
-4374.57
-3739.36
-3887.6
-5412.17
-7911.82
-7322.24
-4673.87
-3753.75
-3847.23
-5255.13
-7840.4
-7375.95
-4674.46
-3729.65
-3872.42
-5185.57
-7599.86
-7353.8
-4822.43
-3778.6
-3840.93
-5195.33
-7742.07
-7382.26
-4791.63
-3774.53
-3771.47
-4955.36
-7652.38
-113.599
-2964.26
-6727.12
-6937.31
-6398.58
-6619.58
-6609.2
-5966.68
-5024.1
-4450.77
-4434.36
-4909.11
-6558.42
-7983.49
-6623.22
-4397.86
-3802.2
-3935.98
-5398.51
-7849.91
-7270.41
-4683.42
-3814.8
-3898.4
-5245.62
-7778.28
-7314.99
-4676.75
-3789.88
-3926.67
-5188.85
-7553.32
-7300.87
-4827.45
-3840.08
-3891.71
-5180.11
-7675.92
-7329.97
-4796.17
-3831.16
-3828.23
-4954.96
-7597.03
-460.306
-2995.2
-6528.23
-6825.69
-6368.03
-6550.68
-6523.44
-5922.08
-5057.03
-4548.97
-4542.8
-4969.56
-6481.49
-7793.08
-6532.2
-4483.18
-3952.6
-4066.36
-5389.55
-7653.56
-7117.2
-4737.74
-3962.7
-4031.77
-5250.42
-7583.07
-7136.17
-4711.74
-3936.77
-4067.72
-5226.23
-7403.38
-7139.45
-4866.66
-3991.05
-4022.05
-5168.13
-7471.83
-7173.03
-4838.94
-3969.5
-3970.55
-4985.93
-7425.2
-934.671
-3065.99
-6246.43
-6656.14
-6319.81
-6452.07
-6400.26
-5860.07
-5108.13
-4686.75
-4691.99
-5062.17
-6372.65
-7503.61
-6397.53
-4612.58
-4161.58
-4254.54
-5387.16
-7355.91
-6888.13
-4825.66
-4169.87
-4222.77
-5266.3
-7287.37
-6877.22
-4782.08
-4145.38
-4263.25
-5276.21
-7164.87
-6898.12
-4931.11
-4198.86
-4210.78
-5170.2
-7169.89
-6935.43
-4910.62
-4165.63
-4171.68
-5039.08
-7162.05
-1479.11
-3181.39
-5932.75
-6443.23
-6243.47
-6329.57
-6255.66
-5791.76
-5172.04
-4842.95
-4856.09
-5167.65
-6247.22
-7162.75
-6239.69
-4763.49
-4394.95
-4468.15
-5390.57
-7009.22
-6622.17
-4930.07
-4399.69
-4437.86
-5288.34
-6943.34
-6585.94
-4877.55
-4379.49
-4477.29
-5323.68
-6876.72
-6619.57
-5006.47
-4424.61
-4425.26
-5187.46
-6825.49
-6657.23
-4997.21
-4386.27
-4395.53
-5102.41
-6853
-2053.28
-3342.38
-5624.17
-6202.63
-6134.32
-6189.32
-6103.4
-5724.77
-5242.61
-4999.81
-5017.26
-5271.27
-6115.85
-6808.99
-6074.48
-4919.29
-4628.65
-4682.52
-5399.83
-6654.71
-6349.27
-5038.5
-4627.01
-4652.02
-5314.29
-6591.97
-6297.93
-4986.42
-4612.65
-4685.6
-5362.37
-6570.03
-6336.77
-5084.82
-4643.39
-4639.82
-5218.39
-6481.47
-6369.9
-5088.18
-4607.11
-4616.42
-5168.72
-6533.51
-2625.39
-3547.25
-5347.77
-5950.36
-5995.01
-6038.01
-5954.38
-5663.46
-5312.31
-5143.07
-5161.89
-5362.84
-5987.93
-6472.16
-5916.53
-5065.77
-4845.64
-4881.37
-5414.03
-6323.07
-6093.36
-5140.59
-4835.01
-4849.01
-5341.95
-6264.18
-6038.39
-5095.61
-4825.64
-4874.3
-5390.79
-6271.66
-6074.68
-5160.95
-4840.86
-4836.82
-5258.02
-6167.55
-6098.54
-5174.28
-4811.3
-4818.61
-5232.67
-6230.53
-3167.8
-3787.82
-5124.34
-5704.43
-5834.32
-5882.56
-5816
-5609.33
-5372.96
-5262.96
-5281.98
-5436.41
-5867.61
-6174.57
-5777.76
-5193.02
-5033.99
-5054.57
-5430.11
-6036.37
-5871.55
-5229.27
-5013.43
-5019.27
-5367.88
-5982.1
-5821.54
-5194.04
-5006.52
-5036.3
-5409.67
-6003.76
-5850.46
-5230.61
-5009.26
-5005.51
-5298.58
-5902.95
-5862.26
-5248.16
-4988.28
-4992.98
-5288.91
-5964.54
-3652.77
-4048.6
-4970.28
-5484.49
-5666.03
-5730.35
-5692.03
-5561.14
-5417.9
-5354.65
-5373.97
-5487.44
-5758.61
-5930.14
-5665.88
-5295.72
-5186.4
-5197.07
-5442.91
-5807.4
-5695.34
-5300.16
-5156.75
-5157.85
-5388.57
-5758.5
-5654.12
-5273.53
-5150.51
-5168.42
-5419.06
-5782.08
-5673.69
-5289.62
-5144.27
-5140.69
-5333.54
-5696.77
-5673.6
-5305.64
-5131.88
-5134.47
-5333.7
-5748.46
-4057
-4305.66
-4893.98
-5309.75
-5507.19
-5589.13
-5583.84
-5516.8
-5444.05
-5416.55
-5436.85
-5513.71
-5664.7
-5744.21
-5583.56
-5370.69
-5300.52
-5306.09
-5449.09
-5640.1
-5569.3
-5350.94
-5263.68
-5263.8
-5400.97
-5597.14
-5536.6
-5331.27
-5256.59
-5268.96
-5419.62
-5614.78
-5546.89
-5333.09
-5245.46
-5242.94
-5357.52
-5550.06
-5538.03
-5344.39
-5240.46
-5242.26
-5363.42
-5588.5
-4372.53
-4532.53
-4886.68
-5192.71
-5375.04
-5467.52
-5492.28
-5474.84
-5451.93
-5450.47
-5471.69
-5518.31
-5588.82
-5614.39
-5527.47
-5418.32
-5377.68
-5380.04
-5449.13
-5530.84
-5489.76
-5383.4
-5336.32
-5336.98
-5406.32
-5493.83
-5463.24
-5367.22
-5328.32
-5337.16
-5414.48
-5502.5
-5465.33
-5361
-5314.51
-5313.41
-5371.13
-5457.33
-5452.58
-5366.87
-5314.31
-5316.14
-5379.65
-5483.43
-4607.5
-4714.5
-4922.76
-5131.82
-5280.92
-5373.2
-5418.92
-5435.71
-5445.35
-5461.01
-5482.22
-5507.2
-5531.59
-5531.94
-5490.4
-5442.35
-5422.21
-5421.83
-5445.59
-5468.86
-5446.5
-5401.52
-5379.94
-5380.46
-5407.65
-5437.31
-5423.76
-5386.78
-5370.89
-5376.29
-5407.55
-5437.53
-5419.35
-5376.48
-5356.11
-5355.84
-5377.9
-5407.58
-5406.81
-5377.62
-5357.69
-5359.68
-5386.6
-5424.33
-4776.77
-4852.11
-4977.98
-5112.26
-5226.05
-5309.36
-5364.87
-5401.35
-5429.62
-5454.81
-5474.85
-5487.01
-5490.59
-5483.29
-5465.69
-5448.98
-5441.51
-5439.21
-5440.7
-5439.22
-5426.47
-5410.01
-5402.15
-5401.72
-5407.55
-5412.14
-5406.29
-5395.75
-5391.87
-5394.1
-5401.71
-5406.23
-5397.6
-5383.82
-5377.68
-5377.3
-5381.31
-5386.52
-5387.26
-5382.22
-5378.91
-5380.74
-5388.64
-5397.26
-4902.88
-4952.98
-5032.02
-5119.77
-5202.17
-5272.49
-5328.55
-5372.78
-5408.73
-5437.16
-5455.82
-5463.2
-5461.36
-5454.92
-5448.61
-5445.41
-5444.37
-5441.44
-5435.39
-5427
-5418.65
-5412.97
-5410.87
-5409.51
-5407.2
-5403.8
-5400.53
-5399.01
-5399.52
-5399.57
-5397.98
-5394.36
-5389.94
-5387.1
-5386.87
-5386.16
-5383.62
-5381.1
-5381.78
-5384.27
-5386.94
-5388.43
-5388.9
-5388.15
-5001.1
-5031.34
-5080.69
-5138.36
-5198.41
-5254.99
-5305.61
-5349.3
-5385.73
-5413.73
-5431.64
-5439.17
-5439.19
-5436.66
-5435.72
-5437.21
-5438.66
-5436.36
-5429.75
-5421.7
-5415.64
-5413.17
-5412.41
-5410.67
-5406.71
-5402.12
-5399.55
-5399.69
-5400.65
-5399.76
-5396.14
-5391.63
-5388.86
-5388.9
-5390.05
-5389.28
-5385.62
-5382.04
-5382.02
-5385.32
-5388.65
-5389.96
-5388.77
-5386.68
-5080.01
-5096.55
-5126.08
-5163.54
-5205.6
-5249.48
-5291.64
-5330.11
-5363.11
-5388.97
-5406.71
-5416.38
-5420.36
-5422.03
-5424.08
-5426.93
-5428.87
-5427.8
-5423.51
-5418
-5413.82
-5411.87
-5410.94
-5409.16
-5405.78
-5402.03
-5399.76
-5399.42
-5399.59
-5398.4
-5395.41
-5392.01
-5390.09
-5390.16
-5390.79
-5389.94
-5387.24
-5384.53
-5384.14
-5386.07
-5388.36
-5389.24
-5388.44
-5387.16
-5143.09
-5151.69
-5168.63
-5192.09
-5220.53
-5252.07
-5284.71
-5315.84
-5343.59
-5366.47
-5383.66
-5395.34
-5402.77
-5407.79
-5411.92
-5415.53
-5417.92
-5418.23
-5416.42
-5413.57
-5411.06
-5409.48
-5408.34
-5406.74
-5404.35
-5401.74
-5399.81
-5398.84
-5398.23
-5397.08
-5395.13
-5392.99
-5391.59
-5391.15
-5391
-5390.18
-5388.48
-5386.75
-5386.11
-5386.75
-5387.77
-5388.26
-5388.01
-5387.55
-5192.51
-5197.07
-5206.73
-5221.07
-5239.55
-5261.15
-5284.43
-5307.81
-5329.66
-5348.8
-5364.56
-5376.85
-5386.16
-5393.27
-5398.89
-5403.34
-5406.5
-5408.15
-5408.37
-5407.66
-5406.66
-5405.76
-5404.88
-5403.76
-5402.25
-5400.6
-5399.13
-5398.03
-5397.15
-5396.15
-5394.91
-5393.6
-5392.54
-5391.83
-5391.26
-5390.46
-5389.33
-5388.19
-5387.49
-5387.36
-5387.55
-5387.68
-5387.62
-5387.5
-5230.64
-5233.23
-5238.92
-5247.71
-5259.46
-5273.66
-5289.52
-5306.06
-5322.25
-5337.31
-5350.67
-5362.11
-5371.64
-5379.5
-5385.92
-5391.07
-5395.03
-5397.81
-5399.53
-5400.41
-5400.75
-5400.76
-5400.55
-5400.08
-5399.37
-5398.49
-5397.6
-5396.77
-5396.02
-5395.26
-5394.46
-5393.62
-5392.83
-5392.13
-5391.46
-5390.72
-5389.88
-5389.04
-5388.37
-5387.93
-5387.7
-5387.56
-5387.46
-5387.4
-5259.77
-5261.35
-5264.87
-5270.37
-5277.83
-5287.01
-5297.51
-5308.79
-5320.32
-5331.57
-5342.16
-5351.82
-5360.43
-5367.94
-5374.38
-5379.81
-5384.26
-5387.79
-5390.5
-5392.47
-5393.87
-5394.81
-5395.39
-5395.67
-5395.7
-5395.54
-5395.25
-5394.88
-5394.48
-5394.05
-5393.58
-5393.07
-5392.54
-5391.99
-5391.41
-5390.81
-5390.17
-5389.53
-5388.95
-5388.47
-5388.1
-5387.85
-5387.68
-5387.59
-5281.73
-5282.77
-5285.04
-5288.59
-5293.4
-5299.36
-5306.28
-5313.89
-5321.92
-5330.05
-5338.04
-5345.7
-5352.85
-5359.4
-5365.3
-5370.51
-5375.03
-5378.88
-5382.09
-5384.73
-5386.86
-5388.53
-5389.83
-5390.8
-5391.5
-5391.97
-5392.26
-5392.4
-5392.44
-5392.38
-5392.24
-5392.03
-5391.77
-5391.44
-5391.08
-5390.67
-5390.23
-5389.79
-5389.36
-5388.97
-5388.64
-5388.38
-5388.21
-5388.11
-5297.93
-5298.65
-5300.18
-5302.55
-5305.76
-5309.73
-5314.37
-5319.55
-5325.13
-5330.96
-5336.88
-5342.74
-5348.43
-5353.85
-5358.93
-5363.61
-5367.86
-5371.67
-5375.04
-5377.98
-5380.51
-5382.66
-5384.48
-5385.98
-5387.22
-5388.21
-5389
-5389.6
-5390.05
-5390.36
-5390.56
-5390.67
-5390.68
-5390.61
-5390.49
-5390.31
-5390.09
-5389.85
-5389.6
-5389.35
-5389.14
-5388.96
-5388.83
-5388.75
-5308.64
-5309.18
-5310.29
-5312
-5314.3
-5317.15
-5320.49
-5324.26
-5328.37
-5332.73
-5337.25
-5341.85
-5346.42
-5350.91
-5355.23
-5359.35
-5363.22
-5366.81
-5370.1
-5373.09
-5375.77
-5378.15
-5380.25
-5382.08
-5383.66
-5385.01
-5386.14
-5387.08
-5387.85
-5388.47
-5388.95
-5389.31
-5389.57
-5389.73
-5389.82
-5389.84
-5389.81
-5389.74
-5389.65
-5389.55
-5389.44
-5389.35
-5389.27
-5389.23
-5314.78
-5315.22
-5316.11
-5317.48
-5319.32
-5321.59
-5324.26
-5327.29
-5330.61
-5334.18
-5337.92
-5341.78
-5345.68
-5349.57
-5353.4
-5357.12
-5360.69
-5364.07
-5367.24
-5370.19
-5372.9
-5375.36
-5377.59
-5379.58
-5381.34
-5382.88
-5384.22
-5385.36
-5386.33
-5387.14
-5387.8
-5388.33
-5388.75
-5389.07
-5389.3
-5389.45
-5389.55
-5389.6
-5389.61
-5389.59
-5389.56
-5389.53
-5389.5
-5389.48
-5318.04
-5318.42
-5319.2
-5320.4
-5322
-5323.99
-5326.33
-5328.98
-5331.91
-5335.06
-5338.39
-5341.86
-5345.4
-5348.96
-5352.51
-5355.99
-5359.37
-5362.62
-5365.71
-5368.62
-5371.32
-5373.82
-5376.1
-5378.17
-5380.03
-5381.67
-5383.12
-5384.37
-5385.45
-5386.37
-5387.13
-5387.77
-5388.27
-5388.68
-5388.99
-5389.22
-5389.39
-5389.5
-5389.57
-5389.61
-5389.62
-5389.62
-5389.61
-5389.6
-5319.63
-5319.99
-5320.71
-5321.82
-5323.31
-5325.16
-5327.33
-5329.81
-5332.54
-5335.49
-5338.62
-5341.89
-5345.25
-5348.65
-5352.05
-5355.41
-5358.7
-5361.88
-5364.93
-5367.81
-5370.52
-5373.03
-5375.35
-5377.46
-5379.37
-5381.07
-5382.58
-5383.89
-5385.03
-5386.01
-5386.83
-5387.51
-5388.07
-5388.51
-5388.87
-5389.13
-5389.33
-5389.48
-5389.57
-5389.64
-5389.67
-5389.69
-5389.69
-5389.69
-5320.25
-5320.6
-5321.29
-5322.37
-5323.81
-5325.6
-5327.71
-5330.1
-5332.75
-5335.62
-5338.67
-5341.86
-5345.14
-5348.47
-5351.82
-5355.13
-5358.39
-5361.54
-5364.58
-5367.46
-5370.18
-5372.71
-5375.05
-5377.19
-5379.12
-5380.86
-5382.4
-5383.74
-5384.91
-5385.91
-5386.75
-5387.46
-5388.03
-5388.49
-5388.86
-5389.14
-5389.35
-5389.5
-5389.61
-5389.68
-5389.72
-5389.74
-5389.74
-5389.75
-5320.34
-5320.68
-5321.37
-5322.44
-5323.87
-5325.65
-5327.74
-5330.12
-5332.76
-5335.61
-5338.64
-5341.81
-5345.08
-5348.4
-5351.74
-5355.05
-5358.3
-5361.46
-5364.5
-5367.4
-5370.13
-5372.67
-5375.03
-5377.18
-5379.13
-5380.87
-5382.42
-5383.77
-5384.95
-5385.95
-5386.79
-5387.49
-5388.07
-5388.52
-5388.89
-5389.16
-5389.37
-5389.52
-5389.62
-5389.68
-5389.72
-5389.74
-5389.75
-5389.75
-5320.2
-5320.54
-5321.23
-5322.3
-5323.75
-5325.54
-5327.65
-5330.05
-5332.71
-5335.58
-5338.63
-5341.82
-5345.11
-5348.45
-5351.8
-5355.13
-5358.4
-5361.57
-5364.63
-5367.53
-5370.26
-5372.81
-5375.17
-5377.32
-5379.26
-5380.99
-5382.53
-5383.87
-5385.03
-5386.01
-5386.84
-5387.52
-5388.07
-5388.51
-5388.85
-5389.11
-5389.3
-5389.44
-5389.53
-5389.59
-5389.62
-5389.63
-5389.63
-5389.63
-5320.02
-5320.37
-5321.06
-5322.15
-5323.62
-5325.45
-5327.59
-5330.03
-5332.72
-5335.63
-5338.72
-5341.95
-5345.27
-5348.64
-5352.02
-5355.37
-5358.65
-5361.83
-5364.89
-5367.79
-5370.52
-5373.06
-5375.4
-5377.53
-5379.45
-5381.15
-5382.66
-5383.96
-5385.08
-5386.03
-5386.81
-5387.46
-5387.97
-5388.38
-5388.69
-5388.92
-5389.09
-5389.2
-5389.28
-5389.32
-5389.34
-5389.35
-5389.35
-5389.35
-5319.94
-5320.29
-5320.99
-5322.1
-5323.6
-5325.46
-5327.65
-5330.13
-5332.87
-5335.83
-5338.95
-5342.22
-5345.57
-5348.96
-5352.36
-5355.73
-5359.02
-5362.21
-5365.26
-5368.15
-5370.86
-5373.37
-5375.68
-5377.77
-5379.65
-5381.31
-5382.76
-5384.01
-5385.07
-5385.96
-5386.69
-5387.28
-5387.74
-5388.09
-5388.36
-5388.55
-5388.68
-5388.77
-5388.82
-5388.85
-5388.87
-5388.87
-5388.86
-5388.86
-5320.04
-5320.38
-5321.09
-5322.23
-5323.76
-5325.66
-5327.88
-5330.4
-5333.18
-5336.17
-5339.32
-5342.61
-5345.98
-5349.4
-5352.81
-5356.18
-5359.47
-5362.65
-5365.68
-5368.55
-5371.23
-5373.71
-5375.98
-5378.02
-5379.84
-5381.44
-5382.83
-5384.02
-5385.01
-5385.82
-5386.48
-5386.99
-5387.38
-5387.67
-5387.87
-5388
-5388.09
-5388.13
-5388.16
-5388.17
-5388.17
-5388.17
-5388.16
-5388.16
-5320.36
-5320.7
-5321.42
-5322.57
-5324.13
-5326.05
-5328.3
-5330.84
-5333.63
-5336.63
-5339.8
-5343.1
-5346.48
-5349.89
-5353.3
-5356.67
-5359.95
-5363.12
-5366.13
-5368.97
-5371.62
-5374.06
-5376.28
-5378.27
-5380.03
-5381.56
-5382.88
-5383.99
-5384.9
-5385.64
-5386.21
-5386.64
-5386.94
-5387.14
-5387.26
-5387.31
-5387.32
-5387.31
-5387.28
-5387.26
-5387.24
-5387.23
-5387.23
-5387.24
-5320.94
-5321.29
-5322.01
-5323.16
-5324.71
-5326.63
-5328.87
-5331.39
-5334.17
-5337.17
-5340.33
-5343.62
-5347
-5350.41
-5353.81
-5357.17
-5360.44
-5363.58
-5366.58
-5369.39
-5372
-5374.4
-5376.57
-5378.5
-5380.21
-5381.68
-5382.92
-5383.96
-5384.79
-5385.44
-5385.92
-5386.25
-5386.46
-5386.56
-5386.58
-5386.53
-5386.45
-5386.34
-5386.23
-5386.14
-5386.08
-5386.05
-5386.05
-5386.08
-5321.84
-5322.19
-5322.88
-5323.98
-5325.48
-5327.35
-5329.54
-5332.02
-5334.76
-5337.73
-5340.87
-5344.14
-5347.5
-5350.9
-5354.3
-5357.64
-5360.9
-5364.03
-5367
-5369.78
-5372.36
-5374.72
-5376.84
-5378.73
-5380.38
-5381.79
-5382.96
-5383.92
-5384.68
-5385.24
-5385.63
-5385.87
-5385.98
-5385.98
-5385.88
-5385.72
-5385.52
-5385.29
-5385.06
-5384.85
-5384.7
-5384.6
-5384.6
-5384.64
-5323.12
-5323.41
-5324.03
-5324.99
-5326.39
-5328.14
-5330.24
-5332.65
-5335.34
-5338.26
-5341.37
-5344.62
-5347.97
-5351.35
-5354.74
-5358.07
-5361.31
-5364.43
-5367.38
-5370.14
-5372.69
-5375.02
-5377.1
-5378.95
-5380.54
-5381.9
-5383.01
-5383.91
-5384.59
-5385.08
-5385.39
-5385.54
-5385.55
-5385.44
-5385.23
-5384.95
-5384.6
-5384.22
-5383.83
-5383.46
-5383.15
-5382.9
-5382.85
-5382.87
-5324.89
-5324.98
-5325.43
-5326.14
-5327.35
-5328.95
-5330.93
-5333.25
-5335.86
-5338.73
-5341.8
-5345.03
-5348.36
-5351.74
-5355.12
-5358.44
-5361.68
-5364.78
-5367.72
-5370.46
-5372.99
-5375.29
-5377.34
-5379.14
-5380.7
-5382.01
-5383.07
-5383.91
-5384.53
-5384.95
-5385.18
-5385.25
-5385.18
-5384.97
-5384.65
-5384.24
-5383.76
-5383.22
-5382.64
-5382.05
-5381.52
-5380.99
-5380.81
-5380.66
-5327.29
-5326.87
-5327.01
-5327.32
-5328.29
-5329.69
-5331.54
-5333.76
-5336.3
-5339.12
-5342.16
-5345.37
-5348.69
-5352.06
-5355.43
-5358.75
-5361.98
-5365.07
-5368
-5370.73
-5373.24
-5375.52
-5377.55
-5379.32
-5380.84
-5382.11
-5383.13
-5383.92
-5384.49
-5384.85
-5385.03
-5385.03
-5384.88
-5384.58
-5384.17
-5383.65
-5383.03
-5382.33
-5381.56
-5380.72
-5379.9
-5378.96
-5378.51
-5377.87
-5330.46
-5328.96
-5328.65
-5328.44
-5329.13
-5330.33
-5332.04
-5334.16
-5336.64
-5339.42
-5342.43
-5345.63
-5348.94
-5352.31
-5355.68
-5359
-5362.22
-5365.31
-5368.24
-5370.96
-5373.46
-5375.72
-5377.73
-5379.48
-5380.97
-5382.21
-5383.2
-5383.95
-5384.48
-5384.79
-5384.92
-5384.86
-5384.65
-5384.29
-5383.79
-5383.18
-5382.45
-5381.6
-5380.65
-5379.55
-5378.41
-5376.93
-5376.08
-5374.36
-5334.48
-5331.09
-5330.19
-5329.4
-5329.82
-5330.82
-5332.42
-5334.46
-5336.89
-5339.63
-5342.63
-5345.81
-5349.12
-5352.49
-5355.86
-5359.18
-5362.41
-5365.5
-5368.42
-5371.13
-5373.62
-5375.87
-5377.87
-5379.6
-5381.08
-5382.29
-5383.26
-5383.98
-5384.48
-5384.76
-5384.84
-5384.75
-5384.49
-5384.07
-5383.52
-5382.83
-5382.01
-5381.04
-5379.93
-5378.6
-5377.16
-5375.09
-5373.68
-5370.06
-5339.28
-5333.04
-5331.48
-5330.13
-5330.31
-5331.16
-5332.67
-5334.66
-5337.05
-5339.77
-5342.75
-5345.93
-5349.24
-5352.61
-5355.98
-5359.31
-5362.53
-5365.63
-5368.54
-5371.26
-5373.74
-5375.99
-5377.97
-5379.7
-5381.15
-5382.36
-5383.3
-5384.01
-5384.48
-5384.74
-5384.8
-5384.68
-5384.39
-5383.93
-5383.34
-5382.59
-5381.71
-5380.65
-5379.43
-5377.91
-5376.22
-5373.59
-5371.55
-5365.05
-5344.51
-5334.59
-5332.38
-5330.61
-5330.63
-5331.37
-5332.82
-5334.77
-5337.14
-5339.85
-5342.83
-5346
-5349.31
-5352.68
-5356.05
-5359.38
-5362.61
-5365.7
-5368.62
-5371.33
-5373.82
-5376.05
-5378.03
-5379.75
-5381.2
-5382.4
-5383.33
-5384.03
-5384.49
-5384.73
-5384.78
-5384.64
-5384.33
-5383.85
-5383.23
-5382.46
-5381.53
-5380.42
-5379.12
-5377.49
-5375.61
-5372.55
-5369.88
-5359.68
-5349.44
-5335.57
-5332.87
-5330.86
-5330.78
-5331.47
-5332.9
-5334.82
-5337.18
-5339.89
-5342.86
-5346.03
-5349.34
-5352.71
-5356.09
-5359.42
-5362.65
-5365.74
-5368.65
-5371.37
-5373.85
-5376.09
-5378.06
-5379.78
-5381.23
-5382.42
-5383.35
-5384.04
-5384.49
-5384.73
-5384.77
-5384.62
-5384.3
-5383.82
-5383.18
-5382.39
-5381.44
-5380.31
-5378.98
-5377.28
-5375.31
-5372
-5368.85
-5354.68
-5353.39
-5336
-5333.04
-5330.94
-5330.83
-5331.51
-5332.92
-5334.84
-5337.2
-5339.9
-5342.87
-5346.04
-5349.35
-5352.72
-5356.1
-5359.43
-5362.66
-5365.75
-5368.67
-5371.38
-5373.86
-5376.1
-5378.07
-5379.79
-5381.23
-5382.42
-5383.35
-5384.04
-5384.49
-5384.73
-5384.77
-5384.61
-5384.29
-5383.81
-5383.17
-5382.37
-5381.42
-5380.28
-5378.93
-5377.21
-5375.2
-5371.82
-5368.41
-5350.71
)
;

boundaryField
{
    movingWall
    {
        type            zeroGradient;
    }
    fixedWalls
    {
        type            zeroGradient;
    }
    frontAndBack
    {
        type            empty;
    }
    defaultFaces
    {
        type            empty;
    }
}


// ************************************************************************* //
