/*--------------------------------*- C++ -*----------------------------------*\
  =========                 |
  \\      /  F ield         | OpenFOAM: The Open Source CFD Toolbox
   \\    /   O peration     | Website:  https://openfoam.org
    \\  /    A nd           | Version:  7
     \\/     M anipulation  |
\*---------------------------------------------------------------------------*/
FoamFile
{
    version     2.0;
    format      ascii;
    class       volScalarField;
    location    "10";
    object      p;
}
// * * * * * * * * * * * * * * * * * * * * * * * * * * * * * * * * * * * * * //

dimensions      [0 2 -2 0 0 0 0];

internalField   nonuniform List<scalar> 
900
(
1.84252e-09
-0.000158102
-0.000373659
-0.000573492
-0.000724533
-0.000805262
-0.000807339
-0.000728332
-0.000567177
-0.000322585
6.79334e-06
0.000421127
0.000917565
0.00148821
0.00211833
0.0027852
0.003458
0.0040991
0.00466722
0.00512199
0.00542956
0.00556845
0.0055344
0.00534286
0.00502882
0.00464059
0.00424348
0.00390242
0.00368367
0.00364475
0.000154895
-7.47733e-06
-0.000160717
-0.000296453
-0.000392817
-0.000434273
-0.000413916
-0.00032847
-0.000175706
4.62729e-05
0.000338805
0.000701783
0.00113232
0.00162327
0.00216176
0.00272801
0.00329736
0.00383807
0.00431623
0.00469901
0.00495936
0.00508082
0.00506141
0.00491537
0.0046725
0.00437454
0.00407033
0.00380726
0.00363442
0.00360285
0.000381001
0.000139278
-1.81882e-05
-0.000137627
-0.000214947
-0.00024075
-0.000211865
-0.000126785
1.63e-05
0.000219545
0.000484946
0.000813381
0.00120331
0.00164924
0.00214036
0.00266044
0.00318569
0.00368697
0.00413222
0.0044898
0.00473322
0.00484613
0.00482619
0.0046869
0.00445654
0.00417441
0.00388548
0.00363379
0.00345445
0.00339507
0.000596169
0.000261674
7.87196e-05
-4.32529e-05
-0.000116064
-0.000136826
-0.000107038
-2.7852e-05
0.000101634
0.000283848
0.000521892
0.000818399
0.00117408
0.00158603
0.0020461
0.00253976
0.00304537
0.00353417
0.00397341
0.00432961
0.00457367
0.00468643
0.00466327
0.00451631
0.0042735
0.00397426
0.00366346
0.00338503
0.00317507
0.00305706
0.000750496
0.000319415
0.000104157
-2.89076e-05
-0.000105746
-0.000129319
-0.000105676
-3.86342e-05
7.18341e-05
0.000228609
0.000436273
0.000699766
0.00102273
0.00140555
0.00184317
0.00232323
0.00282629
0.00332291
0.00377833
0.00415511
0.00441895
0.00454516
0.00452443
0.0043661
0.0040977
0.00376032
0.00340184
0.00307054
0.00280404
0.00260732
0.000795655
0.000271591
2.1529e-05
-0.000128026
-0.00021567
-0.0002495
-0.000239641
-0.00019225
-0.00010794
1.68756e-05
0.000188619
0.000415048
0.000703418
0.00105824
0.00147831
0.00195403
0.0024696
0.00299391
0.00348948
0.00391325
0.00422298
0.00438511
0.00438224
0.00421822
0.00391892
0.00352789
0.00309903
0.00268968
0.00234236
0.00204715
0.000692007
8.22847e-05
-0.000202318
-0.00037157
-0.000475491
-0.000526773
-0.000539112
-0.000520634
-0.000472335
-0.000389706
-0.000264186
-8.47219e-05
0.000160284
0.00048044
0.000879545
0.0013514
0.00189046
0.00245983
0.00302045
0.0035228
0.00391395
0.00414719
0.00419195
0.00404185
0.00371802
0.003266
0.00274823
0.00223636
0.00178332
0.00136523
0.000405336
-0.000281014
-0.000598483
-0.000789595
-0.000914912
-0.000991387
-0.00103593
-0.00105839
-0.00106004
-0.00103539
-0.000973611
-0.000859943
-0.000677675
-0.000410721
-4.65088e-05
0.000420238
0.000973856
0.00159727
0.00224666
0.00286463
0.00338484
0.00374206
0.00388515
0.00378963
0.00346558
0.00295768
0.0023387
0.00170065
0.00111334
0.000537372
-9.47303e-05
-0.000847604
-0.00119582
-0.00141101
-0.00156353
-0.00167448
-0.00176385
-0.00184323
-0.00191437
-0.00197107
-0.0020004
-0.00198373
-0.0018984
-0.00172009
-0.0014258
-0.000999087
-0.000441854
0.000235466
0.000992342
0.00176673
0.00247725
0.00303411
0.00335552
0.00338653
0.00311474
0.00257673
0.00185523
0.00106962
0.000315065
-0.00046633
-0.00083457
-0.00164277
-0.00201963
-0.00226179
-0.00244871
-0.00260568
-0.00275591
-0.00291311
-0.00308014
-0.00325084
-0.00341081
-0.00353785
-0.00360269
-0.00357078
-0.00340521
-0.00307298
-0.00255644
-0.00184782
-0.00097853
-9.65674e-06
0.00096345
0.00182103
0.00243825
0.0027119
0.00258789
0.00207985
0.00127523
0.000327717
-0.000630551
-0.00167898
-0.00183555
-0.00268664
-0.00309018
-0.00336313
-0.00359322
-0.00381022
-0.00404097
-0.00430208
-0.00459868
-0.00492599
-0.00526951
-0.0056043
-0.00589447
-0.00609361
-0.0061471
-0.00599894
-0.00560446
-0.00491749
-0.00395727
-0.0027711
-0.00146179
-0.000181067
0.00089065
0.00157906
0.00175933
0.00139515
0.000563518
-0.000543578
-0.00174198
-0.00313454
-0.00311255
-0.00399283
-0.00442117
-0.00472942
-0.00501269
-0.0053056
-0.00563938
-0.00603476
-0.00650076
-0.00703604
-0.00762807
-0.0082509
-0.00886272
-0.00940436
-0.00979998
-0.00996049
-0.00979266
-0.00924338
-0.00825935
-0.00686677
-0.00516513
-0.00333315
-0.0016148
-0.000279723
0.000437828
0.000407974
-0.000334978
-0.00156665
-0.00303415
-0.00486323
-0.00467228
-0.0055671
-0.00601817
-0.00636626
-0.00671281
-0.00709786
-0.007558
-0.00811959
-0.00879774
-0.00959709
-0.0105098
-0.0115116
-0.0125564
-0.0135722
-0.0144592
-0.0150926
-0.0153327
-0.015052
-0.0141586
-0.0126231
-0.0105175
-0.00803076
-0.0054668
-0.00320816
-0.00164117
-0.00105077
-0.00150302
-0.0027683
-0.00451371
-0.00688484
-0.00651188
-0.00740626
-0.00787742
-0.00826872
-0.00868683
-0.00917787
-0.00978496
-0.0105419
-0.0114722
-0.0125893
-0.0138934
-0.0153648
-0.0169556
-0.018582
-0.020119
-0.0214017
-0.0222332
-0.0224082
-0.0217822
-0.0202352
-0.0177867
-0.0146081
-0.0110412
-0.00758033
-0.00479732
-0.00320376
-0.00305476
-0.00417814
-0.0061711
-0.00919787
-0.0086181
-0.00949785
-0.00998536
-0.0104204
-0.0109137
-0.0115184
-0.0122854
-0.0132578
-0.0144698
-0.0159463
-0.0176985
-0.0197143
-0.0219471
-0.0243031
-0.0266328
-0.0287299
-0.0303414
-0.0311927
-0.0310197
-0.0296461
-0.0270005
-0.0231963
-0.018571
-0.0136991
-0.00934157
-0.0062983
-0.0051267
-0.0058217
-0.00796765
-0.0117624
-0.0109674
-0.0118209
-0.0123192
-0.0127934
-0.0133576
-0.0140728
-0.0149994
-0.0161913
-0.0176952
-0.01955
-0.0217796
-0.0243823
-0.0273145
-0.0304753
-0.0336933
-0.0367229
-0.0392561
-0.0409456
-0.0414321
-0.0404522
-0.0378288
-0.0335827
-0.0279921
-0.0216482
-0.0154596
-0.0105345
-0.00784281
-0.00770296
-0.00981597
-0.014475
-0.0135278
-0.014348
-0.0148492
-0.0153504
-0.015969
-0.0167759
-0.0178423
-0.0192348
-0.0210141
-0.0232336
-0.0259315
-0.029117
-0.0327511
-0.0367274
-0.0408559
-0.0448577
-0.0483757
-0.0509985
-0.0522902
-0.0519033
-0.0495494
-0.0451346
-0.0388257
-0.0311484
-0.0230667
-0.0159507
-0.0112445
-0.00976975
-0.0115519
-0.0171356
-0.0162615
-0.0170493
-0.0175421
-0.0180475
-0.0186879
-0.0195464
-0.0207084
-0.0222547
-0.0242606
-0.0267942
-0.0299073
-0.0336193
-0.0378956
-0.0426255
-0.0476036
-0.0525238
-0.0569902
-0.060545
-0.0627023
-0.0630247
-0.0611474
-0.0568572
-0.0501768
-0.0414883
-0.0316904
-0.022295
-0.0151935
-0.0118547
-0.0128962
-0.0194044
-0.0191306
-0.0198985
-0.0203668
-0.020839
-0.0214473
-0.0222924
-0.0234778
-0.0251009
-0.027252
-0.0300129
-0.0334471
-0.0375819
-0.0423856
-0.047743
-0.053436
-0.0591378
-0.0644248
-0.0688097
-0.0717846
-0.0728234
-0.0715323
-0.0675948
-0.0608863
-0.0515988
-0.0404536
-0.02894
-0.0192674
-0.0135957
-0.0134058
-0.0207473
-0.0221041
-0.0228811
-0.023301
-0.0236828
-0.0241788
-0.0249162
-0.0260236
-0.027618
-0.0298051
-0.0326785
-0.0363101
-0.0407319
-0.0459121
-0.05173
-0.0579567
-0.06425
-0.0701683
-0.0752032
-0.0788236
-0.0805065
-0.0797923
-0.0763038
-0.0697958
-0.0602683
-0.048199
-0.0348979
-0.0226929
-0.0143507
-0.0124152
-0.0203652
-0.0251695
-0.0260058
-0.0263398
-0.0265454
-0.0268157
-0.0273197
-0.0282201
-0.0296579
-0.0317538
-0.0346104
-0.0383041
-0.0428671
-0.0482633
-0.0543649
-0.060934
-0.0676144
-0.0739545
-0.0794333
-0.0835079
-0.0856592
-0.0853858
-0.0822803
-0.076009
-0.0664111
-0.0537145
-0.0389514
-0.024361
-0.0131328
-0.0089689
-0.0170976
-0.0283508
-0.0293213
-0.029505
-0.0294057
-0.0292959
-0.0294075
-0.0299497
-0.0310905
-0.0329641
-0.035678
-0.0393075
-0.0438791
-0.0493473
-0.0555769
-0.0623221
-0.0692055
-0.075774
-0.081496
-0.0858178
-0.088244
-0.0881865
-0.0852527
-0.0790432
-0.069274
-0.0559655
-0.0398502
-0.0229325
-0.00860659
-0.0017487
-0.00929941
-0.0317447
-0.0329422
-0.0328567
-0.0322578
-0.0315613
-0.03109
-0.0311093
-0.0318142
-0.0333475
-0.035814
-0.0392812
-0.043764
-0.0492043
-0.0554488
-0.0622347
-0.0691862
-0.0758337
-0.081637
-0.0860285
-0.0884542
-0.0883856
-0.0853216
-0.0788236
-0.0685057
-0.0542394
-0.0364929
-0.0169909
0.000849568
0.0110059
0.00531419
-0.0355974
-0.037092
-0.0365077
-0.0351108
-0.0335573
-0.0322861
-0.0316184
-0.0317671
-0.0328718
-0.0350236
-0.0382727
-0.0426131
-0.047967
-0.0541622
-0.0609195
-0.0678513
-0.0744733
-0.0802305
-0.0845319
-0.0867829
-0.0864083
-0.0828415
-0.0755587
-0.0640922
-0.0481793
-0.0280672
-0.00520241
0.0170834
0.031618
0.0298305
-0.0404768
-0.0421739
-0.0406383
-0.0379881
-0.0352342
-0.0329308
-0.0314309
-0.0309394
-0.0315713
-0.0333894
-0.0364119
-0.0406046
-0.0458623
-0.0519898
-0.0586881
-0.0655521
-0.0720799
-0.0776942
-0.0817688
-0.0836542
-0.0826957
-0.0782288
-0.0696098
-0.0562413
-0.0377221
-0.014174
0.013428
0.0420945
0.0630539
0.068137
-0.0476811
-0.0488883
-0.0454977
-0.0409164
-0.0365436
-0.0329784
-0.030539
-0.0293744
-0.0295431
-0.0310565
-0.0338887
-0.0379665
-0.0431513
-0.0492195
-0.055849
-0.0626139
-0.0689913
-0.0743756
-0.0780964
-0.0794352
-0.0776351
-0.0718854
-0.0613838
-0.0453357
-0.0231256
0.00533931
0.0391688
0.0773802
0.108353
0.124725
-0.060418
-0.0584581
-0.0513854
-0.0438875
-0.0373992
-0.0323588
-0.0289256
-0.0271188
-0.0268939
-0.0281834
-0.0309002
-0.0349231
-0.0400746
-0.0461
-0.0526522
-0.0592843
-0.0654508
-0.0705155
-0.0737615
-0.0743997
-0.07156
-0.0642424
-0.0514415
-0.0320838
-0.00521523
0.0297215
0.0725
0.122176
0.168662
0.206375
-0.0868715
-0.0724749
-0.0586339
-0.0467883
-0.0375561
-0.0308661
-0.0264805
-0.0241629
-0.0236997
-0.0249099
-0.0276292
-0.0316822
-0.0368522
-0.0428562
-0.0493264
-0.0557987
-0.0617091
-0.0663933
-0.0690851
-0.0689237
-0.0649466
-0.0560514
-0.0409033
-0.0180699
0.0139215
0.0564828
0.110429
0.176187
0.244435
0.326716
-0.138886
-0.0877853
-0.065262
-0.0475085
-0.0351269
-0.0270724
-0.0222218
-0.0198529
-0.019523
-0.0209366
-0.0238649
-0.0280934
-0.0333823
-0.039436
-0.0458806
-0.0522493
-0.0579753
-0.0623876
-0.0646987
-0.0639899
-0.0591373
-0.0491054
-0.0323021
-0.00689201
0.0292846
0.0791123
0.145744
0.234414
0.341974
0.5116
-0.311862
-0.0976839
-0.048291
-0.029052
-0.0179984
-0.0120729
-0.00957722
-0.00926459
-0.0105452
-0.0131832
-0.0170378
-0.0219642
-0.0277767
-0.0342242
-0.0409704
-0.0475797
-0.0535101
-0.0581091
-0.0606106
-0.0601461
-0.0557388
-0.0458859
-0.0292009
-0.00377308
0.0329888
0.0854227
0.160206
0.275151
0.450008
0.793711
)
;

boundaryField
{
    movingWall
    {
        type            zeroGradient;
    }
    fixedWalls
    {
        type            zeroGradient;
    }
    frontAndBack
    {
        type            empty;
    }
}


// ************************************************************************* //
