/*--------------------------------*- C++ -*----------------------------------*\
  =========                 |
  \\      /  F ield         | OpenFOAM: The Open Source CFD Toolbox
   \\    /   O peration     | Website:  https://openfoam.org
    \\  /    A nd           | Version:  7
     \\/     M anipulation  |
\*---------------------------------------------------------------------------*/
FoamFile
{
    version     2.0;
    format      ascii;
    class       surfaceScalarField;
    location    "10";
    object      phi;
}
// * * * * * * * * * * * * * * * * * * * * * * * * * * * * * * * * * * * * * //

dimensions      [0 3 -1 0 0 0 0];

internalField   nonuniform List<scalar> 
1740
(
7.49136e-07
-7.49133e-07
-2.31879e-07
9.81012e-07
-3.15142e-06
2.91955e-06
-7.6542e-06
4.50279e-06
-1.32523e-05
5.59807e-06
-1.95181e-05
6.26582e-06
-2.6127e-05
6.60886e-06
-3.28363e-05
6.7093e-06
-3.94469e-05
6.61063e-06
-4.57673e-05
6.32046e-06
-5.15877e-05
5.82039e-06
-5.66664e-05
5.0787e-06
-6.07303e-05
4.06388e-06
-6.34887e-05
2.7584e-06
-6.46601e-05
1.17134e-06
-6.40083e-05
-6.51784e-07
-6.13844e-05
-2.62388e-06
-5.6774e-05
-4.6104e-06
-5.03308e-05
-6.44319e-06
-4.23942e-05
-7.93657e-06
-3.34819e-05
-8.91234e-06
-2.42521e-05
-9.22978e-06
-1.54376e-05
-8.81454e-06
-7.7573e-06
-7.68027e-06
-1.81823e-06
-5.93907e-06
1.98867e-06
-3.8069e-06
3.54495e-06
-1.55627e-06
3.07793e-06
4.67022e-07
1.38661e-06
1.69132e-06
1.38661e-06
-9.80474e-07
2.31338e-07
-5.86442e-06
5.86497e-06
-1.48515e-05
1.19066e-05
-2.71955e-05
1.68468e-05
-4.19992e-05
2.04017e-05
-5.84002e-05
2.26668e-05
-7.56541e-05
2.38628e-05
-9.31305e-05
2.41857e-05
-0.000110267
2.37469e-05
-0.000126514
2.25679e-05
-0.000141297
2.06027e-05
-0.000153991
1.77728e-05
-0.000163934
1.40074e-05
-0.00017046
9.28445e-06
-0.000172954
3.665e-06
-0.000170949
-2.65693e-06
-0.000164169
-9.40336e-06
-0.000152665
-1.61149e-05
-0.000136847
-2.22606e-05
-0.000117523
-2.72613e-05
-9.5867e-05
-3.0568e-05
-7.33461e-05
-3.17506e-05
-5.15762e-05
-3.05845e-05
-3.21406e-05
-2.71158e-05
-1.63867e-05
-2.1693e-05
-5.23397e-06
-1.49596e-05
1.02799e-06
-7.81823e-06
2.92172e-06
-1.4267e-06
1.76098e-06
2.85206e-06
3.14759e-06
-3.18753e-06
3.41887e-06
-1.27723e-05
1.54498e-05
-2.79851e-05
2.71194e-05
-4.77215e-05
3.65833e-05
-7.07652e-05
4.34454e-05
-9.59671e-05
4.78687e-05
-0.000122305
5.02003e-05
-0.00014887
5.07514e-05
-0.000174823
4.96991e-05
-0.000199328
4.70735e-05
-0.000221519
4.27939e-05
-0.000240478
3.67312e-05
-0.000255251
2.87807e-05
-0.000264904
1.8937e-05
-0.000268603
7.36485e-06
-0.000265699
-5.56118e-06
-0.000255857
-1.92452e-05
-0.000239162
-3.281e-05
-0.000216191
-4.5232e-05
-0.00018805
-5.54024e-05
-0.000156349
-6.22693e-05
-0.000123098
-6.50007e-05
-9.05355e-05
-6.31475e-05
-6.08795e-05
-5.67718e-05
-3.60567e-05
-4.65157e-05
-1.74226e-05
-3.35938e-05
-5.51643e-06
-1.97244e-05
1.08198e-07
-7.05133e-06
1.07221e-06
1.88805e-06
4.2198e-06
-5.39775e-06
8.81661e-06
-1.96774e-05
2.97295e-05
-4.10602e-05
4.85021e-05
-6.78648e-05
6.33879e-05
-9.85392e-05
7.41198e-05
-0.0001317
8.10292e-05
-0.000166128
8.46285e-05
-0.000200728
8.53513e-05
-0.000234462
8.34336e-05
-0.000266291
7.89026e-05
-0.000295129
7.1632e-05
-0.000319832
6.14338e-05
-0.00033922
4.81683e-05
-0.000352138
3.18549e-05
-0.000357549
1.27764e-05
-0.000354645
-8.465e-06
-0.000342969
-3.09219e-05
-0.000322557
-5.32212e-05
-0.000294032
-7.37574e-05
-0.000258653
-9.07813e-05
-0.000218311
-0.000102611
-0.000175428
-0.000107884
-0.000132762
-0.000105814
-9.31234e-05
-9.64102e-05
-5.9031e-05
-8.06081e-05
-3.23539e-05
-6.02709e-05
-1.39982e-05
-3.808e-05
-3.69253e-06
-1.7357e-05
5.04103e-08
-1.85489e-06
4.27021e-06
-7.43788e-06
1.62545e-05
-2.62059e-05
4.84975e-05
-5.35005e-05
7.57968e-05
-8.70179e-05
9.69052e-05
-0.000124845
0.000111947
-0.000165386
0.00012157
-0.000207277
0.000126519
-0.000249301
0.000127375
-0.000290298
0.000124431
-0.000329093
0.000117698
-0.000364446
0.000106985
-0.000395041
9.20285e-05
-0.000419505
7.26322e-05
-0.000436473
4.88232e-05
-0.000444685
2.09884e-05
-0.000443115
-1.00349e-05
-0.000431077
-4.29603e-05
-0.000408434
-7.58644e-05
-0.000375698
-0.000106493
-0.000334136
-0.000132343
-0.000285794
-0.000150953
-0.000233432
-0.000160246
-0.000180327
-0.000158919
-0.000129952
-0.000146785
-8.55555e-05
-0.000125005
-4.96971e-05
-9.61294e-05
-2.38395e-05
-6.39377e-05
-8.07343e-06
-3.3123e-05
-1.03929e-06
-8.88903e-06
3.23092e-06
-9.28242e-06
2.55369e-05
-3.22237e-05
7.14388e-05
-6.50666e-05
0.00010864
-0.000104899
0.000136738
-0.000149455
0.000156503
-0.000196947
0.000169062
-0.00024591
0.000175482
-0.000295061
0.000176526
-0.000343183
0.000172552
-0.000389028
0.000163542
-0.000431259
0.000149217
-0.000468427
0.000129197
-0.000498985
0.00010319
-0.000521341
7.11795e-05
-0.000533958
3.36052e-05
-0.000535508
-8.485e-06
-0.00052492
-5.35483e-05
-0.000501725
-9.90588e-05
-0.000466149
-0.00014207
-0.000419286
-0.000179206
-0.000363209
-0.00020703
-0.000300952
-0.000222503
-0.000236348
-0.000223523
-0.000173675
-0.000209458
-0.00011714
-0.000181539
-7.02764e-05
-0.000142993
-3.53652e-05
-9.88488e-05
-1.30462e-05
-5.54421e-05
-2.18665e-06
-1.97486e-05
1.04427e-06
-1.09402e-05
3.64772e-05
-3.76931e-05
9.81917e-05
-7.5655e-05
0.000146602
-0.000121362
0.000182445
-0.000172229
0.000207371
-0.000226312
0.000223145
-0.000282087
0.000231256
-0.000338258
0.000232698
-0.000393608
0.000227903
-0.000446877
0.000216812
-0.000496682
0.000199022
-0.000541475
0.00017399
-0.000579543
0.000141257
-0.000609044
0.00010068
-0.000628081
5.26424e-05
-0.00063497
-1.59568e-06
-0.000628024
-6.04951e-05
-0.000606305
-0.000120777
-0.000569525
-0.000178849
-0.000518402
-0.00023033
-0.000454854
-0.000270578
-0.000382095
-0.000295263
-0.000304525
-0.000301092
-0.00022739
-0.000286593
-0.000156155
-0.000252774
-9.57024e-05
-0.000203446
-4.95105e-05
-0.000145041
-1.90417e-05
-8.59109e-05
-3.51348e-06
-3.52768e-05
-2.4692e-06
-1.24145e-05
4.88917e-05
-4.2585e-05
0.000128362
-8.51818e-05
0.000189198
-0.000136269
0.000233531
-0.000192996
0.000264099
-0.000253308
0.000283456
-0.000315664
0.000293612
-0.00037881
0.000295843
-0.000441584
0.000290676
-0.000502768
0.000277996
-0.000560983
0.000257237
-0.000614619
0.000227625
-0.000661805
0.000188444
-0.000700434
0.000139309
-0.000728236
8.0444e-05
-0.000742817
1.2986e-05
-0.000742139
-6.1173e-05
-0.000724354
-0.000138562
-0.000688472
-0.000214732
-0.000634586
-0.000284216
-0.000564224
-0.00034094
-0.000480586
-0.000378901
-0.000388577
-0.000393101
-0.000294517
-0.000380654
-0.000205443
-0.000341848
-0.000128068
-0.000280821
-6.7585e-05
-0.000205523
-2.67004e-05
-0.000126796
-5.19605e-06
-5.67811e-05
-7.66525e-06
-1.36922e-05
6.25839e-05
-4.68427e-05
0.000161513
-9.35248e-05
0.00023588
-0.000149421
0.000289428
-0.000211481
0.000326159
-0.000277584
0.000349559
-0.000346222
0.00036225
-0.000416226
0.000365848
-0.000486542
0.000360992
-0.000556048
0.000347502
-0.000623415
0.000324604
-0.000687008
0.000291217
-0.000744824
0.00024626
-0.000794485
0.000188971
-0.000833285
0.000119244
-0.000858265
3.79667e-05
-0.000866597
-5.28413e-05
-0.00085557
-0.00014959
-0.000823245
-0.000247056
-0.000768811
-0.00033865
-0.00069308
-0.000416671
-0.000598925
-0.000473056
-0.000491524
-0.000500501
-0.00037824
-0.000493939
-0.000267935
-0.000452152
-0.00016969
-0.000379066
-9.11128e-05
-0.000284101
-3.67865e-05
-0.000181122
-7.4516e-06
-8.61161e-05
-1.51168e-05
-1.47449e-05
7.73288e-05
-5.03755e-05
0.000197143
-0.000100507
0.000286012
-0.000160536
0.000349457
-0.000227276
0.000392898
-0.000298585
0.000420869
-0.000373027
0.000436692
-0.00044956
0.00044238
-0.000527279
0.000438711
-0.000605203
0.000425426
-0.0006821
0.000401501
-0.000756354
0.000365472
-0.000825872
0.000315778
-0.000888039
0.000251139
-0.00093974
0.000170945
-0.000977441
7.56673e-05
-0.000997526
-3.27565e-05
-0.000996296
-0.000150819
-0.000970732
-0.00027262
-0.000918848
-0.000390533
-0.00084036
-0.000495159
-0.000737347
-0.00057607
-0.000614803
-0.000623045
-0.000480841
-0.0006279
-0.000346211
-0.000586783
-0.00022287
-0.000502407
-0.000121715
-0.000385256
-5.01425e-05
-0.000252695
-1.05223e-05
-0.000125736
-2.56391e-05
-1.5534e-05
9.28627e-05
-5.30671e-05
0.000234676
-0.000105906
0.00033885
-0.000169257
0.000412808
-0.00023985
0.000463491
-0.000315563
0.000496581
-0.000395053
0.000516183
-0.000477431
0.000524758
-0.00056197
0.00052325
-0.000647863
0.000511319
-0.000734019
0.000487657
-0.000818891
0.000450344
-0.000900357
0.000397243
-0.000975641
0.000326422
-0.00104131
0.000236614
-0.00109332
0.00012768
-0.00112744
1.35673e-06
-0.0011389
-0.000139357
-0.00112364
-0.000287877
-0.00107829
-0.000435885
-0.00100107
-0.000572378
-0.00089268
-0.000684461
-0.000757206
-0.000758518
-0.000602851
-0.000782256
-0.000441928
-0.000747706
-0.000289589
-0.000654746
-0.000160995
-0.000513849
-6.76605e-05
-0.000346029
-1.46708e-05
-0.000178726
-4.03099e-05
-1.6018e-05
0.000108881
-5.47941e-05
0.000273453
-0.000109483
0.00039354
-0.00017519
0.000478515
-0.000248605
0.000536906
-0.000327641
0.000575617
-0.000411059
0.0005996
-0.000498123
0.000611823
-0.000588294
0.000613422
-0.000680958
0.000603983
-0.000775193
0.000581892
-0.000869579
0.00054473
-0.000962044
0.000489708
-0.00104977
0.000414152
-0.00112918
0.000316024
-0.00119599
0.000194489
-0.00124514
5.05011e-05
-0.00127168
-0.000112815
-0.00127021
-0.000289348
-0.00123598
-0.000470108
-0.00116545
-0.000642908
-0.0010573
-0.000792616
-0.000913758
-0.000902059
-0.000742016
-0.000953998
-0.000555067
-0.000934655
-0.000371084
-0.000838729
-0.000210375
-0.000674558
-9.02516e-05
-0.000466153
-2.01869e-05
-0.000248791
-6.04969e-05
-1.61621e-05
0.000125043
-5.54517e-05
0.000312742
-0.00011103
0.000449118
-0.000177973
0.000545458
-0.000252959
0.000611892
-0.00033393
0.000656588
-0.000419735
0.000685404
-0.000509773
0.00070186
-0.000603676
0.000707325
-0.00070102
0.000701327
-0.000801074
0.000681946
-0.00090259
0.000646246
-0.00100365
0.000590766
-0.00110154
0.000512049
-0.00119276
0.000407242
-0.00127299
0.000274718
-0.00133717
0.000114679
-0.00137973
-7.02579e-05
-0.00139479
-0.000274291
-0.00137631
-0.000488585
-0.00131885
-0.000700369
-0.00121856
-0.000892909
-0.00107479
-0.00104583
-0.000892237
-0.00113655
-0.000682983
-0.00114391
-0.000467226
-0.00105449
-0.000270819
-0.000870965
-0.00011878
-0.000618192
-2.73875e-05
-0.000340183
-8.78843e-05
-1.59494e-05
0.000140992
-5.49869e-05
0.00035178
-0.000110423
0.000504554
-0.000177359
0.000612394
-0.000252461
0.000686995
-0.000333679
0.000737806
-0.000419908
0.000771633
-0.000510642
0.000792594
-0.000605647
0.00080233
-0.000704667
0.000800347
-0.000807166
0.000784445
-0.000912119
0.0007512
-0.00101786
0.000696504
-0.00112197
0.000616161
-0.00122126
0.000506535
-0.00131177
0.000365225
-0.0013888
0.000191712
-0.00144665
-1.24059e-05
-0.00147962
-0.000241324
-0.00148068
-0.000487525
-0.00144274
-0.000738309
-0.00135921
-0.000976438
-0.00122572
-0.00117932
-0.00104281
-0.00131946
-0.000819431
-0.00136729
-0.000575721
-0.0012982
-0.000342413
-0.00110427
-0.000153932
-0.000806674
-3.66026e-05
-0.000457512
-0.000124487
-1.5393e-05
0.000156385
-5.34344e-05
0.000389821
-0.00010769
0.00055881
-0.00017331
0.000678013
-0.000246927
0.000760612
-0.000326455
0.000817334
-0.000410781
0.000855959
-0.000499437
0.000881251
-0.000592275
0.000895168
-0.000689173
0.000897245
-0.000789787
0.000885059
-0.000893359
0.000854771
-0.000998572
0.000801717
-0.00110348
0.000721069
-0.00120548
0.000608531
-0.00130129
0.000461039
-0.00138694
0.000277362
-0.00145776
5.84132e-05
-0.00150783
-0.000191252
-0.00153045
-0.000464911
-0.00151732
-0.000751433
-0.00145937
-0.00103439
-0.0013481
-0.0012906
-0.00117854
-0.00148901
-0.000953986
-0.00159184
-0.000691299
-0.00156088
-0.0004238
-0.00137177
-0.000196015
-0.00103446
-4.81453e-05
-0.000605382
-0.000172632
-1.45491e-05
0.000170934
-5.09556e-05
0.000426227
-0.000103082
0.000610936
-0.000166103
0.000741034
-0.000236577
0.000831086
-0.000312325
0.000893083
-0.000392173
0.000935807
-0.000475634
0.000964711
-0.000562596
0.00098213
-0.000653042
0.000987691
-0.000746823
0.000978841
-0.000843487
0.000951434
-0.000942169
0.000900399
-0.00104154
0.000820444
-0.00113982
0.000706806
-0.00123472
0.000555936
-0.00132341
0.000366059
-0.00140245
0.000137453
-0.00146685
-0.000126854
-0.00151065
-0.000421113
-0.00152528
-0.000736798
-0.00149995
-0.00105972
-0.00142235
-0.0013682
-0.00128137
-0.00162999
-0.00107242
-0.0018008
-0.000805269
-0.00182803
-0.000511615
-0.00166542
-0.000244708
-0.00130137
-6.22695e-05
-0.00078782
-0.000234902
-1.35293e-05
0.000184464
-4.78767e-05
0.000460575
-9.71353e-05
0.000660195
-0.000156422
0.000800321
-0.000222154
0.000896818
-0.000292011
0.00096294
-0.000364715
0.00100851
-0.000439725
0.00103972
-0.00051694
0.00105934
-0.000596439
0.00106719
-0.000678281
0.00106068
-0.000762373
0.00103553
-0.000848388
0.000986413
-0.000935749
0.000907806
-0.00102363
0.00079469
-0.00111096
0.000643259
-0.00119629
0.000451393
-0.0012777
0.000218859
-0.00135168
-5.28731e-05
-0.00141371
-0.000359077
-0.00145588
-0.000694627
-0.00146686
-0.00104874
-0.00143166
-0.0014034
-0.0013334
-0.00172824
-0.00115846
-0.00197573
-0.000905921
-0.00208057
-0.000600185
-0.00197116
-0.000298815
-0.00160274
-7.9138e-05
-0.0010075
-0.00031404
-1.25151e-05
0.000196979
-4.47303e-05
0.00049279
-9.07404e-05
0.000706205
-0.000145439
0.00085502
-0.000205017
0.000956396
-0.000266985
0.00102491
-0.000329957
0.00107148
-0.000393347
0.00110311
-0.00045708
0.00112308
-0.000521356
0.00113147
-0.000586486
0.00112581
-0.000652794
0.00110183
-0.000720571
0.00105419
-0.000790073
0.000977308
-0.000861532
0.000866148
-0.000935125
0.000716852
-0.00101088
0.00052715
-0.00108845
0.000296425
-0.00116638
2.50558e-05
-0.00124154
-0.000283912
-0.0013078
-0.000628369
-0.00135461
-0.00100194
-0.00136596
-0.00139205
-0.00132079
-0.00177341
-0.0011968
-0.00209973
-0.000980045
-0.00229733
-0.000681702
-0.0022695
-0.00035612
-0.00192832
-9.88291e-05
-0.00126479
-0.000412869
-1.17793e-05
0.000208758
-4.23079e-05
0.000523319
-8.52104e-05
0.000749107
-0.000134881
0.00090469
-0.000187191
0.00100871
-0.000239497
0.00107721
-0.000290367
0.00112235
-0.000339243
0.00115199
-0.000386147
0.00116998
-0.000431471
0.00117679
-0.000475849
0.00117019
-0.000520091
0.00114608
-0.000565168
0.00109927
-0.000612218
0.00102436
-0.000662535
0.000916466
-0.000717522
0.000771838
-0.00077857
0.000588199
-0.000846781
0.000364636
-0.000922827
0.000101101
-0.00100494
-0.000201801
-0.00108937
-0.000543936
-0.00116751
-0.000923793
-0.00122426
-0.0013353
-0.0012368
-0.00176087
-0.00117617
-0.00216036
-0.00101522
-0.00245828
-0.000747075
-0.00253765
-0.000413407
-0.00226199
-0.000121415
-0.00155678
-0.000534284
-1.17264e-05
0.000220484
-4.17432e-05
0.000553335
-8.23713e-05
0.000789735
-0.000127092
0.000949411
-0.000171379
0.00105299
-0.000212526
0.00111836
-0.00024921
0.00115904
-0.000281057
0.00118383
-0.000308325
0.00119725
-0.00033171
0.00120018
-0.000352259
0.00119074
-0.000371341
0.00116516
-0.000390644
0.00111857
-0.000412185
0.0010459
-0.000438278
0.000942559
-0.00047142
0.00080498
-0.00051418
0.000630958
-0.000568948
0.000419404
-0.000637606
0.000169759
-0.000720562
-0.000118845
-0.000815986
-0.000448512
-0.000918002
-0.000821776
-0.00101415
-0.00123915
-0.00108267
-0.00169234
-0.00109135
-0.00215169
-0.00100195
-0.00254768
-0.000787272
-0.00275233
-0.000466679
-0.00258258
-0.000147103
-0.00187636
-0.000681387
-1.29763e-05
0.000233461
-4.46605e-05
0.00058502
-8.47e-05
0.000829775
-0.000125104
0.000989815
-0.000160934
0.00108882
-0.000189646
0.00114707
-0.000210308
0.0011797
-0.000222981
0.00119651
-0.000228358
0.00120263
-0.000227589
0.00119941
-0.000222231
0.00118538
-0.000214259
0.00115719
-0.000206077
0.00111039
-0.000200511
0.00104033
-0.000200836
0.000942885
-0.000210401
0.000814545
-0.000232711
0.000653269
-0.000271079
0.000457771
-0.000328341
0.000227021
-0.000406526
-4.06599e-05
-0.000505505
-0.000349533
-0.000622367
-0.000704914
-0.000748457
-0.00111306
-0.000865719
-0.00157508
-0.000942771
-0.00207463
-0.000934524
-0.00255593
-0.000794272
-0.00289258
-0.000511393
-0.00286546
-0.000176326
-0.00221142
-0.000857713
-1.65379e-05
0.000249999
-5.34416e-05
0.000621923
-9.55327e-05
0.000871866
-0.000132694
0.00102698
-0.000159748
0.00111588
-0.000174759
0.00116208
-0.000177625
0.00118256
-0.000169198
0.00118808
-0.000150854
0.00118428
-0.000124352
0.0011729
-9.18391e-05
0.00115287
-5.59194e-05
0.00112127
-1.96986e-05
0.00107417
1.32802e-05
0.00100735
3.93039e-05
0.000916861
5.40451e-05
0.000799804
5.33755e-05
0.000653938
3.33541e-05
0.000477793
-9.45664e-06
0.000269832
-7.76655e-05
2.7549e-05
-0.00017311
-0.000254088
-0.000295473
-0.000582552
-0.000440355
-0.00096818
-0.000595321
-0.00142012
-0.000733917
-0.00193604
-0.000809853
-0.00247999
-0.000760953
-0.00294148
-0.000542289
-0.00308412
-0.00020956
-0.00254415
-0.00106727
-2.41607e-05
0.000274159
-7.16751e-05
0.000669438
-0.000119324
0.000919515
-0.000154343
0.001062
-0.00017191
0.00113344
-0.000171488
0.00116166
-0.000154448
0.00116552
-0.000122869
0.0011565
-7.9077e-05
0.00114049
-2.55697e-05
0.0011194
3.48817e-05
0.00109242
9.91348e-05
0.00105701
0.000163595
0.00100971
0.000224209
0.000946739
0.000276487
0.000864583
0.000315913
0.000760378
0.000337939
0.000631913
0.000338302
0.00047743
0.000313141
0.000294993
0.000259097
8.15922e-05
0.000173339
-0.00016833
5.41235e-05
-0.000463336
-9.82211e-05
-0.000815836
-0.000278107
-0.00124023
-0.000467397
-0.00174675
-0.00062481
-0.00232258
-0.00067951
-0.00288678
-0.000552321
-0.00321131
-0.000246485
-0.00284999
-0.00131376
-3.90045e-05
0.000313164
-0.000104795
0.000735228
-0.000161734
0.000976454
-0.000194646
0.00109491
-0.000200517
0.00113931
-0.000181499
0.00114264
-0.000141292
0.00112532
-8.36887e-05
0.0010989
-1.21945e-05
0.001069
6.98689e-05
0.00103733
0.000159174
0.00100311
0.000252145
0.000964042
0.000344846
0.000917007
0.000432947
0.000858638
0.000511809
0.000785721
0.000576674
0.000695513
0.000622854
0.000585732
0.000645919
0.000454364
0.000641784
0.000299129
0.000606691
0.000116685
0.000536866
-9.85051e-05
0.000428747
-0.000355217
0.000278939
-0.000666028
8.66287e-05
-0.00104792
-0.000140367
-0.00151975
-0.000372604
-0.00209034
-0.000538771
-0.00272061
-0.000530376
-0.00321971
-0.000284033
-0.00309633
-0.00159779
-6.68027e-05
0.000379966
-0.00016059
0.000829015
-0.000228569
0.00104443
-0.000255683
0.00112202
-0.000243712
0.00112734
-0.000199457
0.00109839
-0.000129985
0.00105585
-4.12658e-05
0.00101018
6.18681e-05
0.000965862
0.000175348
0.000923853
0.000295417
0.000883044
0.000418316
0.000841143
0.000540063
0.00079526
0.000656377
0.000742324
0.000762714
0.000679384
0.000854409
0.000603818
0.000926826
0.000513316
0.000975482
0.000405708
0.000996069
0.000278541
0.000984316
0.000128438
0.000935567
-4.97561e-05
0.000844639
-0.000264289
0.000705159
-0.000526548
0.00051054
-0.000853301
0.000258221
-0.00126743
-3.69528e-05
-0.00179517
-0.000320173
-0.00243739
-0.000457765
-0.00308212
-0.000313366
-0.00324073
-0.00191116
-0.00011758
0.000497546
-0.00024794
0.000959375
-0.00032003
0.00111652
-0.000327447
0.00112944
-0.000282214
0.00108211
-0.000198465
0.00101464
-8.77044e-05
0.000945086
4.16717e-05
0.000880803
0.000183645
0.000823889
0.000333677
0.000773821
0.000487986
0.000728734
0.000643032
0.000686097
0.000795199
0.000643093
0.000940641
0.000596882
0.00107525
0.000544773
0.00119474
0.000484331
0.00129471
0.000413349
0.00137071
0.000329706
0.0014182
0.000231049
0.00143228
0.000114356
0.00140722
-2.46951e-05
0.00133647
-0.000193538
0.00121107
-0.000401146
0.00102002
-0.000662257
0.000751699
-0.000999107
0.000403766
-0.00144723
1.51008e-05
-0.00204873
-0.000303062
-0.00276395
-0.000321118
-0.00322267
-0.00223227
-0.000207331
0.000704877
-0.000365917
0.00111796
-0.000407475
0.00115808
-0.000356483
0.00107844
-0.000243651
0.000969279
-9.29568e-05
0.000863946
7.9668e-05
0.000772461
0.000264275
0.000696195
0.000454732
0.000633433
0.000647069
0.000581484
0.000838369
0.000537434
0.00102607
0.000498396
0.00120755
0.000461614
0.00137991
0.000424523
0.00153989
0.000384792
0.00168388
0.00034034
0.00180795
0.000289285
0.00190783
0.000229819
0.00197889
0.000159995
0.00201566
7.758e-05
0.00201131
-2.03457e-05
0.00195823
-0.000140457
0.00184528
-0.000288196
0.00165839
-0.000475365
0.00137956
-0.000720277
0.000990334
-0.00105801
0.000492897
-0.00155129
-8.67807e-06
-0.00226238
-0.00026441
-0.00296694
-0.00249668
-0.000346448
0.00105133
-0.00044025
0.00121176
-0.000348
0.00106583
-0.000155623
0.000886068
8.16237e-05
0.000732032
0.00033476
0.00061081
0.000589076
0.000518145
0.000837658
0.000447614
0.00107762
0.000393466
0.00130795
0.000351163
0.00152822
0.00031716
0.00173802
0.000288599
0.00193652
0.000263108
0.00212237
0.00023868
0.00229355
0.000213604
0.00244748
0.000186413
0.00258094
0.000155829
0.00269009
0.000120664
0.00277043
7.96531e-05
0.00281657
3.14476e-05
0.00282192
-2.56995e-05
0.00277695
-9.54832e-05
0.00267005
-0.000181306
0.00248536
-0.00029067
0.00220103
-0.000435945
0.00178782
-0.000644797
0.00121416
-0.000977633
0.000522137
-0.00157035
-1.96521e-05
-0.00242515
-0.00251634
-0.000307505
0.00135883
-6.01374e-05
0.000964396
0.000364535
0.00064116
0.000784985
0.000465618
0.00117075
0.000346272
0.00151758
0.000263976
0.00182769
0.000208037
0.00210573
0.000169572
0.00235683
0.000142362
0.0025855
0.000122492
0.00279524
0.000107428
0.00298842
9.54097e-05
0.00316639
8.51385e-05
0.00332945
7.56209e-05
0.00347698
6.60773e-05
0.00360751
5.58812e-05
0.00371882
4.45209e-05
0.00380794
3.15423e-05
0.00387097
1.66256e-05
0.00390253
-1.12648e-07
0.00389918
-2.23536e-05
0.0038504
-4.6696e-05
0.00374616
-7.7068e-05
0.00357138
-0.000115897
0.00330341
-0.000167969
0.00290631
-0.000247696
0.00232001
-0.000391336
0.00148672
-0.00073706
0.000505355
-0.00144379
-0.00201098
0.00135883
0.00232323
0.00296439
0.00343
0.00377628
0.00404025
0.00424829
0.00441786
0.00456022
0.00468271
0.00479014
0.00488555
0.00497069
0.00504631
0.00511239
0.00516827
0.00521279
0.00524433
0.00526096
0.00526085
0.00523849
0.0051918
0.00511473
0.00499883
0.00483086
0.00458317
0.00419183
0.00345477
0.00201098
)
;

boundaryField
{
    movingWall
    {
        type            calculated;
        value           uniform 0;
    }
    fixedWalls
    {
        type            calculated;
        value           uniform 0;
    }
    frontAndBack
    {
        type            empty;
        value           nonuniform 0();
    }
}


// ************************************************************************* //
