/*--------------------------------*- C++ -*----------------------------------*\
  =========                 |
  \\      /  F ield         | OpenFOAM: The Open Source CFD Toolbox
   \\    /   O peration     | Website:  https://openfoam.org
    \\  /    A nd           | Version:  7
     \\/     M anipulation  |
\*---------------------------------------------------------------------------*/
FoamFile
{
    version     2.0;
    format      ascii;
    class       volVectorField;
    location    "10";
    object      U;
}
// * * * * * * * * * * * * * * * * * * * * * * * * * * * * * * * * * * * * * //

dimensions      [0 1 -1 0 0 0 0];

internalField   nonuniform List<vector> 
900
(
(0.000102319 -0.000100789 0)
(0.000123406 -1.47848e-05 0)
(-0.000213633 9.81154e-05 0)
(-0.000853096 0.000188016 0)
(-0.00171034 0.000246004 0)
(-0.00271197 0.000278382 0)
(-0.00379548 0.000293862 0)
(-0.0049141 0.000298772 0)
(-0.00603204 0.000296213 0)
(-0.00711768 0.000286631 0)
(-0.00813815 0.000268648 0)
(-0.00905601 0.000239898 0)
(-0.00982807 0.000197852 0)
(-0.0104066 0.000140635 0)
(-0.0107428 6.78408e-05 0)
(-0.0107924 -1.88122e-05 0)
(-0.0105216 -0.000115656 0)
(-0.00991565 -0.000215527 0)
(-0.00898534 -0.000309178 0)
(-0.0077717 -0.000386084 0)
(-0.006347 -0.000435892 0)
(-0.004811 -0.00045026 0)
(-0.00328203 -0.000424612 0)
(-0.00188354 -0.000359458 0)
(-0.000727577 -0.000261082 0)
(9.67521e-05 -0.000142173 0)
(0.000541076 -1.67223e-05 0)
(0.000611421 9.42869e-05 0)
(0.000389139 0.000156577 0)
(0.000110564 0.000110984 0)
(1.88878e-05 -0.00012768 0)
(-0.000384781 0.000378465 0)
(-0.00157581 0.000955901 0)
(-0.00339015 0.00142984 0)
(-0.00568637 0.00176428 0)
(-0.00831846 0.00197263 0)
(-0.0111507 0.00208158 0)
(-0.014069 0.00211358 0)
(-0.0169759 0.00208098 0)
(-0.0197806 0.00198611 0)
(-0.0223906 0.00182392 0)
(-0.024706 0.00158561 0)
(-0.0266188 0.00126266 0)
(-0.0280163 0.000850886 0)
(-0.0287891 0.000354117 0)
(-0.0288439 -0.000213188 0)
(-0.0281155 -0.000822946 0)
(-0.0265825 -0.00143429 0)
(-0.0242815 -0.00199647 0)
(-0.0213142 -0.00245375 0)
(-0.0178477 -0.00275297 0)
(-0.0141063 -0.0028524 0)
(-0.0103528 -0.0027302 0)
(-0.00686087 -0.00239084 0)
(-0.00388227 -0.00186811 0)
(-0.00161288 -0.00122526 0)
(-0.000159348 -0.000546993 0)
(0.000483688 5.48456e-05 0)
(0.00046448 0.000436831 0)
(0.00015919 0.000385665 0)
(-0.000107241 0.000218617 0)
(-0.00104649 0.00158998 0)
(-0.00318033 0.0029957 0)
(-0.00615106 0.00414966 0)
(-0.00976309 0.00498674 0)
(-0.0138277 0.00552519 0)
(-0.0181625 0.0058109 0)
(-0.022607 0.00588572 0)
(-0.0270179 0.00577372 0)
(-0.0312577 0.00547954 0)
(-0.0351856 0.00499304 0)
(-0.0386529 0.00429716 0)
(-0.0415022 0.00337715 0)
(-0.0435734 0.00223003 0)
(-0.0447157 0.000872933 0)
(-0.0448012 -0.000650515 0)
(-0.0437436 -0.00226579 0)
(-0.0415184 -0.00386962 0)
(-0.0381789 -0.00533659 0)
(-0.0338651 -0.00653128 0)
(-0.028806 -0.00732567 0)
(-0.0233084 -0.00761955 0)
(-0.0177343 -0.00736028 0)
(-0.0124649 -0.00655821 0)
(-0.00785676 -0.00529417 0)
(-0.00419417 -0.00371832 0)
(-0.0016435 -0.00204189 0)
(-0.000216559 -0.000531605 0)
(0.000245482 0.000496092 0)
(0.000132924 0.000646295 0)
(-0.000231322 0.000944163 0)
(-0.00171038 0.00358736 0)
(-0.00479044 0.00606263 0)
(-0.0088876 0.00805612 0)
(-0.0137362 0.00950207 0)
(-0.0191091 0.010436 0)
(-0.0247899 0.0109271 0)
(-0.0305867 0.0110365 0)
(-0.0363243 0.0107988 0)
(-0.041832 0.0102193 0)
(-0.0469337 0.0092813 0)
(-0.0514432 0.00795891 0)
(-0.0551652 0.00623207 0)
(-0.0579019 0.00410193 0)
(-0.0594665 0.00160474 0)
(-0.0597005 -0.00117782 0)
(-0.0584932 -0.00411542 0)
(-0.0558053 -0.0070276 0)
(-0.051689 -0.00969746 0)
(-0.0463001 -0.0118912 0)
(-0.0399033 -0.0133866 0)
(-0.0328635 -0.0140067 0)
(-0.0256214 -0.0136541 0)
(-0.0186531 -0.0123385 0)
(-0.0124169 -0.0101923 0)
(-0.00729257 -0.0074694 0)
(-0.00352324 -0.00453102 0)
(-0.0011674 -0.00182602 0)
(-7.76965e-05 0.00012891 0)
(9.09479e-05 0.000750111 0)
(-0.00034117 0.00202032 0)
(-0.00233008 0.00635139 0)
(-0.00632032 0.0101312 0)
(-0.0114942 0.0130975 0)
(-0.0175096 0.0152277 0)
(-0.0241011 0.0165966 0)
(-0.0310247 0.0173057 0)
(-0.0380675 0.0174381 0)
(-0.0450348 0.0170378 0)
(-0.0517345 0.0161085 0)
(-0.0579667 0.0146246 0)
(-0.063518 0.0125496 0)
(-0.0681625 0.00985672 0)
(-0.0716686 0.00655097 0)
(-0.0738132 0.00268849 0)
(-0.0744007 -0.00160937 0)
(-0.0732825 -0.00615131 0)
(-0.070384 -0.0106708 0)
(-0.0657328 -0.0148472 0)
(-0.0594745 -0.0183309 0)
(-0.0518858 -0.0207837 0)
(-0.0433719 -0.0219275 0)
(-0.0344456 -0.0215971 0)
(-0.0256837 -0.019785 0)
(-0.017664 -0.0166696 0)
(-0.0108894 -0.0126174 0)
(-0.00571101 -0.00816108 0)
(-0.00226197 -0.00395906 0)
(-0.000432493 -0.000748302 0)
(5.29202e-05 0.000672821 0)
(-0.000437146 0.00342012 0)
(-0.00289475 0.00984037 0)
(-0.00773712 0.0151586 0)
(-0.0139237 0.0192269 0)
(-0.0210367 0.0221098 0)
(-0.0287742 0.0239482 0)
(-0.0368703 0.0248895 0)
(-0.0450992 0.0250436 0)
(-0.0532572 0.0244645 0)
(-0.0611419 0.0231521 0)
(-0.0685398 0.0210686 0)
(-0.0752186 0.018162 0)
(-0.0809271 0.0143941 0)
(-0.0854002 0.00976825 0)
(-0.0883729 0.00435515 0)
(-0.0896013 -0.00168795 0)
(-0.0888782 -0.00811036 0)
(-0.0860673 -0.0145555 0)
(-0.0811426 -0.0205885 0)
(-0.0742089 -0.025725 0)
(-0.0655281 -0.0294819 0)
(-0.0555285 -0.0314448 0)
(-0.0447917 -0.0313431 0)
(-0.0340101 -0.0291207 0)
(-0.0239135 -0.0249847 0)
(-0.0151727 -0.0194176 0)
(-0.00829425 -0.0131464 0)
(-0.00352449 -0.00707734 0)
(-0.000816866 -0.00220973 0)
(2.22211e-05 0.000410363 0)
(-0.00052176 0.00511187 0)
(-0.00340406 0.0139963 0)
(-0.0090287 0.0210774 0)
(-0.0161534 0.0263744 0)
(-0.0242912 0.0300798 0)
(-0.0331084 0.0324279 0)
(-0.0423231 0.0336279 0)
(-0.0517051 0.0338239 0)
(-0.0610508 0.0330814 0)
(-0.0701581 0.0313945 0)
(-0.078809 0.0287079 0)
(-0.0867602 0.0249474 0)
(-0.0937386 0.0200536 0)
(-0.099445 0.0140169 0)
(-0.103565 0.0069093 0)
(-0.105792 -0.00108778 0)
(-0.105838 -0.0096603 0)
(-0.103475 -0.0183769 0)
(-0.0985903 -0.0266789 0)
(-0.0912122 -0.0339245 0)
(-0.0815537 -0.0394507 0)
(-0.0700417 -0.0426578 0)
(-0.0573184 -0.0431146 0)
(-0.0442058 -0.040664 0)
(-0.0316246 -0.0355067 0)
(-0.0204729 -0.0282344 0)
(-0.0114799 -0.0197953 0)
(-0.00506158 -0.0113959 0)
(-0.00126864 -0.00436316 0)
(-6.89924e-06 -5.21658e-05 0)
(-0.000596361 0.00706485 0)
(-0.0038574 0.0187558 0)
(-0.010186 0.027811 0)
(-0.0181642 0.0344617 0)
(-0.0272462 0.0390656 0)
(-0.0370734 0.0419767 0)
(-0.0473552 0.0434824 0)
(-0.0578651 0.0437697 0)
(-0.0684089 0.042918 0)
(-0.0787936 0.0409134 0)
(-0.0888066 0.0376772 0)
(-0.0982002 0.0331025 0)
(-0.106684 0.0270958 0)
(-0.113926 0.0196178 0)
(-0.119555 0.0107241 0)
(-0.123178 0.00060192 0)
(-0.124416 -0.0103954 0)
(-0.122932 -0.021762 0)
(-0.118477 -0.0328121 0)
(-0.110964 -0.0427282 0)
(-0.100516 -0.0506272 0)
(-0.0875206 -0.0556645 0)
(-0.0726565 -0.0571718 0)
(-0.0568768 -0.0548122 0)
(-0.0413285 -0.0487171 0)
(-0.0272059 -0.0395616 0)
(-0.01555 -0.0285404 0)
(-0.00702847 -0.0172314 0)
(-0.00184384 -0.00738297 0)
(-4.22183e-05 -0.00075653 0)
(-0.000660671 0.00924783 0)
(-0.00425021 0.0240502 0)
(-0.0111947 0.0352738 0)
(-0.0199295 0.0434012 0)
(-0.0298621 0.0489875 0)
(-0.040617 0.0525307 0)
(-0.0519025 0.0544128 0)
(-0.0635034 0.0548728 0)
(-0.0752431 0.0540071 0)
(-0.0869471 0.0517918 0)
(-0.098416 0.0481173 0)
(-0.109406 0.0428324 0)
(-0.119615 0.0357921 0)
(-0.128677 0.026907 0)
(-0.136164 0.0161927 0)
(-0.141596 0.00381694 0)
(-0.144484 -0.00986278 0)
(-0.144351 -0.0242698 0)
(-0.140793 -0.0385968 0)
(-0.133562 -0.0518385 0)
(-0.122642 -0.0628546 0)
(-0.108324 -0.0704887 0)
(-0.0912765 -0.0737414 0)
(-0.0725558 -0.0719841 0)
(-0.0535513 -0.0651754 0)
(-0.0358214 -0.0540137 0)
(-0.0208286 -0.0399507 0)
(-0.00961052 -0.0250222 0)
(-0.00261095 -0.01153 0)
(-9.36229e-05 -0.00178045 0)
(-0.000713137 0.0116261 0)
(-0.00457394 0.0298022 0)
(-0.0120334 0.043368 0)
(-0.0214117 0.0530904 0)
(-0.0320819 0.059749 0)
(-0.0436596 0.0640078 0)
(-0.0558587 0.0663586 0)
(-0.0684816 0.0671016 0)
(-0.0813763 0.0663543 0)
(-0.0943939 0.0640803 0)
(-0.107357 0.060132 0)
(-0.120031 0.0543005 0)
(-0.132112 0.0463707 0)
(-0.143206 0.0361783 0)
(-0.152832 0.0236704 0)
(-0.160428 0.00896392 0)
(-0.165391 -0.00759968 0)
(-0.167094 -0.0254082 0)
(-0.164959 -0.0435473 0)
(-0.158548 -0.0608238 0)
(-0.147647 -0.0758146 0)
(-0.132381 -0.0869901 0)
(-0.113325 -0.092915 0)
(-0.0915698 -0.0925254 0)
(-0.0687212 -0.0854498 0)
(-0.0467471 -0.0722889 0)
(-0.0276545 -0.0547237 0)
(-0.0130117 -0.035338 0)
(-0.00364667 -0.0171616 0)
(-0.000172047 -0.00323914 0)
(-0.000751427 0.014159 0)
(-0.00481719 0.0359223 0)
(-0.0126751 0.0519794 0)
(-0.0225637 0.0634062 0)
(-0.0338334 0.0712286 0)
(-0.0460968 0.0762948 0)
(-0.0590784 0.0792207 0)
(-0.0726022 0.0803769 0)
(-0.086545 0.0799059 0)
(-0.100789 0.0777579 0)
(-0.115184 0.0737404 0)
(-0.129516 0.0675739 0)
(-0.143482 0.0589547 0)
(-0.156677 0.04762 0)
(-0.168578 0.0334192 0)
(-0.178559 0.0163853 0)
(-0.185915 -0.00318995 0)
(-0.189884 -0.0246748 0)
(-0.189713 -0.0470995 0)
(-0.184758 -0.069101 0)
(-0.17456 -0.0889716 0)
(-0.158997 -0.10477 0)
(-0.138434 -0.114527 0)
(-0.113876 -0.116578 0)
(-0.0870478 -0.110004 0)
(-0.0603188 -0.0950956 0)
(-0.0363504 -0.0736543 0)
(-0.017446 -0.0488769 0)
(-0.00503488 -0.0247393 0)
(-0.000289464 -0.00528953 0)
(-0.000772975 0.0167993 0)
(-0.00496784 0.0423075 0)
(-0.0130912 0.0609749 0)
(-0.0233349 0.0742009 0)
(-0.0350363 0.0832728 0)
(-0.0478091 0.0892369 0)
(-0.0613893 0.0928455 0)
(-0.0756235 0.0945491 0)
(-0.0904184 0.0945198 0)
(-0.105689 0.0926944 0)
(-0.121316 0.08883 0)
(-0.137112 0.0825669 0)
(-0.152791 0.0734972 0)
(-0.167946 0.0612401 0)
(-0.182044 0.0455242 0)
(-0.194419 0.026273 0)
(-0.204286 0.00369602 0)
(-0.210798 -0.0216164 0)
(-0.213075 -0.0486597 0)
(-0.210253 -0.0759541 0)
(-0.201609 -0.101548 0)
(-0.186696 -0.123093 0)
(-0.165539 -0.138026 0)
(-0.138875 -0.143921 0)
(-0.108368 -0.139036 0)
(-0.0766801 -0.123028 0)
(-0.047178 -0.0975675 0)
(-0.023127 -0.0664462 0)
(-0.00686761 -0.0348309 0)
(-0.000460198 -0.00813519 0)
(-0.000775609 0.0194927 0)
(-0.00501579 0.0488412 0)
(-0.0132574 0.0702023 0)
(-0.0236799 0.0853006 0)
(-0.0356152 0.0956912 0)
(-0.0486776 0.102629 0)
(-0.0626131 0.107013 0)
(-0.0772873 0.109381 0)
(-0.0926334 0.109942 0)
(-0.108598 0.108619 0)
(-0.125094 0.105119 0)
(-0.141965 0.0989949 0)
(-0.158952 0.0897258 0)
(-0.175671 0.0768017 0)
(-0.191602 0.0598159 0)
(-0.206088 0.0385655 0)
(-0.218337 0.0131501 0)
(-0.227454 -0.0159366 0)
(-0.232477 -0.0476911 0)
(-0.232398 -0.0805998 0)
(-0.226232 -0.112552 0)
(-0.21316 -0.140862 0)
(-0.192744 -0.16238 0)
(-0.165236 -0.173801 0)
(-0.131967 -0.172278 0)
(-0.0956454 -0.156383 0)
(-0.0602651 -0.1272 0)
(-0.030245 -0.0889157 0)
(-0.00924399 -0.0481061 0)
(-0.000702246 -0.012031 0)
(-0.000758253 0.0221805 0)
(-0.00495631 0.0553972 0)
(-0.0131607 0.0794938 0)
(-0.0235705 0.0965069 0)
(-0.0355153 0.108258 0)
(-0.0486067 0.116214 0)
(-0.0625947 0.12143 0)
(-0.0773571 0.12454 0)
(-0.0928466 0.125794 0)
(-0.109035 0.125108 0)
(-0.125868 0.122138 0)
(-0.143222 0.116351 0)
(-0.160879 0.107115 0)
(-0.178499 0.0937878 0)
(-0.195612 0.0758271 0)
(-0.21162 0.0528962 0)
(-0.225788 0.0249721 0)
(-0.237251 -0.00755996 0)
(-0.245057 -0.0438136 0)
(-0.248136 -0.082297 0)
(-0.245298 -0.120876 0)
(-0.235363 -0.15667 0)
(-0.217344 -0.18605 0)
(-0.190809 -0.20482 0)
(-0.15642 -0.208791 0)
(-0.116537 -0.194927 0)
(-0.075498 -0.163019 0)
(-0.0389275 -0.117129 0)
(-0.0122647 -0.0653164 0)
(-0.00103821 -0.017287 0)
(-0.000721664 0.0248031 0)
(-0.00479371 0.0618474 0)
(-0.0128084 0.0886742 0)
(-0.0230091 0.107604 0)
(-0.034722 0.120714 0)
(-0.0475495 0.129687 0)
(-0.061237 0.135737 0)
(-0.0756646 0.139602 0)
(-0.0907957 0.14158 0)
(-0.106621 0.141588 0)
(-0.123112 0.139237 0)
(-0.140184 0.133919 0)
(-0.15767 0.124896 0)
(-0.175297 0.111411 0)
(-0.192681 0.0927968 0)
(-0.20933 0.0685939 0)
(-0.224636 0.0386569 0)
(-0.237876 0.00323997 0)
(-0.248174 -0.0369303 0)
(-0.254491 -0.0804974 0)
(-0.255574 -0.125462 0)
(-0.24995 -0.168959 0)
(-0.236085 -0.207098 0)
(-0.212725 -0.23493 0)
(-0.179542 -0.246827 0)
(-0.138047 -0.237653 0)
(-0.0923909 -0.204978 0)
(-0.0491753 -0.151758 0)
(-0.0160204 -0.0872517 0)
(-0.00149583 -0.0242687 0)
(-0.000669157 0.0273064 0)
(-0.00454517 0.068073 0)
(-0.0122366 0.0975739 0)
(-0.0220425 0.118373 0)
(-0.0332805 0.132787 0)
(-0.0455341 0.142709 0)
(-0.0585346 0.14952 0)
(-0.0721552 0.154069 0)
(-0.0863605 0.156711 0)
(-0.101153 0.157371 0)
(-0.116528 0.155632 0)
(-0.132444 0.150821 0)
(-0.148792 0.142119 0)
(-0.16539 0.128675 0)
(-0.181972 0.109726 0)
(-0.198195 0.0847133 0)
(-0.213634 0.0533831 0)
(-0.22777 0.015859 0)
(-0.239911 -0.0272974 0)
(-0.249173 -0.0749982 0)
(-0.254362 -0.125532 0)
(-0.253859 -0.176293 0)
(-0.245688 -0.223447 0)
(-0.227765 -0.261608 0)
(-0.198556 -0.283845 0)
(-0.158217 -0.282608 0)
(-0.109974 -0.252246 0)
(-0.0607845 -0.193098 0)
(-0.020575 -0.114663 0)
(-0.00210879 -0.0333913 0)
(-0.000607319 0.0296496 0)
(-0.00424463 0.073981 0)
(-0.0115188 0.106047 0)
(-0.020776 0.128606 0)
(-0.0313133 0.144198 0)
(-0.0426855 0.154925 0)
(-0.0546025 0.162337 0)
(-0.0669241 0.167403 0)
(-0.0796109 0.170544 0)
(-0.0926731 0.17171 0)
(-0.106132 0.170467 0)
(-0.119989 0.166104 0)
(-0.134212 0.157749 0)
(-0.148723 0.144489 0)
(-0.163398 0.1255 0)
(-0.178075 0.100161 0)
(-0.192547 0.0681411 0)
(-0.206539 0.029453 0)
(-0.219618 -0.0155277 0)
(-0.231158 -0.0660442 0)
(-0.240151 -0.120789 0)
(-0.245019 -0.177665 0)
(-0.243546 -0.233269 0)
(-0.232968 -0.282241 0)
(-0.210513 -0.316766 0)
(-0.174612 -0.326918 0)
(-0.12677 -0.302996 0)
(-0.073275 -0.240813 0)
(-0.0259493 -0.148149 0)
(-0.00291887 -0.0451053 0)
(-0.000546882 0.031816 0)
(-0.00394712 0.0795247 0)
(-0.0107751 0.113995 0)
(-0.0193848 0.138134 0)
(-0.0290344 0.154692 0)
(-0.0392419 0.165987 0)
(-0.0496935 0.173744 0)
(-0.0602362 0.17906 0)
(-0.0708285 0.182436 0)
(-0.081492 0.183858 0)
(-0.0922773 0.182902 0)
(-0.103242 0.178844 0)
(-0.114436 0.170788 0)
(-0.125903 0.157799 0)
(-0.137678 0.13903 0)
(-0.149789 0.113835 0)
(-0.162256 0.0818425 0)
(-0.175063 0.0429808 0)
(-0.188082 -0.00254812 0)
(-0.20098 -0.0543277 0)
(-0.213029 -0.111528 0)
(-0.222889 -0.17275 0)
(-0.228363 -0.235375 0)
(-0.226298 -0.294621 0)
(-0.21288 -0.342456 0)
(-0.184716 -0.367068 0)
(-0.140927 -0.354368 0)
(-0.0858633 -0.293699 0)
(-0.0321128 -0.188009 0)
(-0.00398217 -0.0598813 0)
(-0.000504264 0.0338255 0)
(-0.00373493 0.0847282 0)
(-0.0101832 0.121391 0)
(-0.0181271 0.146842 0)
(-0.0267603 0.164056 0)
(-0.0355611 0.175577 0)
(-0.0441997 0.183323 0)
(-0.0525223 0.188529 0)
(-0.0604975 0.191788 0)
(-0.0681699 0.19314 0)
(-0.0756316 0.19219 0)
(-0.0830059 0.188231 0)
(-0.0904403 0.180379 0)
(-0.098107 0.167711 0)
(-0.106204 0.149392 0)
(-0.11495 0.124783 0)
(-0.12458 0.0935007 0)
(-0.135317 0.0554124 0)
(-0.14733 0.0105765 0)
(-0.160574 -0.0408524 0)
(-0.174642 -0.0985821 0)
(-0.188575 -0.161988 0)
(-0.200452 -0.229489 0)
(-0.207106 -0.297403 0)
(-0.204093 -0.358306 0)
(-0.186416 -0.399436 0)
(-0.150491 -0.402703 0)
(-0.0975037 -0.349546 0)
(-0.0389892 -0.234075 0)
(-0.00538339 -0.078199 0)
(-0.000505035 0.0357532 0)
(-0.00372851 0.0897183 0)
(-0.00999374 0.128309 0)
(-0.0173569 0.154697 0)
(-0.0249159 0.17213 0)
(-0.0321174 0.183422 0)
(-0.0386391 0.190701 0)
(-0.0443531 0.195357 0)
(-0.049263 0.198083 0)
(-0.0534573 0.198989 0)
(-0.0570866 0.19773 0)
(-0.060354 0.193642 0)
(-0.0635123 0.185884 0)
(-0.0668667 0.173574 0)
(-0.070775 0.155921 0)
(-0.0756357 0.13231 0)
(-0.0818715 0.102364 0)
(-0.0899074 0.0659142 0)
(-0.100124 0.0229065 0)
(-0.11275 -0.0267102 0)
(-0.127717 -0.083129 0)
(-0.144462 -0.146464 0)
(-0.161539 -0.216274 0)
(-0.176157 -0.290355 0)
(-0.183792 -0.36271 0)
(-0.178373 -0.42089 0)
(-0.153727 -0.443997 0)
(-0.10699 -0.405176 0)
(-0.0464721 -0.285551 0)
(-0.0072608 -0.100557 0)
(-0.000592081 0.0377563 0)
(-0.00410797 0.0947636 0)
(-0.0105569 0.134953 0)
(-0.017543 0.161758 0)
(-0.0240387 0.178821 0)
(-0.0294889 0.189295 0)
(-0.0336244 0.195557 0)
(-0.0363897 0.199158 0)
(-0.0378613 0.2009 0)
(-0.0382004 0.200971 0)
(-0.0376364 0.199092 0)
(-0.0364645 0.194661 0)
(-0.0350461 0.186902 0)
(-0.0338129 0.175002 0)
(-0.0332744 0.158228 0)
(-0.0339825 0.135994 0)
(-0.0365108 0.107944 0)
(-0.0414367 0.073879 0)
(-0.0492916 0.0336619 0)
(-0.0605125 -0.0129401 0)
(-0.075295 -0.0664759 0)
(-0.093453 -0.12767 0)
(-0.114123 -0.197142 0)
(-0.135193 -0.274323 0)
(-0.152637 -0.355287 0)
(-0.160073 -0.429262 0)
(-0.149302 -0.474435 0)
(-0.113066 -0.456667 0)
(-0.0544165 -0.340864 0)
(-0.00983483 -0.127505 0)
(-0.0008441 0.0401216 0)
(-0.0051552 0.100329 0)
(-0.0123659 0.141684 0)
(-0.0192936 0.168176 0)
(-0.0247755 0.184077 0)
(-0.0283253 0.192996 0)
(-0.0298067 0.197599 0)
(-0.0293039 0.199602 0)
(-0.0270164 0.199908 0)
(-0.0232115 0.198779 0)
(-0.0182169 0.196006 0)
(-0.0124268 0.191063 0)
(-0.00630602 0.183255 0)
(-0.00039451 0.17184 0)
(0.00466297 0.156146 0)
(0.00819269 0.135639 0)
(0.00952007 0.109963 0)
(0.00796117 0.0788895 0)
(0.00289665 0.0421999 0)
(-0.00626196 -0.000487301 0)
(-0.0198874 -0.049897 0)
(-0.0380933 -0.107231 0)
(-0.060604 -0.17394 0)
(-0.0861654 -0.250972 0)
(-0.111748 -0.336791 0)
(-0.131521 -0.423532 0)
(-0.136208 -0.490806 0)
(-0.114427 -0.499679 0)
(-0.0625526 -0.397559 0)
(-0.0134153 -0.159688 0)
(-0.00141598 0.0433556 0)
(-0.00733345 0.107145 0)
(-0.0161224 0.149023 0)
(-0.0233755 0.174157 0)
(-0.0278485 0.187841 0)
(-0.029268 0.194305 0)
(-0.0277552 0.196529 0)
(-0.0236243 0.196378 0)
(-0.0172553 0.194828 0)
(-0.00905342 0.192191 0)
(0.000543724 0.188319 0)
(0.0110455 0.182759 0)
(0.0218936 0.174899 0)
(0.0324564 0.164072 0)
(0.042016 0.149659 0)
(0.0498172 0.131179 0)
(0.0551057 0.108265 0)
(0.0571387 0.0806458 0)
(0.0552331 0.0480284 0)
(0.0487725 0.00992018 0)
(0.0372397 -0.0345009 0)
(0.0202377 -0.0866944 0)
(-0.0024304 -0.148634 0)
(-0.0304015 -0.222414 0)
(-0.0619697 -0.308824 0)
(-0.0926839 -0.403738 0)
(-0.113423 -0.490675 0)
(-0.109549 -0.52972 0)
(-0.0702466 -0.452176 0)
(-0.0183261 -0.197802 0)
(-0.00262193 0.0483552 0)
(-0.0114246 0.116297 0)
(-0.0228075 0.157617 0)
(-0.0306741 0.17986 0)
(-0.0339057 0.189936 0)
(-0.0327073 0.192868 0)
(-0.0276403 0.191945 0)
(-0.0193564 0.189115 0)
(-0.00847331 0.18536 0)
(0.00444333 0.181001 0)
(0.0188446 0.175917 0)
(0.0341594 0.16971 0)
(0.0497667 0.161838 0)
(0.064982 0.15171 0)
(0.079055 0.138765 0)
(0.0911986 0.122539 0)
(0.100624 0.102657 0)
(0.106564 0.0788012 0)
(0.108308 0.050615 0)
(0.105199 0.0175505 0)
(0.0966172 -0.0213065 0)
(0.0819567 -0.0674482 0)
(0.0606206 -0.123044 0)
(0.0321684 -0.190842 0)
(-0.00312421 -0.273473 0)
(-0.0428384 -0.370755 0)
(-0.0794116 -0.472324 0)
(-0.0963002 -0.542186 0)
(-0.076058 -0.499962 0)
(-0.0246406 -0.242295 0)
(-0.00509351 0.0567422 0)
(-0.0187305 0.129286 0)
(-0.0336519 0.168053 0)
(-0.0418822 0.185129 0)
(-0.042963 0.189799 0)
(-0.0380253 0.187979 0)
(-0.0283133 0.183154 0)
(-0.0149317 0.177216 0)
(0.00122198 0.171043 0)
(0.0194162 0.164883 0)
(0.0390103 0.158595 0)
(0.0593879 0.151806 0)
(0.0799106 0.144024 0)
(0.0998942 0.134716 0)
(0.118603 0.12337 0)
(0.135269 0.109539 0)
(0.149112 0.0928362 0)
(0.15937 0.0729082 0)
(0.165312 0.0493519 0)
(0.166229 0.0215937 0)
(0.161387 -0.0112728 0)
(0.149996 -0.0506667 0)
(0.131112 -0.0986661 0)
(0.103645 -0.158181 0)
(0.0666246 -0.232918 0)
(0.0200969 -0.326137 0)
(-0.031468 -0.434751 0)
(-0.0713031 -0.532159 0)
(-0.0771598 -0.534348 0)
(-0.0316657 -0.292826 0)
(-0.0100416 0.0715377 0)
(-0.0312471 0.14792 0)
(-0.0495714 0.180313 0)
(-0.0561973 0.18887 0)
(-0.0525341 0.185916 0)
(-0.0413108 0.178096 0)
(-0.0247364 0.168779 0)
(-0.00445536 0.159543 0)
(0.0183557 0.150989 0)
(0.0428422 0.143184 0)
(0.0683321 0.135899 0)
(0.0942306 0.128741 0)
(0.119952 0.121241 0)
(0.14488 0.11291 0)
(0.168355 0.103277 0)
(0.189678 0.0919176 0)
(0.208122 0.0784494 0)
(0.222951 0.0625061 0)
(0.23342 0.0436757 0)
(0.238754 0.0214106 0)
(0.238075 -0.00510803 0)
(0.230408 -0.0371238 0)
(0.214498 -0.0764446 0)
(0.188737 -0.125737 0)
(0.151202 -0.188955 0)
(0.100006 -0.271701 0)
(0.0352504 -0.378076 0)
(-0.0287922 -0.494639 0)
(-0.0688008 -0.546744 0)
(-0.0373197 -0.347976 0)
(-0.0195169 0.0980235 0)
(-0.0511592 0.172991 0)
(-0.0682602 0.192105 0)
(-0.0666124 0.18752 0)
(-0.0519052 0.174601 0)
(-0.0291977 0.159959 0)
(-0.00177432 0.146163 0)
(0.0282983 0.134047 0)
(0.0597449 0.123694 0)
(0.0917702 0.114858 0)
(0.123832 0.107147 0)
(0.155496 0.100111 0)
(0.186342 0.093286 0)
(0.21592 0.0862175 0)
(0.243721 0.0784831 0)
(0.269173 0.0696997 0)
(0.29165 0.059518 0)
(0.310468 0.0475995 0)
(0.324891 0.0335704 0)
(0.334093 0.0169615 0)
(0.337055 -0.00288982 0)
(0.332641 -0.0268935 0)
(0.319313 -0.0565079 0)
(0.295079 -0.0939231 0)
(0.257306 -0.142628 0)
(0.202718 -0.208955 0)
(0.128075 -0.302701 0)
(0.0411444 -0.426461 0)
(-0.0432918 -0.527826 0)
(-0.0369786 -0.403296 0)
(-0.0350624 0.142286 0)
(-0.0748328 0.197515 0)
(-0.0709551 0.192524 0)
(-0.044615 0.170484 0)
(-0.00731599 0.147169 0)
(0.034361 0.127012 0)
(0.0770528 0.110619 0)
(0.119149 0.097543 0)
(0.159938 0.0871289 0)
(0.199151 0.0787488 0)
(0.236703 0.0718412 0)
(0.272545 0.0659086 0)
(0.306586 0.0605091 0)
(0.33865 0.0552505 0)
(0.368462 0.049787 0)
(0.395638 0.0438145 0)
(0.419696 0.0370618 0)
(0.440047 0.0292731 0)
(0.45601 0.0201764 0)
(0.466753 0.00943611 0)
(0.471286 -0.00343876 0)
(0.468367 -0.0189486 0)
(0.456226 -0.0380717 0)
(0.43271 -0.0623656 0)
(0.394708 -0.0944113 0)
(0.338367 -0.139665 0)
(0.257259 -0.209739 0)
(0.153061 -0.324202 0)
(0.0154743 -0.465526 0)
(-0.0171097 -0.441646 0)
(-0.0378674 0.235244 0)
(-0.049129 0.202177 0)
(0.0251468 0.151704 0)
(0.096788 0.116449 0)
(0.164124 0.0906155 0)
(0.22531 0.0718778 0)
(0.280018 0.0585086 0)
(0.328883 0.0488943 0)
(0.372808 0.0418282 0)
(0.412635 0.0364994 0)
(0.449043 0.0323511 0)
(0.482527 0.0289733 0)
(0.513397 0.0260478 0)
(0.541791 0.0233199 0)
(0.567681 0.0205809 0)
(0.590891 0.0176578 0)
(0.611113 0.0144037 0)
(0.627906 0.0106851 0)
(0.640722 0.00637795 0)
(0.648763 0.00132387 0)
(0.65131 -0.00457344 0)
(0.64724 -0.0117459 0)
(0.634872 -0.0206087 0)
(0.612263 -0.031893 0)
(0.576102 -0.046937 0)
(0.522756 -0.0692039 0)
(0.44234 -0.107035 0)
(0.333244 -0.187615 0)
(0.143216 -0.335582 0)
(0.0605819 -0.412621 0)
(0.231183 0.15857 0)
(0.290755 0.116701 0)
(0.439358 0.0754983 0)
(0.537453 0.0502483 0)
(0.604085 0.034088 0)
(0.653665 0.0235417 0)
(0.692343 0.0167569 0)
(0.723401 0.012404 0)
(0.749079 0.00956432 0)
(0.770913 0.00766001 0)
(0.789907 0.0063354 0)
(0.806698 0.0053636 0)
(0.821671 0.00459322 0)
(0.835026 0.00391946 0)
(0.846818 0.00326748 0)
(0.856987 0.00258188 0)
(0.865379 0.00182109 0)
(0.871759 0.000947183 0)
(0.875831 -6.0451e-05 0)
(0.877237 -0.00125469 0)
(0.87548 -0.00251853 0)
(0.869855 -0.00410057 0)
(0.859607 -0.00608515 0)
(0.843767 -0.00861771 0)
(0.819963 -0.0119776 0)
(0.786452 -0.0172316 0)
(0.731486 -0.026587 0)
(0.655117 -0.0486277 0)
(0.453841 -0.109819 0)
(0.313123 -0.177386 0)
)
;

boundaryField
{
    movingWall
    {
        type            fixedValue;
        value           uniform (1 0 0);
    }
    fixedWalls
    {
        type            noSlip;
    }
    frontAndBack
    {
        type            empty;
    }
}


// ************************************************************************* //
