/*--------------------------------*- C++ -*----------------------------------*\
  =========                 |
  \\      /  F ield         | OpenFOAM: The Open Source CFD Toolbox
   \\    /   O peration     | Website:  https://openfoam.org
    \\  /    A nd           | Version:  7
     \\/     M anipulation  |
\*---------------------------------------------------------------------------*/
FoamFile
{
    version     2.0;
    format      ascii;
    class       surfaceScalarField;
    location    "1.52";
    object      phi;
}
// * * * * * * * * * * * * * * * * * * * * * * * * * * * * * * * * * * * * * //

dimensions      [0 3 -1 0 0 0 0];

internalField   nonuniform List<scalar> 
3784
(
-0.00193747
0.00193747
-0.000837487
-0.00109999
0.000558129
-0.00139562
0.000643742
-8.5611e-05
0.000160256
0.000483486
-0.000750542
0.000910798
-0.00172969
0.000979148
-0.00181077
8.10788e-05
-0.000677586
-0.00113318
0.00101111
-0.0016887
0.00206848
-0.00105737
0.00186466
0.000203825
0.000723796
0.00114086
-0.000525396
0.00124919
-0.00106801
0.000542612
-0.000577356
-0.000490653
0.000532213
-0.00110957
0.00109325
-0.000561037
0.000500403
0.000592848
-0.000822203
0.00132261
-0.00195371
0.0011315
-0.0019618
8.0953e-06
-0.000598119
-0.00136369
0.00115761
-0.00175573
0.00212194
-0.000964331
0.00192702
0.000194923
0.000792905
0.00113411
-0.000508132
0.00130104
-0.00114
0.000631867
-0.000783863
-0.000356137
0.000350904
-0.00113477
0.00109773
-0.000746828
0.000582959
0.000514774
-0.000797624
0.00138058
-0.00194668
0.00114906
-0.00181768
-0.000128997
-0.000310117
-0.00150757
0.00138343
-0.00169355
0.00211766
-0.000734233
0.00156643
0.000551231
0.00022347
0.00134296
-0.000975351
0.00119882
-0.00103222
5.68708e-05
-0.00103222
-0.0028879
0.00482537
-0.00170387
-0.00228401
0.000869691
-0.00396918
0.000912352
-0.000128275
7.50408e-05
0.0013208
-0.000748211
0.00173405
-0.00157953
0.00181047
-0.0020503
0.000551845
-0.000984614
-0.00219887
0.00133962
-0.00401294
0.00224733
-0.00196508
0.00166767
0.000783493
0.000762914
0.00204562
-0.00040571
0.00241781
-0.00135225
0.00148915
-0.000866285
-0.000976612
0.000799431
-0.00277529
0.00133836
-0.00109997
0.000362455
0.00156875
-0.000813696
0.00249876
-0.00175513
0.00207293
-0.00219673
0.000449704
-0.000847308
-0.00271311
0.00157126
-0.0041743
0.00235278
-0.00174586
0.00172245
0.000825258
0.000799203
0.00205736
-0.00038039
0.00248063
-0.00142765
0.00167912
-0.00116212
-0.00062166
0.000550731
-0.00284762
0.00136079
-0.00155689
0.000437758
0.00143781
-0.000771732
0.00259007
-0.00175732
0.00213464
-0.00212039
0.000234069
-0.000458349
-0.0031696
0.001882
-0.0040339
0.00223376
-0.00108599
0.0013629
0.00142209
0.000366093
0.00233977
-0.000942522
0.00250744
-0.0014851
0.000599451
-0.00251732
-0.00277419
0.00759956
-0.0023965
-0.0026617
0.000313608
-0.00667929
0.00121553
-0.0010302
0.000737679
0.00179865
-0.000111789
0.00258352
-0.0012482
0.00294688
-0.00209613
0.00139978
-0.00102249
-0.0032725
0.00151063
-0.00654607
0.00239153
-0.00284598
0.0014231
0.00175192
0.000157188
0.00331153
-0.00105515
0.00363015
-0.00181348
0.00224748
-0.000983215
-0.00180688
0.00104499
-0.0048035
0.00183622
-0.00189119
0.000989273
0.0024157
-0.000254907
0.00374294
-0.00154624
0.00336427
-0.00236161
0.00126508
-0.00104441
-0.00403031
0.00164281
-0.00686152
0.00252267
-0.00262571
0.00153229
0.00181563
0.00019656
0.00339309
-0.00106444
0.00374163
-0.00192786
0.00254254
-0.00127228
-0.00127724
0.000830966
-0.00495087
0.00186405
-0.00258997
0.00104979
0.00225207
-0.000250369
0.00389023
-0.00160252
0.00348679
-0.00229961
0.000931164
-0.000605674
-0.00486354
0.00201844
-0.00665801
0.00240981
-0.00147736
0.00115406
0.00267784
-0.000237133
0.00373096
-0.00159197
0.00386228
-0.00188068
0.00088816
-0.004398
-0.00204129
0.00964085
-0.00259653
-0.00210646
-0.00066905
-0.00860677
0.000653425
-0.00235267
0.000748836
0.00170324
0.000328269
0.00300408
-0.000479158
0.00375431
-0.00127745
0.00219808
-0.000651169
-0.00389879
0.00106011
-0.00825734
0.00151226
-0.00329814
0.00057137
0.00269282
-0.000451616
0.00433452
-0.00116745
0.00434598
-0.00146251
0.00254255
-0.000698569
-0.00257082
0.000834528
-0.00633659
0.00150022
-0.00255688
0.00111732
0.0027986
0.000377729
0.00448253
-0.000638532
0.00438053
-0.00147245
0.00209899
-0.000758597
-0.00474417
0.0011034
-0.00872351
0.00166368
-0.00318599
0.000713218
0.00276609
-0.000418629
0.00452494
-0.00121115
0.00453414
-0.00158656
0.00291796
-0.000895118
-0.00196868
0.000705792
-0.00655178
0.00149135
-0.00337553
0.00111553
0.00262789
0.000352607
0.00465315
-0.000689564
0.00452896
-0.00142577
0.00166737
-0.000435365
-0.00585395
0.00137583
-0.0084692
0.00156876
-0.00167029
0.000457818
0.00378878
-0.000648741
0.00483752
-0.00144046
0.004654
-0.00142027
0.000867964
-0.00581827
-0.00133131
0.0109722
-0.00267496
-0.000762813
-0.00180337
-0.00947835
-0.000256993
-0.00389906
0.000322757
0.00112349
0.000322223
0.00300462
-3.83632e-05
0.00411489
-0.00053347
0.00269318
-0.00028564
-0.00414662
0.000551794
-0.00909478
0.000629798
-0.00337614
-0.000115237
0.00343785
-0.000807308
0.00502659
-0.00113414
0.00467281
-0.00107152
0.00247993
-0.000390247
-0.0032521
0.000607711
-0.00733455
0.00114786
-0.00309703
0.00112019
0.00282627
0.000771626
0.0048311
0.000109666
0.00504249
-0.000583679
0.00279234
-0.000436141
-0.00489171
0.000500532
-0.00966019
0.000778782
-0.00346424
2.94057e-05
0.00351547
-0.000760871
0.00531522
-0.00117815
0.00495142
-0.00119123
0.00293104
-0.000484905
-0.00267501
0.000563412
-0.0076001
0.00109969
-0.00391181
0.00104367
0.00268391
0.000719059
0.00497777
8.05969e-05
0.00516742
-0.000554081
0.00230205
-0.000251779
-0.00615625
0.000671317
-0.0093923
0.00070277
-0.00170174
-9.66427e-05
0.00458819
-0.00083847
0.00557935
-0.00117189
0.00498742
-0.000927181
0.000623259
-0.00674545
-0.000585056
0.0115572
-0.00239774
0.00104987
-0.0027632
-0.00911289
-0.00142632
-0.00523593
-0.000495686
0.000192851
-0.000170196
0.00267913
3.69942e-05
0.0039077
4.52976e-05
0.00268488
1.77019e-05
-0.00411902
7.29074e-06
-0.00908436
-0.000213027
-0.00315583
-0.000566816
0.00379163
-0.000811207
0.00527098
-0.000785406
0.00464701
-0.000538293
0.00223282
-5.06205e-05
-0.00373977
0.000367459
-0.00775263
0.000681551
-0.00341113
0.000822818
0.002685
0.000809385
0.00484453
0.000609589
0.00524228
0.000232785
0.00316914
-0.000107068
-0.00455186
-0.000103096
-0.00966416
-8.98882e-05
-0.00347744
-0.000429065
0.00385465
-0.00075386
0.00564001
-0.000823174
0.00502074
-0.000623124
0.00273099
-4.52873e-05
-0.00325284
0.000390537
-0.00803592
0.000606882
-0.00412816
0.000709132
0.00258166
0.000735194
0.0049517
0.000596429
0.00530619
0.000237594
0.00266089
-6.88634e-05
-0.00584979
-4.31988e-05
-0.00941796
-0.000128291
-0.00161665
-0.000454317
0.00491422
-0.000698389
0.00582342
-0.000629121
0.00491815
-0.000390938
0.000385076
-0.00713639
0.00014091
0.0114163
-0.00171934
0.00291013
-0.00322461
-0.00760763
-0.00254087
-0.00591967
-0.00151323
-0.000834791
-0.000860568
0.00202646
-0.00013414
0.00318128
0.000375371
0.00217537
0.000202501
-0.00394615
-0.000547665
-0.0083342
-0.000921462
-0.00278203
-0.000816398
0.00368657
-0.000543724
0.00499831
-0.000240363
0.00434364
9.09635e-05
0.00190149
0.000304552
-0.00395335
9.85005e-05
-0.00754658
7.56744e-05
-0.0033883
0.000309564
0.00245111
0.000590262
0.00456383
0.000871735
0.00496081
0.000871946
0.00316893
0.000231532
-0.00391144
-0.000631599
-0.00880103
-0.000834024
-0.00327502
-0.000716821
0.00373744
-0.000489482
0.00541267
-0.000249533
0.00478079
6.06708e-05
0.00242079
0.000386578
-0.00357875
0.000170463
-0.00781981
-9.29885e-06
-0.00394839
0.000188109
0.00238425
0.000521107
0.0046187
0.000876499
0.0049508
0.000864834
0.00267255
0.000134452
-0.00511941
-0.000682202
-0.00860131
-0.000816831
-0.00148202
-0.000637721
0.00473511
-0.000344454
0.00553015
4.11725e-05
0.00453252
0.000192283
0.000233966
-0.00694411
0.000821274
0.010595
-0.000684745
0.00441614
-0.0029596
-0.00533277
-0.00317622
-0.00570306
-0.00229042
-0.00172058
-0.00135918
0.00109522
-0.000297454
0.00211955
0.000539792
0.00133812
0.000213796
-0.00362016
-0.00109932
-0.00702108
-0.00153227
-0.00234909
-0.000972537
0.00312684
-0.000228097
0.00425388
0.000332553
0.00378299
0.000773083
0.00146096
0.000600629
-0.0037809
-0.000213141
-0.00673281
-0.000555312
-0.00304613
-0.000219589
0.00211539
0.000304538
0.00403971
0.00100279
0.00426255
0.0013738
0.00279792
0.000557099
-0.00309474
-0.000990726
-0.0072532
-0.00143886
-0.00282688
-0.000901031
0.00319961
-0.000176866
0.00468851
0.000345532
0.00425839
0.000810857
0.00195546
0.000732769
-0.00350066
-0.000126175
-0.00696087
-0.000632134
-0.00344243
-0.000317484
0.0020696
0.000262131
0.00403909
0.00102253
0.0041904
0.00135741
0.00233766
0.000344674
-0.00410667
-0.00113975
-0.00711688
-0.00134722
-0.00127456
-0.000710646
0.00409853
2.5506e-05
0.004794
0.000599072
0.00395896
0.00073215
0.000100888
-0.00621196
0.00140734
0.00918769
0.000584623
0.00523885
-0.00191802
-0.00283013
-0.00296644
-0.00465464
-0.00245197
-0.00223505
-0.00145644
9.96982e-05
-0.000356047
0.00101916
0.000563779
0.000418295
8.68634e-05
-0.00314324
-0.0015254
-0.00540881
-0.00196741
-0.00190708
-0.001064
0.00222343
-2.29946e-05
0.00321287
0.00081183
0.00294817
0.00130713
0.000965654
0.000763447
-0.00323721
-0.00053972
-0.00542965
-0.00113932
-0.00244653
-0.000701876
0.00167794
7.99844e-05
0.00325785
0.00101476
0.00332778
0.00168361
0.00212906
0.00080689
-0.00221801
-0.00114169
-0.00530463
-0.00180523
-0.00216334
-0.000968393
0.00236277
4.90797e-05
0.00367104
0.000881096
0.00342638
0.00142042
0.00141614
0.000930315
-0.00301056
-0.000438122
-0.00559243
-0.00117294
-0.00270761
-0.000732018
0.00162867
8.7573e-05
0.00321949
0.0010538
0.00322417
0.00165845
0.00173301
0.000520618
-0.00296884
-0.00136146
-0.0052348
-0.00166225
-0.000973769
-0.00074218
0.00317846
0.000272685
0.00377914
0.00102959
0.00320205
0.00118048
-4.99981e-05
-0.00503148
0.00180208
0.00738561
0.00182011
0.00522082
-0.000348532
-0.000661489
-0.00189726
-0.00310591
-0.00193169
-0.00220062
-0.00119468
-0.000637311
-0.000266937
9.14149e-05
0.000503918
-0.000352562
-7.54722e-05
-0.00256386
-0.001689
-0.00379528
-0.00208976
-0.00150631
-0.00109754
0.0012312
4.00165e-05
0.00207531
0.00102773
0.00196045
0.00151041
0.00048298
0.000736803
-0.0024636
-0.000796564
-0.00389628
-0.00149027
-0.00175282
-0.000975743
0.00116341
-4.18636e-05
0.00232397
0.000959828
0.00232608
0.00169518
0.00139372
0.000872674
-0.00139551
-0.00108338
-0.00334857
-0.00182593
-0.00142079
-0.000970145
0.00150699
0.000156991
0.0025439
0.00116531
0.00241805
0.0017025
0.000878947
0.000951418
-0.00225947
-0.000658423
-0.00398259
-0.00145589
-0.00191015
-0.000937304
0.00111009
2.18526e-05
0.00226033
0.00101565
0.00223037
0.00166452
0.00108414
0.000582319
-0.00188664
-0.001335
-0.00331748
-0.00168368
-0.000625092
-0.000665846
0.00216063
0.000411734
0.00270156
0.00131333
0.00230045
0.00142638
-0.00016304
-0.0036051
0.00183893
0.00554668
0.00255251
0.00450724
0.00115823
0.000732792
-0.000381764
-0.00156592
-0.000931923
-0.00165046
-0.000652943
-0.000916293
-2.95824e-05
-0.000531947
0.000454269
-0.000836411
-0.000158572
-0.00195101
-0.0015161
-0.00243775
-0.0018521
-0.00117031
-0.00101697
0.000396075
2.60716e-05
0.00103227
0.000961393
0.00102513
0.00135316
9.12063e-05
0.000548301
-0.00165874
-0.000907287
-0.00244069
-0.00153095
-0.00112916
-0.00102085
0.000653313
-0.000114264
0.00141738
0.0007883
0.00142352
0.00139689
0.000785134
0.000731864
-0.000730485
-0.000869294
-0.00174741
-0.00152397
-0.000766113
-0.000836594
0.000819617
0.000193469
0.00151384
0.00116018
0.00145134
0.00160351
0.000435613
0.000809366
-0.00146532
-0.000723733
-0.00244949
-0.00143166
-0.00120222
-0.000939181
0.000617608
-4.58872e-05
0.00136704
0.000850974
0.00133351
0.00136828
0.000566839
0.000495687
-0.00101405
-0.00109219
-0.0017296
-0.00141773
-0.000299551
-0.000539937
0.00128283
0.000468644
0.00169298
0.00136468
0.00140441
0.00139601
-0.000194366
-0.00220909
0.00159849
0.00394819
0.00263917
0.00346656
0.00203737
0.00133459
0.000919
-0.000447556
0.00018972
-0.000921177
8.33532e-05
-0.000809925
0.000312308
-0.000760904
0.000452354
-0.000976457
-0.000114907
-0.00138375
-0.00107786
-0.0014748
-0.00134641
-0.000901756
-0.000794177
-0.00015616
-8.10988e-06
0.000246202
0.00071881
0.000298211
0.000966889
-0.000156875
0.000300488
-0.00099234
-0.000820713
-0.00131949
-0.00129155
-0.000658318
-0.000897581
0.000259336
-0.000188511
0.000708311
0.000506041
0.000728969
0.000908666
0.000382508
0.000458172
-0.00027999
-0.000592571
-0.000696669
-0.00104292
-0.000315762
-0.000587008
0.000363703
0.000194335
0.000732499
0.000939955
0.000705719
0.0012284
0.00014717
0.000565938
-0.000802857
-0.000621638
-0.00126191
-0.00116336
-0.000660496
-0.000801407
0.000255656
-0.0001162
0.000681827
0.00056265
0.000654659
0.000885228
0.000244261
0.000298264
-0.000427089
-0.000749478
-0.000681861
-0.000982464
-6.65633e-05
-0.000358548
0.000658921
0.000439116
0.000895311
0.00114524
0.000698283
0.00110232
-0.000151441
-0.00110678
0.00108518
0.00286301
0.00210165
0.0024501
0.0021502
0.00128605
0.00150677
0.00019588
0.000937563
-0.000351972
0.000687321
-0.000559684
0.000625998
-0.000699579
0.000482612
-0.000833069
2.35845e-05
-0.000924726
-0.000558087
-0.000893132
-0.000761949
-0.000697891
-0.000492658
-0.000425453
-1.65189e-05
-0.00022994
0.000437091
-0.000155397
0.000551698
-0.00027148
0.000101956
-0.000542601
-0.000593311
-0.000624226
-0.000904504
-0.000347126
-0.000680016
3.4846e-05
-0.000226348
0.000254643
0.000219661
0.000282962
0.000438043
0.000164127
0.00019617
-3.81156e-05
-0.000334709
-0.000165786
-0.000572537
-7.79342e-05
-0.00032517
0.000116332
0.000158607
0.000248719
0.000622736
0.00024159
0.000757877
1.20303e-05
0.000307082
-0.000352059
-0.000432327
-0.000522499
-0.000791549
-0.000301275
-0.000595053
5.91605e-05
-0.000161441
0.000248214
0.00025716
0.000236056
0.00041525
8.61708e-05
9.7261e-05
-0.0001091
-0.000431014
-0.000153584
-0.000551076
5.34988e-05
-0.000185286
0.000293132
0.000334318
0.000375709
0.000764648
0.00026795
0.000689943
-7.67365e-05
-0.000416831
0.000771709
0.0020913
0.00144078
0.00178102
0.00165775
0.00106908
0.00142139
0.000432236
0.00110445
-3.50282e-05
0.000872489
-0.00032773
0.000687726
-0.000514817
0.000458265
-0.000603602
0.00015201
-0.000618471
-0.000142219
-0.000598908
-0.000273096
-0.000567014
-0.000187632
-0.000510914
1.52394e-05
-0.000432812
0.000207784
-0.000347943
0.000239021
-0.000302716
-1.73552e-06
-0.000301846
-0.000355216
-0.00027075
-0.000529679
-0.000172664
-0.000438177
-5.66547e-05
-0.00020468
2.11475e-05
2.43889e-05
5.38939e-05
0.000128776
5.97429e-05
4.43038e-05
4.63582e-05
-0.000143216
2.17332e-05
-0.000231211
1.00574e-05
-0.000125419
1.05373e-05
0.000107964
1.53356e-05
0.000328271
2.12843e-05
0.000363268
-2.2965e-05
0.00011665
-0.000105439
-0.000257198
-0.000148649
-0.000457797
-0.000100677
-0.00038354
-1.50968e-05
-0.000166878
3.15528e-05
3.62957e-05
3.2882e-05
9.90045e-05
2.34623e-05
-2.33048e-05
1.3209e-05
-0.000211257
3.43678e-05
-0.000240774
8.30163e-05
-6.10771e-05
0.000113436
0.000205522
0.000109111
0.000402311
7.11631e-05
0.000336856
-1.12842e-05
-7.99749e-05
0.000578163
0.00151314
0.000996215
0.00136298
0.00116199
0.000903307
0.00111305
0.000481178
0.000943237
0.000134788
0.000760012
-0.000144502
0.000571196
-0.000326003
0.000383975
-0.000416381
0.000213957
-0.000448451
8.35706e-05
-0.000468525
1.04375e-05
-0.000493883
1.62259e-06
-0.000502095
3.62202e-05
-0.000467406
7.27872e-05
-0.000384512
5.25682e-05
-0.0002825
-5.28449e-05
-0.000196432
-0.000187176
-0.000136418
-0.000258837
-0.000101002
-0.000234744
-8.07473e-05
-0.000148149
-6.54444e-05
-5.8007e-05
-3.6248e-05
-5.92499e-06
7.66068e-06
-4.90213e-06
4.53351e-05
-3.20389e-05
4.88684e-05
-4.03905e-05
1.84064e-05
-3.33533e-06
-2.65191e-05
6.33407e-05
-5.13394e-05
0.000128364
-4.37377e-05
0.000120603
-1.52046e-05
1.74233e-05
-2.25863e-06
-0.000125317
-5.90715e-06
-0.000211883
-1.4111e-05
-0.000201359
-2.56202e-05
-0.00013115
-3.8656e-05
-6.75441e-05
-3.07245e-05
-4.07652e-05
-3.31701e-06
-6.26549e-05
3.50983e-05
-8.70872e-05
5.87986e-05
-6.34331e-05
5.9364e-05
8.6666e-06
4.13383e-05
0.000101145
1.66348e-05
0.000157074
1.52354e-05
0.000118795
2.69951e-05
3.88177e-05
0.000443325
0.00106981
0.000763218
0.00104309
0.000895575
0.000770955
0.000889517
0.000487234
0.000799227
0.00022508
0.000641484
1.32446e-05
0.00048188
-0.0001664
0.000340786
-0.000275292
0.000235789
-0.000343454
0.000161162
-0.000393896
0.000100957
-0.000433677
5.01669e-05
-0.000451305
7.95094e-06
-0.00042519
-2.34389e-05
-0.000353122
-5.00556e-05
-0.000255882
-7.90269e-05
-0.000167458
-0.000104828
-0.000110615
-0.000116664
-8.91666e-05
-0.000109528
-8.78836e-05
-9.11093e-05
-8.3862e-05
-6.76443e-05
-5.97132e-05
-3.97418e-05
-2.02443e-05
-7.33565e-06
1.29276e-05
1.99749e-05
2.15582e-05
3.67427e-05
1.6382e-06
4.08334e-05
-3.06115e-05
3.6976e-05
-4.74824e-05
2.83244e-05
-3.50852e-05
1.64294e-05
-3.30972e-06
-9.73463e-06
2.3905e-05
-4.6295e-05
3.06551e-05
-7.24207e-05
1.20165e-05
-8.05262e-05
-1.75146e-05
-8.01015e-05
-3.90812e-05
-7.34557e-05
-3.73724e-05
-6.43306e-05
-1.24427e-05
-4.82005e-05
1.89702e-05
-2.63964e-05
3.69943e-05
-3.89121e-07
3.33574e-05
2.47791e-05
1.6173e-05
3.67642e-05
4.65116e-06
3.65116e-05
1.5487e-05
2.0765e-05
4.27424e-05
5.95824e-05
0.000328808
0.000741001
0.000602837
0.000769062
0.000747848
0.000625948
0.000782708
0.000452376
0.000735402
0.000272383
0.000642786
0.00010586
0.000509028
-3.26413e-05
0.000386868
-0.000153134
0.000284251
-0.000240837
0.000197873
-0.000307517
0.000117515
-0.000353317
3.71761e-05
-0.000370968
-3.40423e-05
-0.000353971
-8.37146e-05
-0.000303445
-0.000104853
-0.000234738
-0.000102668
-0.000169642
-8.84888e-05
-0.000124795
-7.40188e-05
-0.000103637
-6.60401e-05
-9.58626e-05
-6.31237e-05
-8.67798e-05
-5.56099e-05
-6.72282e-05
-3.59236e-05
-3.99308e-05
-6.65254e-06
-1.63437e-05
2.30687e-05
-8.1636e-06
3.95744e-05
-1.48681e-05
3.74184e-05
-2.84569e-05
2.22133e-05
-3.22785e-05
7.11391e-06
-1.99853e-05
8.24387e-07
2.98115e-06
1.69326e-06
2.30368e-05
4.93468e-06
2.74148e-05
2.85078e-06
1.41009e-05
-7.31414e-06
-7.35066e-06
-2.32608e-05
-2.31351e-05
-3.66028e-05
-2.4031e-05
-3.7598e-05
-1.14481e-05
-2.363e-05
5.00447e-06
-2.85535e-06
1.62219e-05
1.30648e-05
1.74369e-05
1.60344e-05
1.32026e-05
6.80492e-06
1.38827e-05
-3.6169e-06
2.59082e-05
-5.99145e-06
4.51152e-05
5.35915e-05
0.000235395
0.00050561
0.000459328
0.00054513
0.000612003
0.000473271
0.000688032
0.000376347
0.000695376
0.000265039
0.000650377
0.000150858
0.000574547
4.31891e-05
0.000473995
-5.25814e-05
0.000369768
-0.000136611
0.000265484
-0.000203235
0.000162291
-0.000250124
6.45299e-05
-0.000273205
-1.87279e-05
-0.000270709
-7.60967e-05
-0.000246069
-0.00010278
-0.000208051
-0.000103484
-0.000168941
-9.01965e-05
-0.000138086
-7.5821e-05
-0.000118011
-6.72346e-05
-0.000104448
-6.30439e-05
-9.09729e-05
-5.64241e-05
-7.38492e-05
-4.17032e-05
-5.46493e-05
-1.96064e-05
-3.84398e-05
1.739e-06
-2.9512e-05
1.42071e-05
-2.73378e-05
1.32077e-05
-2.74568e-05
4.26659e-06
-2.3337e-05
-2.97322e-06
-1.27448e-05
-6.621e-07
6.71423e-07
1.04098e-05
1.1965e-05
2.33255e-05
1.44988e-05
2.95686e-05
7.85801e-06
2.39906e-05
-1.77291e-06
1.07029e-05
-9.84735e-06
-2.34979e-06
-1.09777e-05
-7.84526e-06
-5.95311e-06
-4.96409e-06
2.12158e-06
2.27381e-06
8.98487e-06
6.5075e-06
1.3206e-05
3.30617e-06
1.64025e-05
-4.77415e-06
2.1963e-05
-1.06161e-05
3.17516e-05
-8.5556e-06
4.30534e-05
4.50349e-05
0.000165276
0.000340335
0.000335665
0.00037474
0.000470806
0.000338128
0.000561534
0.000285619
0.000605325
0.000221249
0.000606052
0.000150131
0.0005719
7.73392e-05
0.000511772
7.54494e-06
0.000431146
-5.59839e-05
0.000338412
-0.000110502
0.000240343
-0.000152054
0.00014515
-0.000178008
6.20514e-05
-0.000187605
-1.08493e-06
-0.000182932
-4.03817e-05
-0.000168756
-5.8756e-05
-0.000150569
-6.38205e-05
-0.000133022
-6.37071e-05
-0.000118124
-6.31492e-05
-0.000105007
-6.23059e-05
-9.18173e-05
-5.85291e-05
-7.76248e-05
-4.98769e-05
-6.33002e-05
-3.75443e-05
-5.07742e-05
-2.56416e-05
-4.14177e-05
-1.82203e-05
-3.47588e-05
-1.6412e-05
-2.92635e-05
-1.72e-05
-2.25493e-05
-1.58351e-05
-1.41096e-05
-9.76757e-06
-5.39513e-06
1.26669e-06
9.30322e-07
1.26484e-05
3.11651e-06
1.8359e-05
2.1485e-06
1.72164e-05
-6.2936e-07
1.02239e-05
-2.85595e-06
2.00027e-06
-2.75617e-06
-4.00682e-06
5.41209e-08
-6.41302e-06
4.52548e-06
-6.76019e-06
9.32894e-06
-7.60029e-06
1.40503e-05
-1.02534e-05
1.90596e-05
-1.32716e-05
2.49809e-05
-1.32957e-05
3.17755e-05
-8.39668e-06
3.8154e-05
3.66374e-05
0.000114706
0.000225628
0.000238011
0.000251433
0.000344005
0.000232134
0.000426097
0.000203526
0.000480243
0.000167102
0.00050525
0.000125123
0.000502623
7.99636e-05
0.000476018
3.41488e-05
0.000427627
-7.59109e-06
0.000365461
-4.8332e-05
0.000293863
-8.04537e-05
0.000219913
-0.000104057
0.000150761
-0.000118451
9.21588e-05
-0.000124332
4.70029e-05
-0.000123602
1.49564e-05
-0.000118521
-6.83251e-06
-0.00011123
-2.20774e-05
-0.00010288
-3.32674e-05
-9.38194e-05
-4.1091e-05
-8.39921e-05
-4.51791e-05
-7.35335e-05
-4.54654e-05
-6.30151e-05
-4.3e-05
-5.32429e-05
-3.96821e-05
-4.47353e-05
-3.70242e-05
-3.74141e-05
-3.55949e-05
-3.06927e-05
-3.40567e-05
-2.40886e-05
-3.07054e-05
-1.74603e-05
-2.47746e-05
-1.13249e-05
-1.73391e-05
-6.50467e-06
-1.07794e-05
-3.44278e-06
-6.76643e-06
-1.86434e-06
-6.18295e-06
-1.21181e-06
-8.73615e-06
-3.03169e-07
-1.28398e-05
1.34211e-06
-1.6679e-05
3.89197e-06
-1.92695e-05
7.11837e-06
-2.06896e-05
1.07471e-05
-2.13123e-05
1.46729e-05
-2.11192e-05
1.88704e-05
-1.93986e-05
2.32622e-05
-1.51569e-05
2.75327e-05
-8.0309e-06
3.10265e-05
2.86061e-05
7.94002e-05
0.000146228
0.000166659
0.000164172
0.000245061
0.000153731
0.000310559
0.000138026
0.000360022
0.000117636
0.000391567
9.35735e-05
0.000404505
6.70237e-05
0.000399349
3.93048e-05
0.000379845
1.19137e-05
0.000345202
-1.36876e-05
0.000301272
-3.65246e-05
0.000252228
-5.50149e-05
0.000202526
-6.87508e-05
0.000155946
-7.7752e-05
0.000114879
-8.25353e-05
8.02495e-05
-8.38905e-05
5.16573e-05
-8.26376e-05
2.82037e-05
-7.94278e-05
9.08926e-06
-7.47063e-05
-6.08774e-06
-6.88133e-05
-1.75097e-05
-6.2111e-05
-2.55271e-05
-5.50014e-05
-3.08e-05
-4.79721e-05
-3.42387e-05
-4.12939e-05
-3.65866e-05
-3.50656e-05
-3.80511e-05
-2.92314e-05
-3.84287e-05
-2.37113e-05
-3.73673e-05
-1.85197e-05
-3.48835e-05
-1.3809e-05
-3.16114e-05
-9.77611e-06
-2.85464e-05
-6.50559e-06
-2.65142e-05
-3.89872e-06
-2.60193e-05
-1.70872e-06
-2.67504e-05
4.29967e-07
-2.80807e-05
2.66951e-06
-2.93049e-05
5.1122e-06
-2.992e-05
7.73598e-06
-2.96575e-05
1.04867e-05
-2.83066e-05
1.33203e-05
-2.56182e-05
1.61808e-05
-2.13077e-05
1.89519e-05
-1.52098e-05
2.14348e-05
-7.52005e-06
2.33365e-05
2.10866e-05
5.56099e-05
9.06177e-05
0.00011758
0.000102199
0.000174789
9.65216e-05
0.000224842
8.79711e-05
0.000265677
7.67979e-05
0.000295792
6.34559e-05
0.000314316
4.85011e-05
0.000321047
3.25768e-05
0.000316589
1.63733e-05
0.000301524
1.37835e-06
0.000278711
-1.37109e-05
0.000250018
-2.63224e-05
0.000217977
-3.67103e-05
0.000184912
-4.46861e-05
0.000152648
-5.02682e-05
0.000122389
-5.3631e-05
9.47827e-05
-5.50314e-05
7.0105e-05
-5.475e-05
4.84635e-05
-5.30638e-05
2.99001e-05
-5.02486e-05
1.43771e-05
-4.65891e-05
1.77862e-06
-4.24051e-05
-8.28352e-06
-3.79086e-05
-1.62329e-05
-3.33415e-05
-2.24466e-05
-2.88534e-05
-2.71723e-05
-2.45085e-05
-3.05218e-05
-2.0359e-05
-3.259e-05
-1.64484e-05
-3.35664e-05
-1.28344e-05
-3.37797e-05
-9.56231e-06
-3.36361e-05
-6.64464e-06
-3.34919e-05
-4.04402e-06
-3.35194e-05
-1.68517e-06
-3.36187e-05
5.31309e-07
-3.36001e-05
2.65258e-06
-3.32197e-05
4.72915e-06
-3.22475e-05
6.7633e-06
-3.05014e-05
8.74288e-06
-2.7828e-05
1.06476e-05
-2.40917e-05
1.24434e-05
-1.92126e-05
1.4072e-05
-1.32279e-05
1.545e-05
-6.35179e-06
1.64608e-05
1.47355e-05
3.59282e-05
5.46868e-05
7.63506e-05
6.17721e-05
0.000114285
5.85852e-05
0.000148441
5.38119e-05
0.000177653
4.75807e-05
0.000200991
4.01139e-05
0.000217807
3.16864e-05
0.000227759
2.26249e-05
0.000230853
1.32776e-05
0.000228279
3.95022e-06
0.00021935
-4.78281e-06
0.000205799
-1.27723e-05
0.00018879
-1.97027e-05
0.000169507
-2.5403e-05
0.00014903
-2.9792e-05
0.000128268
-3.28693e-05
0.000107932
-3.46967e-05
8.85613e-05
-3.53793e-05
7.05503e-05
-3.50526e-05
5.41734e-05
-3.38727e-05
3.95916e-05
-3.20098e-05
2.68295e-05
-2.96443e-05
1.58537e-05
-2.69313e-05
6.53523e-06
-2.4022e-05
-1.29938e-06
-2.10217e-05
-7.77978e-06
-1.80302e-05
-1.30293e-05
-1.51065e-05
-1.71673e-05
-1.23079e-05
-2.03462e-05
-9.65778e-06
-2.27203e-05
-7.18869e-06
-2.445e-05
-4.91092e-06
-2.56883e-05
-2.80496e-06
-2.64901e-05
-8.86426e-07
-2.6848e-05
8.89391e-07
-2.67397e-05
2.54638e-06
-2.61146e-05
4.10368e-06
-2.49154e-05
5.56267e-06
-2.30927e-05
6.92035e-06
-2.0612e-05
8.16782e-06
-1.74575e-05
9.28926e-06
-1.36458e-05
1.02603e-05
-9.24441e-06
1.10486e-05
-4.39231e-06
1.16087e-05
1.03425e-05
2.24209e-05
3.22639e-05
4.78073e-05
3.63853e-05
7.18802e-05
3.45136e-05
9.39573e-05
3.17344e-05
0.000113418
2.81185e-05
0.00012975
2.3783e-05
0.000142563
1.88758e-05
0.000151612
1.35778e-05
0.000156811
8.07822e-06
0.000158269
2.49194e-06
0.000156221
-2.73297e-06
0.000151081
-7.63135e-06
0.000143359
-1.1979e-05
0.000133611
-1.56544e-05
0.000122401
-1.85821e-05
0.000110261
-2.07302e-05
9.76709e-05
-2.21058e-05
8.50416e-05
-2.27485e-05
7.27141e-05
-2.27238e-05
6.09578e-05
-2.21166e-05
4.99718e-05
-2.10249e-05
3.98805e-05
-1.95528e-05
3.0753e-05
-1.78016e-05
2.25983e-05
-1.58662e-05
1.54085e-05
-1.38337e-05
9.14242e-06
-1.17651e-05
3.7563e-06
-9.71769e-06
-8.21525e-07
-7.7278e-06
-4.64264e-06
-5.83786e-06
-7.7707e-06
-4.06102e-06
-1.0272e-05
-2.40669e-06
-1.22218e-05
-8.53382e-07
-1.3627e-05
5.17566e-07
-1.45353e-05
1.79725e-06
-1.49618e-05
2.97409e-06
-1.49109e-05
4.0532e-06
-1.43881e-05
5.0391e-06
-1.34014e-05
5.9331e-06
-1.19666e-05
6.73305e-06
-1.01102e-05
7.43318e-06
-7.87406e-06
8.02407e-06
-5.31892e-06
8.49298e-06
-2.53112e-06
8.81987e-06
7.80968e-06
1.52955e-05
1.69658e-05
3.26782e-05
1.90011e-05
4.92779e-05
1.79122e-05
6.46888e-05
1.63208e-05
7.85397e-05
1.42656e-05
9.05132e-05
1.18099e-05
0.000100353
9.0359e-06
0.000107905
6.02532e-06
0.000113071
2.91051e-06
0.000115766
-2.04068e-07
0.00011627
-3.23663e-06
0.000114678
-6.03902e-06
0.000111218
-8.51873e-06
0.000106169
-1.06068e-05
9.98395e-05
-1.22536e-05
9.25413e-05
-1.34333e-05
8.45785e-05
-1.41429e-05
7.62316e-05
-1.44002e-05
6.7748e-05
-1.4239e-05
5.934e-05
-1.37089e-05
5.11824e-05
-1.28683e-05
4.34112e-05
-1.17814e-05
3.61237e-05
-1.05126e-05
2.93819e-05
-9.12407e-06
2.32205e-05
-7.67406e-06
1.76642e-05
-6.21016e-06
1.27228e-05
-4.77499e-06
8.38892e-06
-3.39262e-06
4.62457e-06
-2.07451e-06
1.41034e-06
-8.47677e-07
-1.22965e-06
2.34671e-07
-3.36996e-06
1.28835e-06
-5.08517e-06
2.23246e-06
-6.35439e-06
3.06593e-06
-7.19258e-06
3.81269e-06
-7.61911e-06
4.48021e-06
-7.65561e-06
5.07528e-06
-7.32661e-06
5.60323e-06
-6.66142e-06
6.06688e-06
-5.69564e-06
6.46629e-06
-4.47204e-06
6.79904e-06
-3.04124e-06
7.06035e-06
-1.46555e-06
7.24205e-06
6.34275e-06
1.06531e-05
6.31269e-06
2.2736e-05
6.91991e-06
3.4325e-05
6.32315e-06
4.51661e-05
5.47916e-06
5.50224e-05
4.40994e-06
6.36759e-05
3.15787e-06
7.0892e-05
1.82031e-06
7.66991e-05
2.1819e-07
8.08043e-05
-1.19445e-06
8.34385e-05
-2.83818e-06
8.45505e-05
-4.34854e-06
8.41863e-05
-5.67424e-06
8.24617e-05
-6.79328e-06
7.95303e-05
-7.67498e-06
7.55734e-05
-8.29689e-06
7.07874e-05
-8.64751e-06
6.53723e-05
-8.72695e-06
5.95237e-05
-8.5495e-06
5.34174e-05
-8.13077e-06
4.72179e-05
-7.50888e-06
4.10657e-05
-6.71659e-06
3.50802e-05
-5.79582e-06
2.93572e-05
-4.78859e-06
2.39655e-05
-3.73215e-06
1.89559e-05
-2.66599e-06
1.43732e-05
-1.62877e-06
1.02857e-05
-6.86949e-07
6.70798e-06
1.86053e-07
3.56644e-06
1.06644e-06
8.56403e-07
1.86144e-06
-1.44815e-06
2.53967e-06
-3.31408e-06
3.15523e-06
-4.74897e-06
3.66745e-06
-5.78342e-06
4.10007e-06
-6.4348e-06
4.46423e-06
-6.72438e-06
4.77017e-06
-6.67714e-06
5.02802e-06
-6.32185e-06
5.24727e-06
-5.69111e-06
5.4349e-06
-4.82157e-06
5.59507e-06
-3.7538e-06
5.72922e-06
-2.53189e-06
5.83614e-06
-1.20557e-06
5.91344e-06
5.13656e-06
6.89182e-06
-5.79724e-07
1.46034e-05
-7.90475e-07
2.20285e-05
-1.10302e-06
2.89777e-05
-1.47055e-06
3.52816e-05
-1.89343e-06
4.0807e-05
-2.36722e-06
4.55017e-05
-2.87518e-06
4.91202e-05
-3.40052e-06
5.1804e-05
-3.87799e-06
5.32983e-05
-4.33297e-06
5.3656e-05
-4.70686e-06
5.296e-05
-4.97815e-06
5.12959e-05
-5.12839e-06
4.87684e-05
-5.1468e-06
4.55014e-05
-5.02986e-06
4.16312e-05
-4.77765e-06
3.73e-05
-4.39532e-06
3.26386e-05
-3.8868e-06
2.78008e-05
-3.29168e-06
2.29326e-05
-2.64057e-06
1.81389e-05
-1.92379e-06
1.3509e-05
-1.16651e-06
9.13499e-06
-4.14311e-07
5.07668e-06
3.26113e-07
1.3813e-06
1.02825e-06
-1.92629e-06
1.67777e-06
-4.86242e-06
2.24947e-06
-7.41652e-06
2.74088e-06
-9.51314e-06
3.16271e-06
-1.11608e-05
3.50808e-06
-1.2393e-05
3.77149e-06
-1.31848e-05
3.94722e-06
-1.3586e-05
4.0685e-06
-1.36173e-05
4.131e-06
-1.33007e-05
4.14746e-06
-1.26614e-05
4.13121e-06
-1.17267e-05
4.09364e-06
-1.05264e-05
4.04698e-06
-9.09255e-06
4.00053e-06
-7.45971e-06
3.96129e-06
-5.6652e-06
3.93337e-06
-3.74854e-06
3.91788e-06
-1.75058e-06
3.9139e-06
3.38577e-06
3.51115e-06
-4.09065e-06
7.50492e-06
-4.78212e-06
1.1271e-05
-4.8692e-06
1.46951e-05
-4.89402e-06
1.76749e-05
-4.87204e-06
2.01084e-05
-4.80072e-06
2.18956e-05
-4.66309e-06
2.29617e-05
-4.46605e-06
2.32887e-05
-4.20429e-06
2.28364e-05
-3.88113e-06
2.16238e-05
-3.49482e-06
1.96977e-05
-3.05187e-06
1.71431e-05
-2.57298e-06
1.40579e-05
-2.06097e-06
1.05335e-05
-1.50551e-06
6.66786e-06
-9.12752e-07
2.56249e-06
-2.90481e-07
-1.67638e-06
3.52294e-07
-5.94712e-06
9.79511e-07
-1.00188e-05
1.43077e-06
-1.38828e-05
1.93909e-06
-1.7477e-05
2.42694e-06
-2.07478e-05
2.85662e-06
-2.36327e-05
3.2114e-06
-2.60872e-05
3.48267e-06
-2.80782e-05
3.66867e-06
-2.95965e-05
3.76853e-06
-3.0637e-05
3.78238e-06
-3.11949e-05
3.72074e-06
-3.12778e-05
3.59043e-06
-3.09024e-05
3.39552e-06
-3.01017e-05
3.14639e-06
-2.88905e-05
2.85718e-06
-2.73157e-05
2.5561e-06
-2.54184e-05
2.2502e-06
-2.32375e-05
1.95067e-06