/*--------------------------------*- C++ -*----------------------------------*\
  =========                 |
  \\      /  F ield         | OpenFOAM: The Open Source CFD Toolbox
   \\    /   O peration     | Website:  https://openfoam.org
    \\  /    A nd           | Version:  7
     \\/     M anipulation  |
\*---------------------------------------------------------------------------*/
FoamFile
{
    version     2.0;
    format      ascii;
    class       volScalarField;
    location    "9.3";
    object      p;
}
// * * * * * * * * * * * * * * * * * * * * * * * * * * * * * * * * * * * * * //

dimensions      [0 2 -2 0 0 0 0];

internalField   nonuniform List<scalar> 
900
(
6.50634e-07
-0.000153346
-0.000356451
-0.000542017
-0.000676525
-0.000739525
-0.000723276
-0.000625795
-0.000446599
-0.000185171
0.00015897
0.000585176
0.00109001
0.00166543
0.00229717
0.00296363
0.00363581
0.00427831
0.00485228
0.00531942
0.00564721
0.00581435
0.00581529
0.00566287
0.00538841
0.00503793
0.00466852
0.00434579
0.00413288
0.0040866
0.000152953
-5.29628e-06
-0.000149412
-0.00027313
-0.000355433
-0.000381328
-0.000344273
-0.000241384
-7.09397e-05
0.000168295
0.000476918
0.000854109
0.00129645
0.00179658
0.00234189
0.00291346
0.00348781
0.00403496
0.00452285
0.00492023
0.00520105
0.00534889
0.00536067
0.0052485
0.00503926
0.00477202
0.0044935
0.00424144
0.00407665
0.0040374
0.00036646
0.000133305
-1.47478e-05
-0.000122843
-0.000187024
-0.000198085
-0.000152965
-5.03861e-05
0.00011103
0.000332803
0.000616171
0.000961246
0.00136584
0.00182409
0.00232526
0.00285353
0.00338636
0.0038961
0.00435243
0.00472527
0.00498914
0.00512781
0.00513796
0.00503108
0.00483276
0.00457949
0.00431361
0.00407557
0.00390436
0.00383564
0.000566469
0.000244959
7.26913e-05
-3.77812e-05
-9.76152e-05
-0.000103715
-5.73757e-05
4.02139e-05
0.000189603
0.000392574
0.000651378
0.000967715
0.00134142
0.00176897
0.00224197
0.00274621
0.00326101
0.00375908
0.0042095
0.00458054
0.00484435
0.00498212
0.00498843
0.00487353
0.00466271
0.00439255
0.00410528
0.00384286
0.00364067
0.0035158
0.000703931
0.000291528
8.87939e-05
-3.20976e-05
-9.55197e-05
-0.000103797
-6.24362e-05
2.49108e-05
0.000157979
0.000338955
0.000571422
0.000859146
0.00120457
0.00160711
0.00206111
0.00255423
0.00306767
0.00357356
0.0040391
0.00442895
0.00471045
0.00485973
0.00486708
0.00474021
0.00450408
0.00419689
0.00386384
0.00355127
0.00329512
0.00309659
0.000733968
0.00023472
-6.68358e-07
-0.000136961
-0.000210132
-0.000227189
-0.000197378
-0.000126505
-1.54246e-05
0.000138678
0.000341024
0.000597874
0.000914876
0.00129507
0.00173616
0.00222797
0.0027552
0.0032881
0.00379138
0.00422446
0.0045474
0.00472822
0.00474986
0.00461511
0.00434762
0.00398802
0.00358731
0.00320051
0.00286818
0.00257747
0.000620337
4.14369e-05
-0.00022625
-0.000380793
-0.000468524
-0.000500576
-0.000489429
-0.00044267
-0.000361501
-0.000242272
-7.78658e-05
0.000140874
0.000423388
0.000777122
0.0012038
0.00169542
0.00224931
0.00282656
0.00339097
0.00389617
0.00429245
0.00453586
0.00459748
0.00447103
0.00417616
0.00375571
0.00326893
0.00278434
0.00235278
0.00195162
0.000332097
-0.000317981
-0.000616335
-0.000790945
-0.000897611
-0.000951235
-0.000967165
-0.000954507
-0.000914683
-0.000843147
-0.000730755
-0.000565116
-0.000332394
-1.96073e-05
0.000383195
0.000880024
0.00145011
0.00208034
0.0027281
0.00333912
0.00385138
0.00420412
0.00434992
0.00426644
0.0039638
0.00348468
0.00289834
0.00229242
0.00173359
0.00118439
-0.000158028
-0.000870136
-0.00119717
-0.00139368
-0.00152421
-0.0016073
-0.001661
-0.00169592
-0.00171384
-0.00170954
-0.00167201
-0.00158553
-0.00143115
-0.00118885
-0.00084007
-0.00037223
0.000210376
0.000895896
0.00164494
0.00239907
0.00308249
0.00361213
0.00391292
0.00393526
0.00366955
0.00315198
0.00246175
0.00171217
0.000993571
0.00025129
-0.000873728
-0.00163801
-0.00199183
-0.00221268
-0.00237326
-0.00249575
-0.00260102
-0.00270146
-0.00279979
-0.00289074
-0.00296208
-0.002995
-0.002965
-0.00284332
-0.0025995
-0.00220675
-0.00165192
-0.000931166
-7.57018e-05
0.00085666
0.00177723
0.00257552
0.00313726
0.00336922
0.00322456
0.00271963
0.00193912
0.00102886
0.000113465
-0.000882374
-0.00183438
-0.0026401
-0.003019
-0.00326754
-0.00346584
-0.00363999
-0.00381404
-0.00400291
-0.00421121
-0.00443493
-0.00466182
-0.00487097
-0.0050324
-0.00510735
-0.00505012
-0.00481329
-0.00435818
-0.00365329
-0.00271144
-0.0015793
-0.00035284
0.0008278
0.00179703
0.0023963
0.00251439
0.00212307
0.00129912
0.000225236
-0.000925434
-0.00225169
-0.00305384
-0.00388933
-0.0042918
-0.00457207
-0.00481702
-0.00505703
-0.00532003
-0.00562455
-0.00597868
-0.00638155
-0.00682294
-0.00728161
-0.00772304
-0.00809791
-0.00834217
-0.00837985
-0.00813133
-0.00754453
-0.00657823
-0.00525573
-0.00366882
-0.00198292
-0.000423495
0.000761534
0.00135935
0.00125613
0.000491317
-0.000719664
-0.0021387
-0.0038886
-0.00453906
-0.00539192
-0.00581637
-0.00613262
-0.00643348
-0.00675421
-0.00712758
-0.00757722
-0.00811676
-0.00875097
-0.00947448
-0.0102684
-0.0110956
-0.0118966
-0.0125866
-0.0130575
-0.0131848
-0.0128508
-0.0119734
-0.010521
-0.00855898
-0.0062628
-0.00391618
-0.00187562
-0.000498456
-4.35564e-05
-0.00056285
-0.00183176
-0.00353467
-0.00581622
-0.0062888
-0.00714644
-0.00759091
-0.00794651
-0.00831119
-0.00872582
-0.00922921
-0.00985187
-0.0106153
-0.0115328
-0.0126073
-0.0138254
-0.0151504
-0.0165139
-0.0178097
-0.0188927
-0.0195838
-0.0196879
-0.0190789
-0.0176249
-0.0153413
-0.0123877
-0.00908676
-0.00590642
-0.00338512
-0.00199888
-0.00197643
-0.00314157
-0.00510732
-0.00803876
-0.00829287
-0.00914351
-0.00960513
-0.0100011
-0.0104336
-0.0109502
-0.0115971
-0.0124136
-0.0134313
-0.0146752
-0.0161594
-0.01788
-0.0198038
-0.021856
-0.0239097
-0.0257816
-0.0272398
-0.028027
-0.0278642
-0.0265909
-0.0241234
-0.0205629
-0.0162309
-0.01168
-0.00764024
-0.00487139
-0.0038921
-0.00467915
-0.00682415
-0.0105252
-0.0105322
-0.0113663
-0.0118408
-0.0122736
-0.0127711
-0.0133883
-0.0141806
-0.0151977
-0.016484
-0.0180779
-0.0200079
-0.0222819
-0.0248733
-0.0277037
-0.030628
-0.0334266
-0.0358114
-0.0374442
-0.0379642
-0.0371034
-0.0346689
-0.0306693
-0.0253714
-0.0193539
-0.0135042
-0.00889538
-0.00645217
-0.00645882
-0.00860717
-0.0131844
-0.0129799
-0.0137926
-0.0142733
-0.0147327
-0.0152812
-0.0159833
-0.0169054
-0.0181096
-0.0196541
-0.0215928
-0.0239696
-0.0268059
-0.0300832
-0.0337216
-0.0375611
-0.0413501
-0.0447504
-0.0473539
-0.048714
-0.0484816
-0.0463324
-0.0421579
-0.0361171
-0.028733
-0.0209646
-0.0141623
-0.00973092
-0.00844647
-0.010305
-0.0158308
-0.0156045
-0.0163981
-0.0168754
-0.0173411
-0.0179114
-0.0186633
-0.0196768
-0.0210282
-0.0227907
-0.0250336
-0.0278161
-0.031173
-0.0350936
-0.0394976
-0.0442126
-0.0489609
-0.053363
-0.0569633
-0.059269
-0.0597764
-0.0581255
-0.0540712
-0.0476238
-0.039169
-0.0296163
-0.0204806
-0.0136334
-0.0105008
-0.011654
-0.0181396
-0.018374
-0.0191618
-0.0196214
-0.0200592
-0.0206022
-0.0213446
-0.0223841
-0.0238138
-0.0257219
-0.0281925
-0.0312985
-0.0350854
-0.0395487
-0.0446071
-0.0500781
-0.0556636
-0.0609536
-0.0654554
-0.068635
-0.0699369
-0.0689157
-0.0652239
-0.0587214
-0.0496045
-0.0386153
-0.0272678
-0.0177801
-0.0122888
-0.0122271
-0.0195892
-0.0212635
-0.0220745
-0.0224943
-0.0228506
-0.0232913
-0.0239366
-0.0249083
-0.0263186
-0.0282713
-0.0308634
-0.0341781
-0.0382683
-0.043132
-0.0486854
-0.0547367
-0.060973
-0.0669625
-0.0721888
-0.0760913
-0.0781005
-0.0777048
-0.0744872
-0.0681785
-0.0587775
-0.0467834
-0.0335437
-0.0214216
-0.0131926
-0.0113721
-0.0193862
-0.0242655
-0.0251492
-0.0254935
-0.0256864
-0.0259176
-0.0263466
-0.0271285
-0.0283981
-0.0302744
-0.0328643
-0.0362571
-0.0405081
-0.0456138
-0.0514844
-0.057919
-0.0645961
-0.0710631
-0.0767941
-0.0812185
-0.0837509
-0.0838476
-0.08105
-0.0749938
-0.0655095
-0.0528395
-0.0380532
-0.0234411
-0.0122328
-0.0081394
-0.0163664
-0.0274094
-0.0284388
-0.0286446
-0.02855
-0.0284229
-0.0284833
-0.0289296
-0.0299225
-0.0315943
-0.0340576
-0.0374021
-0.0416796
-0.0468797
-0.0529023
-0.059534
-0.066465
-0.0731959
-0.0792104
-0.0839461
-0.0867631
-0.0871326
-0.0845489
-0.0785878
-0.0689486
-0.0556578
-0.0394753
-0.022457
-0.008058
-0.00120559
-0.00886904
-0.0307968
-0.0320616
-0.0320117
-0.0314393
-0.0307531
-0.0302594
-0.030209
-0.0307877
-0.032136
-0.0343654
-0.0375592
-0.0417589
-0.0469426
-0.0529978
-0.0596994
-0.0667025
-0.0735342
-0.0796502
-0.0844574
-0.0873371
-0.0877133
-0.0850319
-0.0788262
-0.0686708
-0.0544448
-0.0366294
-0.0169903
0.000989555
0.0112082
0.00541618
-0.0346793
-0.0362451
-0.0357116
-0.0343679
-0.0328572
-0.0315952
-0.0308843
-0.0309261
-0.0318582
-0.0337804
-0.0367603
-0.040821
-0.0459212
-0.0519302
-0.0586066
-0.0655886
-0.0723984
-0.0784722
-0.0831903
-0.0859086
-0.085999
-0.0828451
-0.0758862
-0.0646262
-0.0487919
-0.0286389
-0.00564729
0.0168056
0.0314568
0.0296086
-0.03963
-0.0413969
-0.0399298
-0.0373638
-0.0346878
-0.0324251
-0.0309048
-0.0303196
-0.030784
-0.0323707
-0.0351199
-0.0390272
-0.0440255
-0.04996
-0.0565687
-0.0634726
-0.0701789
-0.0761007
-0.0805836
-0.082934
-0.082449
-0.0784134
-0.0701461
-0.0570215
-0.0386229
-0.0150671
0.0126044
0.0414551
0.0625534
0.0676286
-0.0469495
-0.0482198
-0.0449177
-0.040454
-0.036193
-0.0326947
-0.0302499
-0.0289961
-0.0289928
-0.0302659
-0.0328129
-0.0365935
-0.0415074
-0.0473709
-0.0538974
-0.0606868
-0.0672254
-0.0728993
-0.0770121
-0.0788054
-0.0774783
-0.0721664
-0.0620335
-0.0462555
-0.0242004
0.00422048
0.0380765
0.076517
0.107585
0.12399
-0.0598364
-0.0579265
-0.0509624
-0.0436128
-0.0372634
-0.0323068
-0.0288734
-0.0269731
-0.0265663
-0.0276023
-0.0300206
-0.033734
-0.0386033
-0.0444125
-0.0508487
-0.0574886
-0.0637963
-0.0691281
-0.0727437
-0.0738173
-0.0714405
-0.0645577
-0.0521294
-0.0330529
-0.00635702
0.0285157
0.0713249
0.121145
0.167711
0.205477
-0.0864323
-0.0720641
-0.0583515
-0.046677
-0.0376009
-0.0310031
-0.0266163
-0.0241987
-0.023545
-0.0244932
-0.0269071
-0.0306452
-0.0355282
-0.04131
-0.0476546
-0.0541203
-0.0601517
-0.0650783
-0.0681126
-0.0683594
-0.0648168
-0.0563492
-0.0415677
-0.0190135
0.0128012
0.0552904
0.109255
0.175096
0.243435
0.325734
-0.13852
-0.0874039
-0.0650503
-0.0474773
-0.0352629
-0.027307
-0.0224585
-0.0199912
-0.0194724
-0.0206268
-0.0232534
-0.0271708
-0.0321749
-0.038005
-0.0443169
-0.0506649
-0.0564911
-0.0611186
-0.0637412
-0.0634088
-0.0589704
-0.0493417
-0.0328934
-0.00775771
0.0282415
0.0779917
0.144631
0.233357
0.34098
0.510629
-0.311425
-0.0972739
-0.0480301
-0.0289933
-0.0181244
-0.0123156
-0.00984203
-0.00945133
-0.0105622
-0.0129571
-0.0165221
-0.0211437
-0.0266708
-0.0328865
-0.0394839
-0.0460493
-0.0520514
-0.0568357
-0.0596215
-0.0595105
-0.055479
-0.046019
-0.0296846
-0.00453766
0.032031
0.0843655
0.159134
0.274119
0.449028
0.792752
)
;

boundaryField
{
    movingWall
    {
        type            zeroGradient;
    }
    fixedWalls
    {
        type            zeroGradient;
    }
    frontAndBack
    {
        type            empty;
    }
}


// ************************************************************************* //
