/*--------------------------------*- C++ -*----------------------------------*\
  =========                 |
  \\      /  F ield         | OpenFOAM: The Open Source CFD Toolbox
   \\    /   O peration     | Website:  https://openfoam.org
    \\  /    A nd           | Version:  7
     \\/     M anipulation  |
\*---------------------------------------------------------------------------*/
FoamFile
{
    version     2.0;
    format      ascii;
    class       surfaceScalarField;
    location    "9.3";
    object      phi;
}
// * * * * * * * * * * * * * * * * * * * * * * * * * * * * * * * * * * * * * //

dimensions      [0 3 -1 0 0 0 0];

internalField   nonuniform List<scalar> 
1740
(
6.87392e-07
-6.88002e-07
-3.28122e-07
1.01551e-06
-3.22908e-06
2.90096e-06
-7.65133e-06
4.42225e-06
-1.31182e-05
5.46685e-06
-1.92145e-05
6.09633e-06
-2.56246e-05
6.41011e-06
-3.21125e-05
6.48784e-06
-3.84855e-05
6.37304e-06
-4.45613e-05
6.07576e-06
-5.0143e-05
5.5817e-06
-5.50066e-05
4.86363e-06
-5.89003e-05
3.89369e-06
-6.15561e-05
2.65579e-06
-6.27135e-05
1.15739e-06
-6.21522e-05
-5.6131e-07
-5.97297e-05
-2.42244e-06
-5.54258e-05
-4.30398e-06
-4.93739e-05
-6.0519e-06
-4.18797e-05
-7.4942e-06
-3.34164e-05
-8.46324e-06
-2.4593e-05
-8.8234e-06
-1.60949e-05
-8.49809e-06
-8.60421e-06
-7.49072e-06
-2.70933e-06
-5.89488e-06
1.18946e-06
-3.89878e-06
2.95918e-06
-1.76972e-06
2.76101e-06
1.98168e-07
1.30083e-06
1.46019e-06
1.30084e-06
-1.01607e-06
3.28061e-07
-5.85558e-06
5.85502e-06
-1.46521e-05
1.16974e-05
-2.66698e-05
1.644e-05
-4.10318e-05
1.98289e-05
-5.69e-05
2.19645e-05
-7.35521e-05
2.30622e-05
-9.03784e-05
2.33141e-05
-0.000106839
2.28336e-05
-0.000122414
2.16506e-05
-0.000136563
1.97312e-05
-0.000148709
1.70095e-05
-0.000158239
1.34236e-05
-0.000164536
8.95309e-06
-0.00016703
3.65066e-06
-0.00016528
-2.31066e-06
-0.000159022
-8.68121e-06
-0.000148283
-1.50429e-05
-0.000133427
-2.09079e-05
-0.000115183
-2.57375e-05
-9.46327e-05
-2.90139e-05
-7.31346e-05
-3.03215e-05
-5.22043e-05
-2.94285e-05
-3.33448e-05
-2.63502e-05
-1.78578e-05
-2.13819e-05
-6.65999e-06
-1.50966e-05
-1.11759e-07
-8.31796e-06
2.23366e-06
-2.14726e-06
1.52512e-06
2.16871e-06
2.82596e-06
-3.14923e-06
3.47729e-06
-1.24962e-05
1.5202e-05
-2.72575e-05
2.64587e-05
-4.63484e-05
3.55309e-05
-6.85861e-05
4.20666e-05
-9.28558e-05
4.62343e-05
-0.000118168
4.8374e-05
-0.000143647
4.87933e-05
-0.000168489
4.76757e-05
-0.000191907
4.50684e-05
-0.000213089
4.09138e-05
-0.000231185
3.51048e-05
-0.000245311
2.75505e-05
-0.000254603
1.82451e-05
-0.000258285
7.33232e-06
-0.000255744
-4.8518e-06
-0.000246653
-1.77726e-05
-0.000231067
-3.06289e-05
-0.000209497
-4.24775e-05
-0.000182949
-5.22853e-05
-0.000152905
-5.90584e-05
-0.000121233
-6.19931e-05
-9.00319e-05
-6.06296e-05
-6.14055e-05
-5.49766e-05
-3.7206e-05
-4.55814e-05
-1.87709e-05
-3.35318e-05
-6.68454e-06
-2.04043e-05
-6.37382e-07
-8.19441e-06
7.88881e-07
7.42444e-07
3.61484e-06
-5.24644e-06
8.72372e-06
-1.90457e-05
2.90013e-05
-3.9653e-05
4.7066e-05
-6.54373e-05
6.13152e-05
-9.48964e-05
7.15257e-05
-0.000126691
7.80293e-05
-0.000159645
8.13275e-05
-0.000192702
8.18508e-05
-0.000224876
7.98488e-05
-0.000255184
7.53771e-05
-0.000282616
6.83454e-05
-0.00030611
5.85987e-05
-0.000324575
4.6016e-05
-0.000336942
3.06123e-05
-0.000342245
1.26349e-05
-0.00033972
-7.37637e-06
-0.000328923
-2.85706e-05
-0.000309861
-4.96905e-05
-0.000283084
-6.92545e-05
-0.000249739
-8.56302e-05
-0.00021157
-9.72275e-05
-0.000170831
-0.000102732
-0.000130109
-0.000101351
-9.2064e-05
-9.30217e-05
-5.91038e-05
-7.85416e-05
-3.30505e-05
-5.9585e-05
-1.48436e-05
-3.86112e-05
-4.33351e-06
-1.87045e-05
-2.11124e-07
-3.37994e-06
3.40371e-06
-7.15876e-06
1.58825e-05
-2.5171e-05
4.70135e-05
-5.13294e-05
7.32244e-05
-8.34166e-05
9.34024e-05
-0.000119589
0.000107699
-0.000158306
0.000116746
-0.000198249
0.000121271
-0.000238251
0.000121852
-0.000277206
0.000118805
-0.000314012
0.000112182
-0.000347513
0.000101847
-0.000376493
8.75783e-05
-0.000399683
6.92064e-05
-0.00041582
4.67494e-05
-0.00042373
2.05445e-05
-0.000422446
-8.66056e-06
-0.000411306
-3.97105e-05
-0.000390154
-7.08422e-05
-0.000359437
-9.99717e-05
-0.000320305
-0.000124762
-0.00027465
-0.000142883
-0.000225042
-0.00015234
-0.000174556
-0.000151837
-0.000126472
-0.000141106
-8.38794e-05
-0.000121134
-4.92473e-05
-9.4217e-05
-2.40325e-05
-6.3826e-05
-8.4172e-06
-3.43198e-05
-1.22243e-06
-1.05747e-05
2.18128e-06
-8.87077e-06
2.47533e-05
-3.07689e-05
6.89115e-05
-6.21007e-05
0.000104556
-0.00010008
0.000131381
-0.000142529
0.000150148
-0.000187725
0.000161941
-0.000234253
0.000167798
-0.00028088
0.000168479
-0.000326449
0.000164374
-0.000369792
0.000155526
-0.00040967
0.000141724
-0.000444744
0.000122653
-0.000473589
9.80514e-05
-0.000494733
6.78934e-05
-0.000506744
3.25552e-05
-0.000508376
-7.02864e-06
-0.000498597
-4.94893e-05
-0.00047694
-9.24992e-05
-0.000443578
-0.000133334
-0.000399502
-0.000168838
-0.000346625
-0.00019576
-0.000287779
-0.000211187
-0.000226561
-0.000213055
-0.000167008
-0.000200659
-0.000113111
-0.00017503
-6.82466e-05
-0.000139082
-3.46344e-05
-9.74383e-05
-1.29623e-05
-5.5992e-05
-2.2542e-06
-2.12828e-05
-7.29178e-08
-1.03989e-05
3.51522e-05
-3.58275e-05
9.43401e-05
-7.19119e-05
0.000140641
-0.000115351
0.000174821
-0.000163668
0.000198465
-0.000214989
0.000213262
-0.000267838
0.000220648
-0.000320974
0.000221615
-0.000373242
0.000216642
-0.000423466
0.000205749
-0.00047037
0.000188628
-0.000512532
0.000164815
-0.000548376
0.000133896
-0.0005762
9.57176e-05
-0.000594228
5.05829e-05
-0.00060092
-3.36347e-07
-0.000594588
-5.58213e-05
-0.000574363
-0.000112725
-0.000539917
-0.00016778
-0.000491877
-0.000216877
-0.000432015
-0.000255622
-0.000363331
-0.00027987
-0.000289969
-0.000286418
-0.000216881
-0.000273747
-0.000149249
-0.000242663
-9.17183e-05
-0.000196612
-4.76274e-05
-0.000141529
-1.84254e-05
-8.5194e-05
-3.45046e-06
-3.62577e-05
-3.52338e-06
-1.17543e-05
4.69065e-05
-4.03436e-05
0.000122929
-8.07276e-05
0.000181025
-0.000129166
0.000223259
-0.000182931
0.000252231
-0.000240041
0.000270371
-0.000299007
0.000279614
-0.000358623
0.000281231
-0.000417792
0.000275811
-0.000475387
0.000263344
-0.000530145
0.000243386
-0.000580595
0.000215264
-0.000625024
0.000178325
-0.000661483
0.000132177
-0.000687861
7.69612e-05
-0.00070184
1.36421e-05
-0.000701552
-5.61096e-05
-0.000685144
-0.000129132
-0.000651626
-0.000201298
-0.000601027
-0.000267477
-0.000534742
-0.000321907
-0.000455774
-0.000358838
-0.000368761
-0.000373431
-0.000279693
-0.000362814
-0.000195255
-0.000327101
-0.000121826
-0.000270041
-6.43592e-05
-0.000198996
-2.54592e-05
-0.000124094
-4.96517e-06
-5.67517e-05
-8.48855e-06
-1.29324e-05
5.98389e-05
-4.42877e-05
0.000154285
-8.84763e-05
0.000225213
-0.000141402
0.000276185
-0.000200147
0.000310976
-0.000262667
0.000332891
-0.000327503
0.00034445
-0.000393535
0.000347264
-0.000459777
0.000342053
-0.0005252
0.000328768
-0.000588604
0.00030679
-0.000648508
0.000275169
-0.000703084
0.0002329
-0.000750129
0.000179222
-0.000787098
0.000113931
-0.000811176
3.77198e-05
-0.000819631
-4.76552e-05
-0.000809809
-0.000138954
-0.000779779
-0.000231327
-0.000728687
-0.000318569
-0.000657246
-0.000393347
-0.000568166
-0.000447918
-0.000466382
-0.000475215
-0.000358922
-0.000470275
-0.000254241
-0.000431783
-0.000160988
-0.000363294
-8.64029e-05
-0.000273581
-3.48497e-05
-0.000175647
-7.03715e-06
-8.45642e-05
-1.55257e-05
-1.39141e-05
7.3753e-05
-4.75974e-05
0.000187968
-9.50334e-05
0.000272649
-0.000151856
0.000333008
-0.000215017
0.000374137
-0.000282454
0.000400328
-0.000352778
0.000414774
-0.000424998
0.000419484
-0.00049828
0.000415335
-0.000571748
0.000402236
-0.00064431
0.000379352
-0.000714519
0.000345378
-0.000780469
0.00029885
-0.000839731
0.000238484
-0.000889356
0.000163556
-0.000925945
7.43081e-05
-0.00094596
-2.76395e-05
-0.00094576
-0.000139154
-0.000922325
-0.000254762
-0.000873646
-0.000367248
-0.000799384
-0.000467609
-0.00070152
-0.000545782
-0.000584875
-0.00059186
-0.000457274
-0.000597876
-0.000329049
-0.000560008
-0.000211644
-0.000480699
-0.000115442
-0.000369783
-4.74596e-05
-0.000243629
-9.90944e-06
-0.000122114
-2.54351e-05
-1.46699e-05
8.84229e-05
-5.01841e-05
0.000223482
-0.000100228
0.000322693
-0.00016025
0.00039303
-0.000227122
0.000441009
-0.0002988
0.000472006
-0.000373995
0.000489969
-0.000451872
0.000497361
-0.000531787
0.000495249
-0.000613048
0.000483497
-0.000694719
0.000461023
-0.000775438
0.000426097
-0.000853275
0.000376687
-0.000925639
0.000310848
-0.000989248
0.000227165
-0.00104017
0.000125232
-0.00107414
6.32901e-06
-0.00108653
-0.000126769
-0.00107316
-0.000268126
-0.00103066
-0.000409746
-0.000957256
-0.000541017
-0.000853627
-0.000649411
-0.000723816
-0.00072167
-0.000575856
-0.000745836
-0.000421709
-0.000714155
-0.000275977
-0.000626432
-0.000153165
-0.000492594
-6.42062e-05
-0.000332588
-1.3846e-05
-0.000172475
-3.92811e-05
-1.51664e-05
0.000103589
-5.19484e-05
0.000260264
-0.000103867
0.000374612
-0.00016626
0.000455423
-0.000235961
0.00051071
-0.000310963
0.000547008
-0.000390089
0.000569095
-0.00047267
0.000579942
-0.000558263
0.000580842
-0.000646387
0.000571622
-0.000736292
0.000550928
-0.000826751
0.000516555
-0.000915884
0.00046582
-0.00100104
0.000396006
-0.00107875
0.000304873
-0.00114476
0.000191239
-0.00119403
5.56066e-05
-0.00122146
-9.93414e-05
-0.00122162
-0.000267972
-0.00118971
-0.000441655
-0.00112221
-0.000608516
-0.0010179
-0.000753718
-0.000879138
-0.000860433
-0.000713133
-0.000911841
-0.000532695
-0.000894593
-0.000355507
-0.00080362
-0.000201122
-0.000646979
-8.60395e-05
-0.000447671
-1.914e-05
-0.000239374
-5.84211e-05
-1.53742e-05
0.000118963
-5.28031e-05
0.000297693
-0.000105774
0.000427583
-0.000169578
0.000519227
-0.000241028
0.00058216
-0.000318158
0.000624138
-0.000399887
0.000650824
-0.000485703
0.000665758
-0.000575353
0.000670492
-0.000668565
0.000664834
-0.000764795
0.000647158
-0.000862993
0.000614753
-0.000961417
0.000564245
-0.0010575
0.000492087
-0.00114777
0.000395142
-0.00122787
0.000271342
-0.00129263
0.000120366
-0.00133626
-5.57094e-05
-0.00135274
-0.000251492
-0.00133594
-0.000458457
-0.00128045
-0.000664008
-0.0011826
-0.00085156
-0.00104207
-0.00100097
-0.000863796
-0.00109011
-0.000659969
-0.00109842
-0.000450492
-0.0010131
-0.000260469
-0.000837002
-0.000113888
-0.000594252
-2.61173e-05
-0.000327145
-8.45384e-05
-1.52785e-05
0.000134242
-5.27029e-05
0.000335117
-0.000105843
0.000480723
-0.000169982
0.000583366
-0.000241914
0.000654093
-0.000319687
0.000701911
-0.000402288
0.000733425
-0.000489319
0.000752789
-0.000580687
0.000761859
-0.000676305
0.000760453
-0.000775834
0.000746686
-0.00087844
0.000717359
-0.000982612
0.000668417
-0.00108602
0.000595495
-0.00118545
0.000494572
-0.0012768
0.000362689
-0.00135514
0.00019871
-0.00141443
3.5835e-06
-0.00144876
-0.000217167
-0.00145089
-0.00045633
-0.00141374
-0.000701153
-0.00133097
-0.000934329
-0.00119864
-0.00113331
-0.00101783
-0.00127092
-0.000797917
-0.00131833
-0.000559102
-0.00125191
-0.000331551
-0.00106455
-0.000148542
-0.00077726
-3.51282e-05
-0.000440558
-0.000119667
-1.48905e-05
0.000149133
-5.1678e-05
0.000371905
-0.000104096
0.000533141
-0.00016743
0.000646699
-0.000238429
0.000725092
-0.000315112
0.000778594
-0.000396481
0.000814793
-0.000482199
0.000838507
-0.000572277
0.000851937
-0.000666779
0.000854955
-0.000765556
0.000845463
-0.000868023
0.000819826
-0.000972985
0.000773378
-0.00107852
0.00070103
-0.00118193
0.000597977
-0.0012797
0.000460463
-0.00136751
0.000286516
-0.00144038
7.64598e-05
-0.00149185
-0.000165698
-0.00151507
-0.000433116
-0.00150167
-0.000714548
-0.00144279
-0.000993208
-0.00133043
-0.00124568
-0.00116034
-0.00144101
-0.000936578
-0.00154209
-0.000676521
-0.00151197
-0.00041332
-0.00132775
-0.000190448
-0.00100013
-4.65183e-05
-0.000584488
-0.000166185
-1.42598e-05
0.000163392
-4.98723e-05
0.000407517
-0.000100755
0.000584024
-0.000162157
0.000708101
-0.000230734
0.000793669
-0.000304422
0.000852281
-0.000382176
0.000892547
-0.000463661
0.000919992
-0.000548939
0.000937216
-0.000638179
0.000944195
-0.00073141
0.000938694
-0.000828322
0.000916739
-0.000928125
0.000873182
-0.00102946
0.000802368
-0.00113038
0.000698893
-0.00122831
0.00055839
-0.00132002
0.000378234
-0.0014016
0.000158034
-0.00146757
-9.97254e-05
-0.00151173
-0.000388959
-0.00152533
-0.000700946
-0.0014977
-0.00102084
-0.00141699
-0.00132638
-0.00127287
-0.00158512
-0.00106175
-0.00175322
-0.000794325
-0.00177939
-0.000502695
-0.00161938
-0.000239441
-0.00126339
-6.05867e-05
-0.000763342
-0.000226772
-1.34874e-05
0.00017688
-4.75824e-05
0.000441612
-9.63026e-05
0.000632744
-0.000154769
0.000766568
-0.000219469
0.000858368
-0.000288194
0.000921007
-0.00035981
0.000964162
-0.000433937
0.00099412
-0.000510647
0.00101393
-0.000590188
0.00102374
-0.000672766
0.00102127
-0.00075838
0.00100235
-0.000846725
0.000961527
-0.000937139
0.000892781
-0.00102859
0.000790349
-0.00111969
0.000649487
-0.00120859
0.000467136
-0.00129292
0.000242361
-0.00136855
-2.4099e-05
-0.0014309
-0.000326609
-0.00147164
-0.000660202
-0.00147949
-0.00101299
-0.00143979
-0.00136609
-0.00133634
-0.00168857
-0.00115653
-0.00193302
-0.000900663
-0.00203526
-0.000594119
-0.00192593
-0.00029446
-0.00156305
-7.75448e-05
-0.000980257
-0.000304316
-1.27419e-05
0.000189622
-4.5302e-05
0.000474172
-9.15606e-05
0.000679002
-0.000146334
0.000821342
-0.000205845
0.00091788
-0.000267708
0.00098287
-0.000330678
0.00102713
-0.000394328
0.00105777
-0.000458736
0.00107833
-0.000524236
0.00108924
-0.000591234
0.00108827
-0.000660088
0.00107121
-0.00073105
0.00103249
-0.000804247
0.000965978
-0.000879687
0.000865789
-0.000957253
0.000727053
-0.00103661
0.000546494
-0.00111694
0.000322689
-0.00119681
5.57667e-05
-0.00127208
-0.000251331
-0.00133679
-0.000595492
-0.00138024
-0.000969546
-0.00138652
-0.0013598
-0.00133504
-0.00174006
-0.00120431
-0.00206375
-0.00098166
-0.00225791
-0.000679625
-0.00222796
-0.000353336
-0.00188934
-9.75092e-05
-0.00123608
-0.000401826
-1.22822e-05
0.000201904
-4.37789e-05
0.000505669
-8.77594e-05
0.000722983
-0.000138454
0.000872036
-0.000191719
0.000971145
-0.00024499
0.00103614
-0.000296963
0.0010791
-0.000347215
0.00110802
-0.000395887
0.00112701
-0.000443451
0.0011368
-0.000490568
0.00113539
-0.000538019
0.00111866
-0.000586679
0.00108115
-0.000637524
0.00101682
-0.000691638
0.000919903
-0.000750188
0.000785603
-0.000814311
0.000610617
-0.000884858
0.000393237
-0.000962156
0.000133064
-0.0010443
-0.000169185
-0.00112725
-0.000512543
-0.00120225
-0.000894548
-0.00125415
-0.0013079
-0.00126028
-0.00173393
-0.00119221
-0.00213182
-0.00102378
-0.00242633
-0.000749609
-0.00250214
-0.000412749
-0.0022262
-0.000120564
-0.00152827
-0.000522389
-1.24994e-05
0.000214403
-4.41013e-05
0.000537271
-8.66377e-05
0.000765519
-0.000133339
0.000918737
-0.00017961
0.00101742
-0.000222788
0.00107932
-0.000261645
0.00111796
-0.000295903
0.00114228
-0.000325883
0.00115699
-0.0003523
0.00116322
-0.000376155
0.00115924
-0.00039872
0.00114122
-0.000421541
0.00110397
-0.000446459
0.00104174
-0.000475597
0.000949042
-0.000511322
0.000821327
-0.000556079
0.000655374
-0.000612148
0.000449306
-0.000681285
0.000202201
-0.000763813
-8.66567e-05
-0.000857732
-0.000418624
-0.000957016
-0.000795264
-0.00104902
-0.0012159
-0.0011119
-0.00167106
-0.00111354
-0.00213018
-0.00101633
-0.00252355
-0.000794273
-0.00272419
-0.000468438
-0.00255203
-0.000146886
-0.00184982
-0.000669276
-1.40014e-05
0.000228405
-4.78477e-05
0.000571117
-9.05811e-05
0.000808253
-0.000133881
0.000962037
-0.000172684
0.00105622
-0.000204445
0.00111108
-0.000228275
0.00114179
-0.000244277
0.00115828
-0.000253143
0.00116585
-0.000255966
0.00116604
-0.000254191
0.00115747
-0.000249635
0.00113667
-0.000244533
0.00109887
-0.000241546
0.00103875
-0.000243729
0.000951224
-0.000254488
0.000832087
-0.000277341
0.000678227
-0.000315666
0.000487631
-0.000372345
0.00025888
-0.000449354
-9.64815e-06
-0.00054661
-0.000321368
-0.000661106
-0.000680768
-0.000783936
-0.00109307
-0.000896747
-0.00155824
-0.000967959
-0.00205897
-0.000952623
-0.00253888
-0.000804817
-0.002872
-0.000515469
-0.00284138
-0.000176841
-0.00218845
-0.000846117
-1.7784e-05
0.000246189
-5.73489e-05
0.000610682
-0.000102825
0.000853729
-0.000143707
0.00100292
-0.000174638
0.00108715
-0.000193627
0.00113007
-0.000200555
0.00114872
-0.000196244
0.00115397
-0.000181997
0.00115161
-0.000159446
0.00114349
-0.000130563
0.00112858
-9.77437e-05
0.00110385
-6.3886e-05
0.00106501
-3.24149e-05
0.00100728
-7.22249e-06
0.000926031
7.64463e-06
0.00081722
7.99976e-06
0.000677871
-1.0257e-05
0.000505888
-5.08989e-05
0.000299522
-0.000117039
5.64922e-05
-0.000210442
-0.000227966
-0.000330596
-0.000560614
-0.000472983
-0.000950679
-0.000624732
-0.00140649
-0.000758991
-0.00192471
-0.000829235
-0.00246864
-0.00077357
-0.00292766
-0.000548184
-0.00306677
-0.000210806
-0.00252583
-0.00105692
-2.55756e-05
0.000271764
-7.61227e-05
0.000661229
-0.000127693
0.000905299
-0.000167106
0.00104233
-0.000189319
0.00110936
-0.000193676
0.00113443
-0.000181459
0.0011365
-0.000154641
0.00112715
-0.000115401
0.00111237
-6.60503e-05
0.00109414
-9.13406e-06
0.00107167
5.24211e-05
0.00104229
0.000115212
0.00100222
0.000175307
0.000947187
0.000228323
0.000873015
0.000269515
0.000776029
0.00029408
0.000653306
0.000297412
0.000502556
0.000275324
0.000321611
0.000224275
0.000107541
0.00014116
-0.000144851
2.41822e-05
-0.000443635
-0.000126007
-0.00080049
-0.000303611
-0.00122889
-0.000489942
-0.00173838
-0.00064325
-0.00231533
-0.000692552
-0.00287836
-0.000559252
-0.00320007
-0.000248348
-0.00283673
-0.00130527
-4.0494e-05
0.000312258
-0.000109486
0.000730221
-0.000170648
0.000966461
-0.000208398
0.00108008
-0.00021947
0.00112044
-0.000205834
0.00112079
-0.000171025
0.00110169
-0.000118653
0.00107478
-5.20174e-05
0.00104573
2.5807e-05
0.00101631
0.000111728
0.000985747
0.000202411
0.00095161
0.000294099
0.000910533
0.000382556
0.00085873
0.000463118
0.000792453
0.000530829
0.000708318
0.000580686
0.000603449
0.00060786
0.000475382
0.000607853
0.000321618
0.000576564
0.000138829
0.000509969
-7.82559e-05
0.000404443
-0.000338109
0.000256626
-0.000652672
6.60654e-05
-0.00103833
-0.000158993
-0.00151332
-0.000388466
-0.00208586
-0.000550799
-0.00271603
-0.000537436
-0.00321343
-0.000286281
-0.00308789
-0.00159155
-6.81945e-05
0.000380453
-0.000165039
0.000827066
-0.00023719
0.00103861
-0.000269235
0.00111213
-0.000262681
0.00111388
-0.000224088
0.0010822
-0.000160293
0.0010379
-7.7027e-05
0.000991514
2.11366e-05
0.000947567
0.000130369
0.00090708
0.00024719
0.000868926
0.000368065
0.000830736
0.000489176
0.000789421
0.000606311
0.000741594
0.000714873
0.000683891
0.00080999
0.000613201
0.000886692
0.000526747
0.000940082
0.000421992
0.000965425
0.000296275
0.000958074
0.000146181
0.000913058
-3.324e-05
0.000825108
-0.00025016
0.000687847
-0.000515411
0.000494892
-0.000845375
0.00024403
-0.00126246
-4.9561e-05
-0.00179227
-0.000330272
-0.00243531
-0.000464031
-0.00307967
-0.00031564
-0.00323628
-0.00190719
-0.000118594
0.000499047
-0.000251418
0.00095989
-0.000327128
0.00111432
-0.000339048
0.00112405
-0.000298928
0.00107376
-0.000220629
0.0010039
-0.000115387
0.000932657
8.66303e-06
0.000867463
0.000145749
0.000810481
0.000291613
0.000761216
0.000442719
0.000717819
0.000595752
0.000677703
0.000747257
0.000637916
0.000893459
0.000595392
0.00103021
0.000547142
0.00115303
0.000490376
0.00125724
0.000422542
0.001338
0.000341227
0.00139039
0.000243892
0.00140912
0.000127444
0.0013881
-1.22123e-05
0.00132071
-0.000182778
0.00119789
-0.000392589
0.00100873
-0.000656217
0.000741838
-0.000995561
0.000395377
-0.0014458
8.77745e-06
-0.00204871
-0.000307677
-0.00276321
-0.000323048
-0.00322091
-0.00223024
-0.000207642
0.000706689
-0.000367559
0.00111981
-0.000411585
0.00115835
-0.00036403
0.00107649
-0.000255361
0.000965093
-0.00010931
0.000857847
5.84525e-05
0.000764895
0.000238222
0.000687693
0.000424117
0.000624586
0.000612415
0.000572918
0.00080045
0.000529785
0.000985886
0.000492268
0.00116628
0.000457523
0.00133883
0.000422839
0.00150029
0.000385686
0.00164692
0.000343745
0.00177457
0.000294895
0.00187868
0.000237118
0.00195425
0.000168316
0.00199554
8.61585e-05
0.00199526
-1.19315e-05
0.00194574
-0.00013326
0.00183564
-0.000282495
0.00165088
-0.000471449
0.00137352
-0.000718204
0.000985288
-0.00105757
0.000488491
-0.00155192
-1.18856e-05
-0.00226284
-0.000265801
-0.00296699
-0.00249604
-0.000345914
0.0010526
-0.000439583
0.00121348
-0.000348297
0.00106706
-0.000157813
0.000886005
7.67108e-05
0.00073057
0.000326484
0.000608074
0.000576994
0.000514385
0.000821542
0.000443145
0.00105748
0.000388649
0.00128402
0.00034638
0.001501
0.000312798
0.00170825
0.000285024
0.00190513
0.000260636
0.00209043
0.000237539
0.00226221
0.000213907
0.00241782
0.000188138
0.0025539
0.000158811
0.00266641
0.000124613
0.00275054
8.41816e-05
0.0028006
3.6103e-05
0.00280982
-2.1152e-05
0.00276821
-9.165e-05
0.00266411
-0.000178394
0.0024815
-0.00028884
0.00219852
-0.000435227
0.001786
-0.000645054
0.00121259
-0.000978503
0.000520929
-0.00157118
-2.04605e-05
-0.0024256
-0.0025165
-0.000306627
0.00135923
-5.8392e-05
0.000965241
0.000366797
0.000641874
0.000786888
0.000465915
0.00117143
0.000346028
0.0015163
0.000263208
0.00182384
0.00020684
0.00209891
0.000168075
0.00234684
0.000140716
0.00257238
0.000120849
0.00277923
0.00010594
0.00297004
9.42161e-05
0.00314632
8.43539e-05
0.00330854
7.53246e-05
0.00345614
6.63026e-05
0.00358767
5.66093e-05
0.0037008
4.56801e-05
0.00379239
3.30204e-05
0.00385831
1.82669e-05
0.00389303
1.37868e-06
0.00389267
-2.07903e-05
0.00384659
-4.55645e-05
0.00374449
-7.6297e-05
0.00357121
-0.000115559
0.00330403
-0.000168048
0.00290708
-0.000248109
0.00232051
-0.000391925
0.0014869
-0.000737568
0.000505381
-0.00144409
-0.00201112
0.00135923
0.00232447
0.00296634
0.00343226
0.00377829
0.00404149
0.00424833
0.00441641
0.00455713
0.00467797
0.00478391
0.00487813
0.00496248
0.00503781
0.00510411
0.00516072
0.0052064
0.00523942
0.00525769
0.00525907
0.00523828
0.00519271
0.00511642
0.00500086
0.00483281
0.0045847
0.00419277
0.00345521
0.00201112
)
;

boundaryField
{
    movingWall
    {
        type            calculated;
        value           uniform 0;
    }
    fixedWalls
    {
        type            calculated;
        value           uniform 0;
    }
    frontAndBack
    {
        type            empty;
        value           nonuniform 0();
    }
}


// ************************************************************************* //
