/*--------------------------------*- C++ -*----------------------------------*\
  =========                 |
  \\      /  F ield         | OpenFOAM: The Open Source CFD Toolbox
   \\    /   O peration     | Website:  https://openfoam.org
    \\  /    A nd           | Version:  7
     \\/     M anipulation  |
\*---------------------------------------------------------------------------*/
FoamFile
{
    version     2.0;
    format      ascii;
    class       volVectorField;
    location    "9.3";
    object      U;
}
// * * * * * * * * * * * * * * * * * * * * * * * * * * * * * * * * * * * * * //

dimensions      [0 1 -1 0 0 0 0];

internalField   nonuniform List<vector> 
900
(
(9.71136e-05 -9.57431e-05 0)
(0.000108024 -1.0067e-05 0)
(-0.000231447 0.000100513 0)
(-0.000861381 0.000187017 0)
(-0.00170052 0.00024234 0)
(-0.00267675 0.000272832 0)
(-0.00372925 0.000286865 0)
(-0.00481255 0.000290518 0)
(-0.00589188 0.000286843 0)
(-0.00693686 0.000276411 0)
(-0.00791646 0.000258087 0)
(-0.00879578 0.000229804 0)
(-0.00953495 0.000189303 0)
(-0.01009 0.000134869 0)
(-0.0104159 6.60813e-05 0)
(-0.0104715 -1.55716e-05 0)
(-0.0102251 -0.000106842 0)
(-0.00966199 -0.000201269 0)
(-0.00879081 -0.000290426 0)
(-0.00764803 -0.00036461 0)
(-0.00629924 -0.000414128 0)
(-0.00483619 -0.000430974 0)
(-0.00336892 -0.000410471 0)
(-0.00201382 -0.000352534 0)
(-0.000878738 -0.000262279 0)
(-4.89179e-05 -0.000150562 0)
(0.000423642 -3.2244e-05 0)
(0.000535952 7.84566e-05 0)
(0.000359689 0.000142687 0)
(0.000106979 0.000107377 0)
(1.36878e-05 -0.000111901 0)
(-0.000392152 0.000386161 0)
(-0.00156411 0.00094639 0)
(-0.00333478 0.00140176 0)
(-0.00556608 0.00172073 0)
(-0.00811602 0.00191719 0)
(-0.0108528 0.00201703 0)
(-0.0136658 0.00204211 0)
(-0.0164612 0.00200484 0)
(-0.0191522 0.0019083 0)
(-0.0216517 0.00174866 0)
(-0.0238668 0.00151841 0)
(-0.0256974 0.00121004 0)
(-0.0270395 0.00081972 0)
(-0.0277919 0.000350698 0)
(-0.0278673 -0.000184214 0)
(-0.027204 -0.00075987 0)
(-0.0257795 -0.00133916 0)
(-0.023625 -0.00187554 0)
(-0.0208313 -0.00231732 0)
(-0.0175509 -0.00261445 0)
(-0.0139909 -0.00272663 0)
(-0.0103961 -0.00263133 0)
(-0.0070248 -0.00232995 0)
(-0.00411787 -0.00185086 0)
(-0.00186632 -0.0012498 0)
(-0.000378264 -0.000606495 0)
(0.000331744 -2.11304e-05 0)
(0.000393046 0.00036688 0)
(0.00014509 0.000356078 0)
(-0.000109106 0.000236332 0)
(-0.00103009 0.00157713 0)
(-0.00310544 0.00293525 0)
(-0.00598332 0.00404244 0)
(-0.00947299 0.00484019 0)
(-0.0133913 0.00534778 0)
(-0.0175616 0.0056101 0)
(-0.0218286 0.00566832 0)
(-0.0260547 0.00554716 0)
(-0.0301091 0.00525323 0)
(-0.0338598 0.00477923 0)
(-0.0371683 0.00411092 0)
(-0.0398888 0.00323547 0)
(-0.0418736 0.00215008 0)
(-0.0429824 0.000869717 0)
(-0.0430959 -0.000566778 0)
(-0.0421316 -0.00209232 0)
(-0.0400634 -0.0036128 0)
(-0.0369365 -0.00501283 0)
(-0.0328769 -0.00616637 0)
(-0.028094 -0.00695257 0)
(-0.0228716 -0.00727453 0)
(-0.0175477 -0.00707804 0)
(-0.0124816 -0.00636644 0)
(-0.00801335 -0.00520848 0)
(-0.00441879 -0.00373817 0)
(-0.00186632 -0.00214918 0)
(-0.000386122 -0.000691354 0)
(0.000160661 0.000342481 0)
(0.000114936 0.000569405 0)
(-0.000226949 0.000945662 0)
(-0.00166 0.00351623 0)
(-0.00463227 0.00590161 0)
(-0.0085772 0.0078115 0)
(-0.0132376 0.00918805 0)
(-0.0183936 0.0100677 0)
(-0.023836 0.0105181 0)
(-0.0293794 0.0106001 0)
(-0.0348561 0.0103497 0)
(-0.0401041 0.00977583 0)
(-0.0449585 0.00886674 0)
(-0.0492465 0.00760103 0)
(-0.0527873 0.00596136 0)
(-0.0553981 0.00394851 0)
(-0.0569054 0.00159431 0)
(-0.0571609 -0.0010284 0)
(-0.056059 -0.00380205 0)
(-0.0535589 -0.00656179 0)
(-0.0497045 -0.0091076 0)
(-0.0446361 -0.0112215 0)
(-0.0385962 -0.0126934 0)
(-0.031923 -0.0133524 0)
(-0.0250281 -0.0130993 0)
(-0.0183602 -0.0119332 0)
(-0.0123546 -0.00996699 0)
(-0.00737725 -0.00742852 0)
(-0.00366949 -0.0046489 0)
(-0.00130259 -0.0020455 0)
(-0.000152928 -0.000100101 0)
(7.27437e-05 0.000625512 0)
(-0.000329757 0.00198617 0)
(-0.00224112 0.00617798 0)
(-0.00606798 0.0098118 0)
(-0.011024 0.0126496 0)
(-0.0167798 0.0146753 0)
(-0.0230792 0.0159632 0)
(-0.0296866 0.0166124 0)
(-0.0363963 0.0167056 0)
(-0.0430221 0.0162896 0)
(-0.0493826 0.0153741 0)
(-0.0552907 0.0139406 0)
(-0.0605488 0.011959 0)
(-0.0649483 0.00940617 0)
(-0.0682752 0.006286 0)
(-0.0703224 0.00264777 0)
(-0.070907 -0.00140034 0)
(-0.0698875 -0.00568613 0)
(-0.0671901 -0.00996529 0)
(-0.0628351 -0.0139415 0)
(-0.056953 -0.0172887 0)
(-0.0497976 -0.0196868 0)
(-0.041745 -0.0208681 0)
(-0.0332746 -0.0206669 0)
(-0.0249291 -0.0190623 0)
(-0.0172561 -0.0162067 0)
(-0.0107366 -0.0124298 0)
(-0.00571256 -0.00822008 0)
(-0.0023236 -0.00418904 0)
(-0.000482751 -0.00102671 0)
(3.76174e-05 0.000509288 0)
(-0.000418503 0.00332842 0)
(-0.00276569 0.00951708 0)
(-0.00738669 0.0146186 0)
(-0.0132874 0.0185054 0)
(-0.0200674 0.0212441 0)
(-0.0274356 0.0229716 0)
(-0.0351352 0.0238313 0)
(-0.0429484 0.0239328 0)
(-0.0506802 0.0233345 0)
(-0.05814 0.0220449 0)
(-0.0651287 0.0200361 0)
(-0.071432 0.0172649 0)
(-0.0768182 0.0136977 0)
(-0.081043 0.00933646 0)
(-0.0838604 0.00424254 0)
(-0.0850429 -0.00144423 0)
(-0.0843935 -0.00749947 0)
(-0.0817793 -0.0135949 0)
(-0.0771706 -0.0193284 0)
(-0.0706591 -0.0242475 0)
(-0.0624844 -0.0278954 0)
(-0.0530445 -0.0298744 0)
(-0.0428838 -0.0299169 0)
(-0.0326539 -0.0279531 0)
(-0.0230452 -0.0241586 0)
(-0.0146958 -0.0189683 0)
(-0.00809289 -0.0130502 0)
(-0.00348088 -0.00724622 0)
(-0.000830709 -0.00249281 0)
(1.17717e-05 0.000222514 0)
(-0.000496046 0.00494048 0)
(-0.00323579 0.013475 0)
(-0.00858238 0.0202543 0)
(-0.0153547 0.0253085 0)
(-0.0230875 0.0288251 0)
(-0.0314594 0.031029 0)
(-0.0401978 0.0321225 0)
(-0.0490807 0.0322496 0)
(-0.0579134 0.0314821 0)
(-0.0665059 0.0298257 0)
(-0.0746562 0.0272385 0)
(-0.0821406 0.023658 0)
(-0.0887087 0.019031 0)
(-0.0940844 0.0133462 0)
(-0.0979761 0.00666371 0)
(-0.100099 -0.000856671 0)
(-0.100178 -0.00892867 0)
(-0.0979915 -0.0171616 0)
(-0.0934286 -0.0250377 0)
(-0.0865069 -0.0319562 0)
(-0.0774197 -0.0372897 0)
(-0.0665638 -0.0404641 0)
(-0.0545418 -0.0410578 0)
(-0.042129 -0.038903 0)
(-0.0301964 -0.0341659 0)
(-0.0195966 -0.027381 0)
(-0.0110258 -0.0194216 0)
(-0.00488641 -0.0114101 0)
(-0.00123886 -0.00459059 0)
(-1.29426e-05 -0.000241162 0)
(-0.000564135 0.00679279 0)
(-0.00365324 0.0179911 0)
(-0.00965201 0.0266453 0)
(-0.0172169 0.0329843 0)
(-0.0258275 0.0373497 0)
(-0.0351384 0.040079 0)
(-0.0448686 0.0414493 0)
(-0.0547992 0.041647 0)
(-0.064745 0.0407604 0)
(-0.0745258 0.0387909 0)
(-0.0839458 0.0356772 0)
(-0.0927793 0.0313278 0)
(-0.100762 0.0256577 0)
(-0.107587 0.0186264 0)
(-0.112911 0.0102757 0)
(-0.11636 0.00076776 0)
(-0.117578 -0.00957869 0)
(-0.116241 -0.0203053 0)
(-0.1121 -0.0307764 0)
(-0.105062 -0.0402252 0)
(-0.0952347 -0.0478153 0)
(-0.0829775 -0.0527383 0)
(-0.0689308 -0.0543461 0)
(-0.0539972 -0.0522977 0)
(-0.0392655 -0.0466917 0)
(-0.0258703 -0.0381395 0)
(-0.0148019 -0.0277446 0)
(-0.00669898 -0.0169785 0)
(-0.00176088 -0.00748255 0)
(-4.13982e-05 -0.000919775 0)
(-0.000622963 0.00885658 0)
(-0.00401612 0.0230022 0)
(-0.0105876 0.0337133 0)
(-0.0188579 0.0414528 0)
(-0.0282625 0.0467457 0)
(-0.03844 0.0500647 0)
(-0.0491079 0.0517775 0)
(-0.0600584 0.0521222 0)
(-0.0711239 0.0512067 0)
(-0.0821431 0.0490269 0)
(-0.0929352 0.0454956 0)
(-0.10328 0.0404815 0)
(-0.112904 0.0338507 0)
(-0.121471 0.0255134 0)
(-0.128581 0.0154707 0)
(-0.133781 0.00386079 0)
(-0.136602 -0.0090038 0)
(-0.136579 -0.0225959 0)
(-0.133314 -0.0361682 0)
(-0.126557 -0.0487761 0)
(-0.116278 -0.0593363 0)
(-0.102749 -0.0667406 0)
(-0.0866033 -0.0700223 0)
(-0.0688506 -0.0685614 0)
(-0.050817 -0.0622917 0)
(-0.0339882 -0.0518463 0)
(-0.0197565 -0.0385726 0)
(-0.00910914 -0.0243753 0)
(-0.002469 -0.0114204 0)
(-8.55825e-05 -0.00189081 0)
(-0.000671503 0.0111011 0)
(-0.00431862 0.0284396 0)
(-0.0113744 0.0413716 0)
(-0.0202511 0.0506233 0)
(-0.0303515 0.0569287 0)
(-0.0413056 0.0609163 0)
(-0.0528366 0.0630589 0)
(-0.0647541 0.0636559 0)
(-0.0769157 0.0628394 0)
(-0.0891867 0.060598 0)
(-0.10141 0.0568125 0)
(-0.113378 0.0512983 0)
(-0.124816 0.0438546 0)
(-0.135363 0.0343173 0)
(-0.144567 0.022616 0)
(-0.151894 0.00883331 0)
(-0.156757 -0.00673935 0)
(-0.15854 -0.0235462 0)
(-0.15667 -0.0407434 0)
(-0.150706 -0.0572045 0)
(-0.140428 -0.0715711 0)
(-0.125949 -0.0823719 0)
(-0.107822 -0.088218 0)
(-0.087102 -0.0880713 0)
(-0.0653353 -0.081552 0)
(-0.0444103 -0.0692044 0)
(-0.0262434 -0.0525979 0)
(-0.0123262 -0.0341611 0)
(-0.00344075 -0.0167537 0)
(-0.000156179 -0.00326446 0)
(-0.000707956 0.0134914 0)
(-0.00455207 0.0342259 0)
(-0.0119917 0.0495212 0)
(-0.02136 0.0603896 0)
(-0.0320376 0.0677949 0)
(-0.043652 0.072539 0)
(-0.055937 0.0752139 0)
(-0.0687246 0.07619 0)
(-0.0819025 0.0756283 0)
(-0.0953687 0.0735099 0)
(-0.108996 0.0696765 0)
(-0.122599 0.0638784 0)
(-0.135909 0.0558284 0)
(-0.14855 0.0452634 0)
(-0.160031 0.0320114 0)
(-0.169746 0.016065 0)
(-0.177 -0.00234123 0)
(-0.181037 -0.0226475 0)
(-0.181103 -0.0439515 0)
(-0.176546 -0.0649613 0)
(-0.166905 -0.0840368 0)
(-0.152058 -0.0992993 0)
(-0.132368 -0.108838 0)
(-0.108823 -0.111034 0)
(-0.0831088 -0.104985 0)
(-0.057518 -0.0909507 0)
(-0.0346069 -0.0706259 0)
(-0.0165716 -0.0470332 0)
(-0.00476088 -0.0239394 0)
(-0.000264749 -0.00519525 0)
(-0.000730217 0.0159871 0)
(-0.00470672 0.0402728 0)
(-0.0124166 0.0580479 0)
(-0.0221433 0.0706251 0)
(-0.0332545 0.0792132 0)
(-0.0453786 0.0848019 0)
(-0.0582622 0.0881157 0)
(-0.0717615 0.0896053 0)
(-0.0857958 0.0894658 0)
(-0.100299 0.0876714 0)
(-0.115179 0.08402 0)
(-0.130277 0.0781855 0)
(-0.145342 0.0697784 0)
(-0.159999 0.0584141 0)
(-0.173737 0.043793 0)
(-0.185904 0.0257886 0)
(-0.195719 0.00454247 0)
(-0.202322 -0.0194354 0)
(-0.204814 -0.0452085 0)
(-0.202323 -0.0713663 0)
(-0.194124 -0.096018 0)
(-0.17978 -0.116873 0)
(-0.159338 -0.131431 0)
(-0.133552 -0.137328 0)
(-0.104076 -0.132876 0)
(-0.0735189 -0.11774 0)
(-0.0451404 -0.0935141 0)
(-0.0220698 -0.0638103 0)
(-0.00652303 -0.0335457 0)
(-0.000425207 -0.00788461 0)
(-0.000736432 0.0185421 0)
(-0.00477413 0.046481 0)
(-0.0126286 0.0668215 0)
(-0.0225629 0.0811808 0)
(-0.0339373 0.0910206 0)
(-0.0463815 0.0975302 0)
(-0.0596537 0.101577 0)
(-0.073632 0.103702 0)
(-0.0882654 0.104141 0)
(-0.103523 0.102862 0)
(-0.119346 0.099617 0)
(-0.135612 0.0939965 0)
(-0.152095 0.0854971 0)
(-0.168439 0.0735981 0)
(-0.18414 0.0578537 0)
(-0.19854 0.0379961 0)
(-0.210836 0.014044 0)
(-0.220102 -0.0135904 0)
(-0.225341 -0.0439779 0)
(-0.225524 -0.0756645 0)
(-0.219659 -0.106583 0)
(-0.206948 -0.134086 0)
(-0.186992 -0.155079 0)
(-0.160101 -0.16633 0)
(-0.127642 -0.16508 0)
(-0.0923107 -0.149968 0)
(-0.0580179 -0.122062 0)
(-0.0290296 -0.0853905 0)
(-0.0088299 -0.0462498 0)
(-0.000655268 -0.0115862 0)
(-0.000725618 0.0211065 0)
(-0.00475023 0.0527433 0)
(-0.0126168 0.0756987 0)
(-0.022594 0.0918857 0)
(-0.0340367 0.103021 0)
(-0.0465729 0.1105 0)
(-0.0599671 0.115344 0)
(-0.0741131 0.118191 0)
(-0.0889835 0.119325 0)
(-0.104576 0.118712 0)
(-0.120868 0.116058 0)
(-0.13777 0.110869 0)
(-0.155093 0.102525 0)
(-0.172522 0.0903644 0)
(-0.189592 0.0737889 0)
(-0.20569 0.0523796 0)
(-0.220052 0.0260179 0)
(-0.23176 -0.00500082 0)
(-0.239812 -0.0398693 0)
(-0.243098 -0.0771291 0)
(-0.240413 -0.114665 0)
(-0.230596 -0.149607 0)
(-0.212718 -0.178353 0)
(-0.186434 -0.196778 0)
(-0.152494 -0.200806 0)
(-0.113311 -0.187536 0)
(-0.073187 -0.156832 0)
(-0.037606 -0.11267 0)
(-0.0117891 -0.0628222 0)
(-0.00097772 -0.0166112 0)
(-0.000698356 0.0236297 0)
(-0.00463875 0.0589504 0)
(-0.0123877 0.084529 0)
(-0.022238 0.102553 0)
(-0.0335374 0.114988 0)
(-0.0459049 0.123442 0)
(-0.0591035 0.129094 0)
(-0.0730332 0.132691 0)
(-0.0876812 0.134569 0)
(-0.103067 0.134699 0)
(-0.119195 0.132748 0)
(-0.136014 0.128141 0)
(-0.153381 0.120148 0)
(-0.17104 0.107976 0)
(-0.188601 0.0908831 0)
(-0.205544 0.068306 0)
(-0.221213 0.0399853 0)
(-0.234825 0.0060747 0)
(-0.245427 -0.0327678 0)
(-0.251919 -0.0752023 0)
(-0.253028 -0.119218 0)
(-0.247291 -0.161915 0)
(-0.233234 -0.19939 0)
(-0.209708 -0.226737 0)
(-0.17652 -0.238452 0)
(-0.135296 -0.229591 0)
(-0.0902303 -0.197911 0)
(-0.0478373 -0.146405 0)
(-0.0155024 -0.0840878 0)
(-0.00142123 -0.0233306 0)
(-0.000657511 0.0260655 0)
(-0.00445495 0.0650017 0)
(-0.0119731 0.0931669 0)
(-0.0215358 0.11299 0)
(-0.0324762 0.126678 0)
(-0.0443947 0.136048 0)
(-0.0570426 0.142449 0)
(-0.0703166 0.146742 0)
(-0.0842083 0.149323 0)
(-0.09875 0.150177 0)
(-0.11397 0.148939 0)
(-0.129852 0.14497 0)
(-0.146312 0.137444 0)
(-0.163169 0.125458 0)
(-0.180146 0.108152 0)
(-0.196859 0.0848417 0)
(-0.212826 0.0551398 0)
(-0.227449 0.019058 0)
(-0.23995 -0.0228976 0)
(-0.249385 -0.0696451 0)
(-0.254519 -0.119424 0)
(-0.253726 -0.169548 0)
(-0.24508 -0.216116 0)
(-0.226603 -0.253735 0)
(-0.196913 -0.275579 0)
(-0.156336 -0.274325 0)
(-0.108232 -0.244615 0)
(-0.0595599 -0.186997 0)
(-0.0200484 -0.110853 0)
(-0.00202132 -0.0321717 0)
(-0.000608998 0.0283801 0)
(-0.00422971 0.0708198 0)
(-0.0114401 0.101488 0)
(-0.0205821 0.123016 0)
(-0.0309607 0.13784 0)
(-0.0421469 0.147993 0)
(-0.0538721 0.154996 0)
(-0.0660215 0.159833 0)
(-0.0785839 0.162971 0)
(-0.0915986 0.164417 0)
(-0.105114 0.163791 0)
(-0.119154 0.160405 0)
(-0.133697 0.153368 0)
(-0.148661 0.141698 0)
(-0.163902 0.124453 0)
(-0.179211 0.100865 0)
(-0.19432 0.0704538 0)
(-0.208876 0.0331149 0)
(-0.222355 -0.0108374 0)
(-0.234073 -0.0606571 0)
(-0.242975 -0.114924 0)
(-0.247454 -0.17142 0)
(-0.245324 -0.226624 0)
(-0.233905 -0.275111 0)
(-0.210568 -0.30912 0)
(-0.17394 -0.318942 0)
(-0.125723 -0.295246 0)
(-0.0723231 -0.234235 0)
(-0.0254636 -0.143788 0)
(-0.0028225 -0.043606 0)
(-0.000562762 0.0305612 0)
(-0.00401414 0.0763693 0)
(-0.0108998 0.109408 0)
(-0.0195376 0.132478 0)
(-0.0291845 0.148239 0)
(-0.0393721 0.158948 0)
(-0.0498078 0.166309 0)
(-0.0603643 0.171437 0)
(-0.0710265 0.174878 0)
(-0.0818407 0.176675 0)
(-0.0928774 0.176449 0)
(-0.104206 0.173493 0)
(-0.11588 0.166879 0)
(-0.127928 0.155584 0)
(-0.140357 0.138628 0)
(-0.15315 0.115199 0)
(-0.166269 0.0847637 0)
(-0.179631 0.047123 0)
(-0.19306 0.00241558 0)
(-0.20614 -0.0489214 0)
(-0.218074 -0.105943 0)
(-0.227518 -0.167094 0)
(-0.232274 -0.229589 0)
(-0.229234 -0.288519 0)
(-0.21469 -0.33584 0)
(-0.185424 -0.359905 0)
(-0.140787 -0.347007 0)
(-0.0853443 -0.287025 0)
(-0.0317289 -0.183277 0)
(-0.00388417 -0.0581321 0)
(-0.00053446 0.0326314 0)
(-0.00388628 0.0816816 0)
(-0.0105197 0.116913 0)
(-0.0186435 0.141276 0)
(-0.0274395 0.157675 0)
(-0.0363953 0.168608 0)
(-0.0452 0.17598 0)
(-0.0537226 0.181043 0)
(-0.0619533 0.184436 0)
(-0.0699542 0.186251 0)
(-0.0778271 0.18613 0)
(-0.0856964 0.183372 0)
(-0.0937005 0.177049 0)
(-0.101991 0.166138 0)
(-0.110734 0.149657 0)
(-0.120111 0.126794 0)
(-0.130312 0.0969933 0)
(-0.141517 0.0599889 0)
(-0.153845 0.0157779 0)
(-0.167206 -0.0354346 0)
(-0.181156 -0.0932639 0)
(-0.194701 -0.156905 0)
(-0.205902 -0.224577 0)
(-0.211601 -0.292425 0)
(-0.207405 -0.352943 0)
(-0.188442 -0.393453 0)
(-0.151336 -0.396198 0)
(-0.0975357 -0.343209 0)
(-0.0387697 -0.229228 0)
(-0.00529425 -0.0762632 0)
(-0.000549059 0.0346659 0)
(-0.00396242 0.0868851 0)
(-0.0105397 0.124081 0)
(-0.0182355 0.149382 0)
(-0.0261245 0.165995 0)
(-0.0336569 0.176703 0)
(-0.0405238 0.183632 0)
(-0.0466148 0.18819 0)
(-0.0519475 0.19111 0)
(-0.0566177 0.192547 0)
(-0.0607743 0.192184 0)
(-0.0646092 0.189354 0)
(-0.0683564 0.183161 0)
(-0.0722949 0.172616 0)
(-0.0767501 0.156774 0)
(-0.0820923 0.134851 0)
(-0.0887225 0.1063 0)
(-0.097045 0.0708164 0)
(-0.107419 0.0282863 0)
(-0.120054 -0.0213147 0)
(-0.134861 -0.0780543 0)
(-0.151252 -0.141876 0)
(-0.167755 -0.21213 0)
(-0.181551 -0.28642 0)
(-0.188112 -0.35861 0)
(-0.181423 -0.416249 0)
(-0.15546 -0.438671 0)
(-0.107608 -0.399577 0)
(-0.0464667 -0.280889 0)
(-0.00719339 -0.098529 0)
(-0.000649006 0.0368197 0)
(-0.00441863 0.0922449 0)
(-0.0112988 0.131112 0)
(-0.0187633 0.156852 0)
(-0.02575 0.173101 0)
(-0.0316999 0.183002 0)
(-0.0363503 0.188936 0)
(-0.0396542 0.192473 0)
(-0.0416923 0.19445 0)
(-0.0426216 0.195089 0)
(-0.0426573 0.194129 0)
(-0.0420722 0.190959 0)
(-0.0412022 0.184741 0)
(-0.0404515 0.174551 0)
(-0.0402925 0.159503 0)
(-0.0412611 0.138865 0)
(-0.043939 0.112108 0)
(-0.0489118 0.0789047 0)
(-0.0567189 0.0390529 0)
(-0.0677908 -0.00766918 0)
(-0.0823274 -0.0616517 0)
(-0.100146 -0.12349 0)
(-0.12035 -0.193605 0)
(-0.140781 -0.271235 0)
(-0.157365 -0.352285 0)
(-0.163705 -0.42591 0)
(-0.151674 -0.470411 0)
(-0.1142 -0.452094 0)
(-0.0546474 -0.336683 0)
(-0.00980283 -0.125503 0)
(-0.000912515 0.0393759 0)
(-0.00553242 0.0982159 0)
(-0.0132779 0.138354 0)
(-0.0208139 0.163826 0)
(-0.0269332 0.178932 0)
(-0.0311379 0.187293 0)
(-0.0332884 0.191585 0)
(-0.0334668 0.193542 0)
(-0.0318649 0.194096 0)
(-0.0287335 0.193532 0)
(-0.0243746 0.191651 0)
(-0.0191508 0.187911 0)
(-0.0134989 0.181555 0)
(-0.00793708 0.17174 0)
(-0.00305616 0.157651 0)
(0.000471412 0.138605 0)
(0.00192067 0.114093 0)
(0.000576825 0.0837729 0)
(-0.00422813 0.0473759 0)
(-0.0130502 0.00454338 0)
(-0.0262986 -0.0453621 0)
(-0.0441466 -0.103404 0)
(-0.0662719 -0.170857 0)
(-0.0913683 -0.248502 0)
(-0.116329 -0.334632 0)
(-0.135262 -0.421261 0)
(-0.138886 -0.488014 0)
(-0.11592 -0.496252 0)
(-0.0630043 -0.394094 0)
(-0.0134311 -0.157837 0)
(-0.00149331 0.0428345 0)
(-0.00776027 0.105513 0)
(-0.0171624 0.14631 0)
(-0.0251277 0.170491 0)
(-0.0303606 0.183414 0)
(-0.032568 0.189337 0)
(-0.0318572 0.19126 0)
(-0.0285272 0.191063 0)
(-0.0229381 0.189741 0)
(-0.015467 0.187624 0)
(-0.00651701 0.184566 0)
(0.00345994 0.180093 0)
(0.0139393 0.173535 0)
(0.0243113 0.164139 0)
(0.0338849 0.151171 0)
(0.0419003 0.133987 0)
(0.0475553 0.112098 0)
(0.050053 0.0851351 0)
(0.0486555 0.0527702 0)
(0.0427128 0.0145474 0)
(0.0316612 -0.030341 0)
(0.0150794 -0.0832148 0)
(-0.00722993 -0.145909 0)
(-0.0348578 -0.220371 0)
(-0.0660042 -0.307247 0)
(-0.0961337 -0.402274 0)
(-0.116074 -0.488905 0)
(-0.111194 -0.527396 0)
(-0.0708642 -0.449555 0)
(-0.0183974 -0.196219 0)
(-0.00270265 0.0480809 0)
(-0.0118718 0.115195 0)
(-0.0239075 0.155595 0)
(-0.0325503 0.176974 0)
(-0.0366272 0.186339 0)
(-0.0363156 0.188756 0)
(-0.032151 0.187535 0)
(-0.0247575 0.18464 0)
(-0.0147205 0.181064 0)
(-0.00256888 0.177138 0)
(0.0111897 0.172741 0)
(0.0260257 0.167457 0)
(0.0413529 0.160693 0)
(0.0565085 0.151781 0)
(0.0707514 0.140063 0)
(0.083279 0.12495 0)
(0.0932566 0.105957 0)
(0.0998561 0.0826878 0)
(0.102297 0.0547482 0)
(0.0998629 0.0216 0)
(0.0918766 -0.0176333 0)
(0.0777066 -0.0643569 0)
(0.0567497 -0.12064 0)
(0.0285948 -0.189105 0)
(-0.00640468 -0.272271 0)
(-0.0457306 -0.369832 0)
(-0.0817694 -0.471315 0)
(-0.0978941 -0.540809 0)
(-0.0767526 -0.498196 0)
(-0.0247643 -0.241066 0)
(-0.00516602 0.0567158 0)
(-0.0191477 0.12872 0)
(-0.0347037 0.166746 0)
(-0.0437142 0.183073 0)
(-0.0456674 0.1871 0)
(-0.0416592 0.1848 0)
(-0.0328979 0.179679 0)
(-0.0204499 0.17364 0)
(-0.00517241 0.167571 0)
(0.0122464 0.161728 0)
(0.0312095 0.15597 0)
(0.0511411 0.149905 0)
(0.071437 0.143004 0)
(0.0914329 0.134672 0)
(0.110396 0.124318 0)
(0.127537 0.111402 0)
(0.142031 0.0954496 0)
(0.153053 0.0760383 0)
(0.159798 0.0527289 0)
(0.161493 0.0249452 0)
(0.157339 -0.00818807 0)
(0.146514 -0.0480363 0)
(0.128064 -0.0966027 0)
(0.100912 -0.156709 0)
(0.0641387 -0.231973 0)
(0.0178873 -0.325552 0)
(-0.0333688 -0.434264 0)
(-0.072681 -0.531504 0)
(-0.0778176 -0.533332 0)
(-0.0318196 -0.291986 0)
(-0.0100859 0.0717224 0)
(-0.0315558 0.147829 0)
(-0.0504146 0.17967 0)
(-0.0577379 0.187615 0)
(-0.0548858 0.18411 0)
(-0.0445489 0.175858 0)
(-0.0288945 0.166249 0)
(-0.00952451 0.156875 0)
(0.0124286 0.148344 0)
(0.0361544 0.140731 0)
(0.0610228 0.133805 0)
(0.0864796 0.127164 0)
(0.111972 0.120311 0)
(0.136905 0.112711 0)
(0.160622 0.103835 0)
(0.182405 0.0931895 0)
(0.201488 0.0803242 0)
(0.217078 0.064818 0)
(0.228363 0.0462253 0)
(0.234507 0.0239888 0)
(0.234562 -0.0026929 0)
(0.227521 -0.0350303 0)
(0.21211 -0.0747819 0)
(0.18672 -0.124555 0)
(0.149458 -0.188237 0)
(0.0984904 -0.271351 0)
(0.0338801 -0.377931 0)
(-0.0298292 -0.494414 0)
(-0.0693133 -0.546285 0)
(-0.0374657 -0.347497 0)
(-0.0195101 0.0983259 0)
(-0.0512666 0.173224 0)
(-0.0687055 0.19198 0)
(-0.0675659 0.18694 0)
(-0.0534985 0.173585 0)
(-0.0315287 0.158578 0)
(-0.00490165 0.144513 0)
(0.0243572 0.132237 0)
(0.0550141 0.121843 0)
(0.0863155 0.11309 0)
(0.117761 0.105588 0)
(0.148956 0.0988813 0)
(0.179516 0.0924861 0)
(0.209015 0.0859192 0)
(0.236952 0.078717 0)
(0.262749 0.0704481 0)
(0.285748 0.0607148 0)
(0.305225 0.0491368 0)
(0.320388 0.0353117 0)
(0.330357 0.0187568 0)
(0.334041 -0.00118718 0)
(0.330277 -0.0253972 0)
(0.317491 -0.055311 0)
(0.293676 -0.0930821 0)
(0.256204 -0.142152 0)
(0.201816 -0.208803 0)
(0.12728 -0.30277 0)
(0.0405225 -0.426484 0)
(-0.0436296 -0.527731 0)
(-0.0370847 -0.403103 0)
(-0.0350011 0.142568 0)
(-0.0746994 0.19785 0)
(-0.0709015 0.192702 0)
(-0.0448059 0.170373 0)
(-0.00788991 0.146755 0)
(0.0332802 0.126328 0)
(0.075371 0.109721 0)
(0.116809 0.0964994 0)
(0.15692 0.0860178 0)
(0.195474 0.0776529 0)
(0.232429 0.0708447 0)
(0.267776 0.0650918 0)
(0.30146 0.0599414 0)
(0.333338 0.0549831 0)
(0.363148 0.0498455 0)
(0.390512 0.0441946 0)
(0.41493 0.0377283 0)
(0.435786 0.0301628 0)
(0.452351 0.0212055 0)
(0.463753 0.0105095 0)
(0.468939 -0.00241576 0)
(0.466639 -0.0180539 0)
(0.455023 -0.0373675 0)
(0.43192 -0.0618928 0)
(0.394209 -0.0941806 0)
(0.338041 -0.139651 0)
(0.256997 -0.209867 0)
(0.152827 -0.324322 0)
(0.0153365 -0.465586 0)
(-0.0171469 -0.441633 0)
(-0.0378103 0.235385 0)
(-0.0488889 0.20243 0)
(0.0255231 0.151915 0)
(0.0971498 0.11653 0)
(0.164359 0.0905409 0)
(0.225284 0.0716556 0)
(0.279613 0.0581653 0)
(0.328013 0.0484654 0)
(0.37142 0.0413539 0)
(0.410714 0.0360222 0)
(0.446612 0.0319133 0)
(0.47965 0.0286144 0)
(0.510173 0.0258015 0)
(0.538348 0.0232103 0)
(0.564168 0.0206199 0)
(0.587465 0.0178427 0)
(0.607922 0.0147169 0)
(0.625078 0.0110964 0)
(0.638345 0.00684742 0)
(0.646903 0.00181181 0)
(0.649966 -0.0041242 0)
(0.646386 -0.0113752 0)
(0.634432 -0.0203441 0)
(0.612134 -0.0317488 0)
(0.576169 -0.0469118 0)
(0.522906 -0.0692777 0)
(0.442473 -0.107165 0)
(0.333307 -0.187728 0)
(0.143226 -0.335643 0)
(0.0605801 -0.412652 0)
(0.231208 0.158582 0)
(0.290882 0.116775 0)
(0.439622 0.0755678 0)
(0.537809 0.0502956 0)
(0.604452 0.0340998 0)
(0.653952 0.0235149 0)
(0.692467 0.0166968 0)
(0.723298 0.0123199 0)
(0.74871 0.00946754 0)
(0.770265 0.00756228 0)
(0.788994 0.00624796 0)
(0.805556 0.00529645 0)
(0.82036 0.00455436 0)
(0.83362 0.0039141 0)
(0.845403 0.00329738 0)
(0.85565 0.00264499 0)
(0.864199 0.00191151 0)
(0.870801 0.00105695 0)
(0.875135 5.7389e-05 0)
(0.876814 -0.00113317 0)
(0.875311 -0.00241812 0)
(0.869916 -0.00402837 0)
(0.859835 -0.00604732 0)
(0.844091 -0.00861522 0)
(0.820311 -0.0120064 0)
(0.786759 -0.0172828 0)
(0.731705 -0.0266476 0)
(0.655233 -0.0486786 0)
(0.453882 -0.109849 0)
(0.313131 -0.177398 0)
)
;

boundaryField
{
    movingWall
    {
        type            fixedValue;
        value           uniform (1 0 0);
    }
    fixedWalls
    {
        type            noSlip;
    }
    frontAndBack
    {
        type            empty;
    }
}


// ************************************************************************* //
