/*--------------------------------*- C++ -*----------------------------------*\
  =========                 |
  \\      /  F ield         | OpenFOAM: The Open Source CFD Toolbox
   \\    /   O peration     | Website:  https://openfoam.org
    \\  /    A nd           | Version:  7
     \\/     M anipulation  |
\*---------------------------------------------------------------------------*/
FoamFile
{
    version     2.0;
    format      ascii;
    class       surfaceScalarField;
    location    "0.76";
    object      phi;
}
// * * * * * * * * * * * * * * * * * * * * * * * * * * * * * * * * * * * * * //

dimensions      [0 3 -1 0 0 0 0];

internalField   nonuniform List<scalar> 
3784
(
-0.00238296
0.00238296
-0.00239937
1.64102e-05
-0.00105573
-0.00134364
-7.72363e-05
-0.00097849
0.000337245
-0.000414482
0.000769763
-0.000432518
0.00100486
-0.000235098
0.000752361
0.000252498
-5.25457e-05
0.000804907
-0.000945989
0.000893446
-0.00113241
0.000186421
-0.000146854
-0.000985558
0.00126905
-0.00141591
0.00196199
-0.000692937
0.00142459
0.000537403
4.71839e-05
0.00137741
-0.00111217
0.00115935
-0.00113372
2.15543e-05
-6.27393e-06
-0.00112745
0.00132227
-0.00132855
0.0014108
-8.85189e-05
7.38032e-05
0.00133699
-0.00132702
0.00140083
-0.0012736
-5.34199e-05
0.000107231
-0.00138084
0.00119682
-0.00108958
0.00115561
4.12022e-05
5.41232e-06
0.0011502
-0.00149012
0.00149553
-0.00184441
0.000354291
-0.000545781
-0.00129863
0.00103058
-0.00157636
0.0016014
-0.000570818
0.000831128
0.000770268
-0.000644298
0.00147542
-0.00157826
0.00093396
-0.00106295
-0.000515306
0.00040473
-0.00146768
0.00150889
-0.00110416
0.00122092
0.000287971
-0.000209541
0.00143046
-0.00146411
0.00125457
-0.00133689
-0.000127224
-0.00133689
-0.00326879
0.00565175
-0.00347818
0.000225798
-0.00115068
-0.00367114
-0.000138754
-0.00199042
0.000153687
-0.000706924
0.000802978
-0.00108181
0.00107567
-0.000507795
0.000717476
0.000610694
-4.03254e-05
0.00156271
-0.000820701
0.00167382
-0.00132361
0.000689332
-0.000346418
-0.00196275
0.00166
-0.00342233
0.00217526
-0.0012082
0.00125057
0.00146209
0.000137079
0.0024909
-0.00112883
0.00242527
-0.00160391
0.000496627
-1.56484e-05
-0.00271571
0.00170023
-0.00304442
0.0013181
0.000293612
6.71022e-05
0.00258799
-0.00122559
0.00269352
-0.00163541
0.000356403
0.000136724
-0.00315297
0.00171633
-0.0026692
0.00119015
0.000567391
-6.7319e-05
0.00240767
-0.00131292
0.00274114
-0.00210696
0.00114833
-0.000781712
-0.00262388
0.00150157
-0.00385964
0.00177606
-0.00084531
0.000666911
0.00187942
-0.000487338
0.00262967
-0.00167779
0.00212442
-0.00150365
-0.000689449
0.000619232
-0.00359057
0.00184649
-0.00233142
0.00104752
0.00108694
-0.000138131
0.00261611
-0.00135651
0.00247295
-0.00181916
0.000335427
-0.00315605
-0.0031457
0.00879745
-0.00373029
0.000810382
-0.00153304
-0.00586839
-0.000159339
-0.00336412
0.000265694
-0.00113196
0.000880208
-0.00169633
0.00118733
-0.000814915
0.000806153
0.000991878
-6.60643e-05
0.00243493
-0.00101575
0.00262351
-0.00160187
0.00127544
-0.000487889
-0.00307673
0.00179897
-0.00570918
0.00240587
-0.0018151
0.0011785
0.00268947
-0.000328481
0.00399788
-0.00167701
0.0037738
-0.00185986
0.000679474
0.000159472
-0.00473504
0.00206523
-0.00495018
0.00158085
0.000777992
4.6257e-05
0.00412258
-0.00151895
0.00425873
-0.00205148
0.000888929
-0.000118737
-0.00508571
0.00193936
-0.00472729
0.00174726
0.000759488
0.000382158
0.00377277
-0.0012307
0.00435399
-0.00235163
0.00226926
-0.00102346
-0.00395205
0.00161714
-0.00650023
0.00215304
-0.00138122
0.000869083
0.00316337
-0.000671874
0.00417063
-0.00205362
0.00350616
-0.00172402
-0.00101905
0.000756166
-0.00607075
0.00221791
-0.00379316
0.00133935
0.0019655
-0.000183673
0.00413913
-0.00170491
0.00399418
-0.00213356
0.000764077
-0.00528961
-0.00248555
0.011283
-0.00330244
0.00162728
-0.00189412
-0.00727671
-0.000614507
-0.00464373
1.18727e-05
-0.00175834
0.000536728
-0.00222118
0.000751302
-0.00102949
0.000454956
0.00128822
-0.000128488
0.00301837
-0.000717529
0.00321255
-0.00108027
0.00163819
-0.000320334
-0.00383667
0.00128241
-0.00731192
0.00165077
-0.00218347
0.000600929
0.00373931
-0.000555388
0.0051542
-0.00139479
0.0046132
-0.00130245
0.000587132
0.000228536
-0.00626602
0.00147581
-0.00619746
0.00104901
0.00120479
9.52163e-06
0.00516207
-0.00102117
0.00528942
-0.0014841
0.00135186
-0.000254394
-0.00631542
0.00134042
-0.00632211
0.0014499
0.00065001
0.000591149
0.00463152
-0.000529592
0.00547473
-0.0014973
0.00323697
-0.000790676
-0.00465867
0.00106365
-0.00835456
0.00153806
-0.00185562
0.000620844
0.00408059
-0.000491533
0.00528301
-0.00145644
0.00447108
-0.00119905
-0.00127645
0.000556392
-0.00782619
0.00156741
-0.00480418
0.000930676
0.00260223
-0.000127705
0.00519751
-0.00117787
0.00504435
-0.00147754
0.00106374
-0.00676715
-0.00178205
0.0130651
-0.00279979
0.00264502
-0.00215882
-0.00791768
-0.0011164
-0.00568616
-0.000368364
-0.00250638
3.49079e-05
-0.00262445
0.000175953
-0.00117053
6.92681e-06
0.00145725
-0.000228521
0.00325382
-0.000451466
0.0034355
-0.000564448
0.00175117
-0.000168546
-0.00423257
0.000682595
-0.00816306
0.000856116
-0.00235699
0.000132736
0.00446269
-0.000581141
0.00586807
-0.000931716
0.00496378
-0.000692142
0.00034756
0.000289956
-0.00724812
0.0008518
-0.0067593
0.000486104
0.00157049
-2.00455e-06
0.00565018
-0.000466011
0.00575343
-0.000863724
0.00174957
-0.000365642
-0.00681351
0.000684972
-0.00737272
0.000973974
0.000361009
0.000614512
0.00499098
4.30604e-05
0.00604619
-0.000632653
0.00391268
-0.000512451
-0.00477887
0.000469712
-0.00933672
0.000838656
-0.00222457
0.000343311
0.00457593
-0.000292192
0.00591851
-0.000778566
0.00495745
-0.000635086
-0.00141993
0.000343232
-0.00880451
0.000884393
-0.00534534
0.000469915
0.00301671
-8.13719e-05
0.0057488
-0.00059182
0.0055548
-0.000792609
0.00126453
-0.00755976
-0.000978659
0.0140437
-0.00215332
0.00381968
-0.00224947
-0.00782153
-0.00157725
-0.00635837
-0.000853574
-0.00323006
-0.000582373
-0.00289566
-0.000499837
-0.00125307
-0.000479689
0.0014371
-0.000354933
0.00312906
-0.000193569
0.00327414
-7.58576e-05
0.00163346
-5.80476e-05
-0.00425038
4.56968e-05
-0.00826681
3.92061e-05
-0.0023505
-0.000194711
0.00469661
-0.000345641
0.006019
-0.000290352
0.00490848
-2.9554e-05
8.67642e-05
0.000309584
-0.00758726
0.000216401
-0.00666612
-2.03726e-05
0.00180726
7.07767e-06
0.00562273
6.73749e-05
0.00569313
-0.000201271
0.00201822
-0.000390151
-0.00662463
6.53676e-06
-0.00776941
0.000351279
1.6267e-05
0.000422173
0.00492008
0.000433659
0.0060347
0.000188966
0.00415737
-0.000200953
-0.00438895
-0.000106678
-0.009431
8.06466e-05
-0.00241189
3.7908e-05
0.00461867
-4.30834e-05
0.0059995
-4.55997e-05
0.00495996
-4.0857e-05
-0.00142467
0.000117409
-0.00896277
0.000152657
-0.00538059
9.94346e-06
0.00315943
-3.57788e-05
0.00579452
-3.80066e-05
0.00555703
-0.000123296
0.00134982
-0.00768306
-9.16061e-05
0.0141353
-0.00123457
0.00496265
-0.0020641
-0.006992
-0.00190855
-0.00651393
-0.00135984
-0.00377876
-0.00121348
-0.00304202
-0.00115792
-0.00130862
-0.000915204
0.00119438
-0.000486273
0.00270013
-1.78502e-05
0.00280571
0.000281828
0.00133378
2.80631e-05
-0.00399662
-0.000549405
-0.00768934
-0.000685842
-0.00221406
-0.000415731
0.00442649
2.43133e-06
0.00560085
0.000421714
0.0044892
0.000614849
-0.000106371
0.000268848
-0.00724126
-0.000380488
-0.00601678
-0.000437472
0.00186425
2.68411e-05
0.00515842
0.000523309
0.00519667
0.000449151
0.00209238
-0.00030239
-0.00587308
-0.000599962
-0.00747184
-0.000319322
-0.000264374
0.000100658
0.0045001
0.000646873
0.00548848
0.000852622
0.00395162
0.000153511
-0.00368984
-0.000569242
-0.00870824
-0.000609809
-0.00237132
-0.000251509
0.00426037
0.000221705
0.00552629
0.000638472
0.0045432
0.000505351
-0.00129155
-0.000106265
-0.00835115
-0.000532531
-0.00495432
-0.000408136
0.00303503
6.53462e-06
0.00537985
0.000438464
0.0051251
0.000518068
0.00127022
-0.00716499
0.00093688
0.0131984
3.51021e-05
0.00586442
-0.00150844
-0.00544846
-0.00196202
-0.00606035
-0.00172705
-0.00401373
-0.00172161
-0.00304746
-0.00165657
-0.00137366
-0.0012364
0.000774208
-0.000582843
0.00204657
7.73869e-05
0.00214548
0.000539678
0.000871491
0.000105336
-0.00356227
-0.00103125
-0.00655275
-0.00130201
-0.0019433
-0.000589616
0.0037141
0.000278788
0.00473245
0.000936791
0.0038312
0.00110896
-0.000278539
0.000162714
-0.00629502
-0.000896823
-0.00495724
-0.00075083
0.00171826
3.65393e-05
0.00437105
0.000864776
0.00436843
0.00103453
0.00192262
-8.27408e-05
-0.00475581
-0.00102112
-0.00653346
-0.00080501
-0.000480484
-0.000158171
0.00385326
0.000740191
0.00459012
0.001306
0.00338582
0.000507495
-0.00289134
-0.000871688
-0.00732906
-0.00112311
-0.0021199
-0.000466252
0.00360351
0.000428701
0.00463134
0.00111055
0.00386134
0.000966645
-0.00114764
-0.000303393
-0.00708112
-0.00114274
-0.00411498
-0.000755049
0.00264735
4.2164e-05
0.00458264
0.000805562
0.0043617
0.00103469
0.00104109
-0.0061303
0.00194447
0.011254
0.00159082
0.00621807
-0.000503605
-0.00335404
-0.00158559
-0.00497837
-0.00177632
-0.00382299
-0.00193821
-0.00288557
-0.00187547
-0.00143639
-0.00136253
0.000261263
-0.000599002
0.00128304
0.000147047
0.00139944
0.000692742
0.000325796
0.000114652
-0.00298419
-0.00136052
-0.00507758
-0.00172954
-0.00157427
-0.000760331
0.00274489
0.000387565
0.00358455
0.00125702
0.00296174
0.00139305
-0.000414568
-3.46781e-06
-0.0048985
-0.00128474
-0.00367598
-0.000903422
0.00133695
3.41512e-05
0.00343348
0.00101867
0.00338391
0.00144158
0.00149972
0.000173098
-0.00348734
-0.0012378
-0.00512256
-0.00114066
-0.000577629
-0.000307189
0.00301979
0.000779995
0.00350294
0.00157962
0.00258619
0.000788989
-0.00210072
-0.00100425
-0.00553582
-0.0014326
-0.00169154
-0.000579256
0.00275016
0.000526688
0.00352539
0.00140579
0.00298224
0.0012398
-0.000981656
-0.000454799
-0.00538651
-0.00154315
-0.00302663
-0.000923493
0.00202769
8.06074e-05
0.00357854
0.00100477
0.00343753
0.00138859
0.000657273
-0.00474171
0.0025409
0.00871306
0.00299344
0.00576554
0.000828343
-0.00118895
-0.00073616
-0.00341386
-0.00138712
-0.00317203
-0.00175721
-0.00251548
-0.0017549
-0.0014387
-0.00126948
-0.000224161
-0.000531059
0.000544611
0.000202864
0.000665512
0.0006956
-0.000166937
4.12847e-05
-0.00232988
-0.00149037
-0.00354593
-0.00187017
-0.00119447
-0.000816818
0.00169154
0.00036279
0.00240495
0.00134446
0.00198007
0.00139131
-0.00046141
-0.000173628
-0.00333356
-0.0014401
-0.0024095
-0.000984063
0.000880908
2.10028e-05
0.00242841
0.00103766
0.00236725
0.00155639
0.000980988
0.000358825
-0.00228977
-0.00126426
-0.00349948
-0.00130247
-0.000539411
-0.000368418
0.00208573
0.000713732
0.00242079
0.00159252
0.0017074
0.00088549
-0.00139368
-0.000981627
-0.00366871
-0.00148419
-0.00118898
-0.000561045
0.00182702
0.000530571
0.00243378
0.00149949
0.00201333
0.00129027
-0.000772441
-0.000516973
-0.00357926
-0.00161746
-0.00192614
-0.000951043
0.00136126
0.000116382
0.00251111
0.00114897
0.00240494
0.00150851
0.000297735
-0.00323321
0.0024962
0.00621685
0.00355831
0.00470344
0.00200627
0.000363093
0.000371953
-0.00177954
-0.000610986
-0.00218908
-0.00118891
-0.00193756
-0.001322
-0.00130561
-0.000983148
-0.000563014
-0.000390746
-4.77938e-05
0.000228603
4.61572e-05
0.000567464
-0.0005058
-7.55033e-05
-0.00168691
-0.00139802
-0.00222342
-0.00170817
-0.000884316
-0.000803429
0.000786794
0.000260838
0.00134068
0.00116724
0.00107367
0.00111023
-0.0004044
-0.00028805
-0.00193529
-0.00133251
-0.00136505
-0.000940726
0.000489131
-1.13378e-06
0.00148882
0.0009159
0.00145022
0.00137033
0.000526555
0.000396625
-0.00131607
-0.00108697
-0.00201588
-0.0012333
-0.000393084
-0.000366777
0.00121921
0.000583038
0.00147097
0.00135205
0.000938389
0.000787744
-0.000829373
-0.000820062
-0.0020609
-0.00128712
-0.000721921
-0.000486943
0.00102684
0.000476459
0.00147038
0.00134948
0.0011403
0.00110073
-0.000523688
-0.000483784
-0.00199475
-0.00138297
-0.00102696
-0.00082189
0.000800186
0.000147321
0.0015419
0.00112034
0.00143192
0.00134968
6.83957e-05
-0.00188353
0.00204847
0.00416838
0.00329808
0.00345382
0.00250085
0.00116032
0.00127271
-0.000551394
0.000260416
-0.00117679
-0.000414378
-0.00126277
-0.000682182
-0.00103781
-0.000554175
-0.000691023
-0.000163613
-0.000438356
0.000259027
-0.000376485
0.000400568
-0.000647343
-0.000148809
-0.00113754
-0.00109044
-0.00128179
-0.0013158
-0.000658944
-0.000693323
0.000164314
0.000117071
0.000530288
0.000783522
0.000407222
0.00067875
-0.00029963
-0.000311515
-0.000945024
-0.0010229
-0.000653654
-0.00075038
0.000216612
-2.58117e-05
0.000764257
0.000673709
0.000750695
0.000974985
0.000225275
0.000296731
-0.000637816
-0.000774164
-0.000944984
-0.000948181
-0.000219066
-0.000310618
0.000581646
0.000414185
0.000746168
0.000945257
0.000407318
0.000545846
-0.000429962
-0.000569263
-0.000945795
-0.000923655
-0.000367526
-0.000365552
0.000468739
0.000362997
0.000741831
0.000984407
0.000518898
0.000745245
-0.00028453
-0.000368373
-0.000881128
-0.000973157
-0.000422173
-0.000589401
0.000416431
0.000148407
0.000804092
0.000885245
0.000695081
0.000981627
-2.79848e-05
-0.000901898
0.00129769
0.00287069
0.00237775
0.00237377
0.00231268
0.00122541
0.00158859
0.000172698
0.000830992
-0.00041919
0.000257193
-0.000688966
-3.94069e-05
-0.000741203
-5.24669e-05
-0.000677959
0.000110792
-0.00060162
0.000302261
-0.000567957
0.000289176
-0.000634256
-0.000109223
-0.000739143
-0.000668939
-0.000722076
-0.000836772
-0.000491107
-0.000511043
-0.000161413
-1.07497e-05
2.99933e-05
0.000377058
1.94104e-05
0.000289271
-0.000211843
-0.000259348
-0.000396401
-0.000649292
-0.000263706
-0.000498699
6.6019e-05
-4.22442e-05
0.000307797
0.000399565
0.000308882
0.000550064
7.47768e-05
0.000154297
-0.000242045
-0.000447965
-0.00034272
-0.000582014
-8.50172e-05
-0.000216642
0.000216273
0.000241901
0.000287623
0.000525917
0.000123303
0.000282308
-0.000186352
-0.000320473
-0.000343015
-0.000539483
-0.000148513
-0.000234165
0.000163423
0.00022215
0.000285515
0.000561083
0.000179965
0.000383437
-0.000106883
-0.000225356
-0.000272333
-0.000556425
-9.11026e-05
-0.000342998
0.000203004
0.000120909
0.000340183
0.000557873
0.000258112
0.000569001
-3.91156e-05
-0.000332894
0.000818633
0.00205205
0.00147171
0.00172069
0.00165521
0.0010419
0.0013611
0.000466807
0.00096349
-2.15719e-05
0.00060166
-0.000327139
0.000376459
-0.000516003
0.000298056
-0.00059955
0.000308927
-0.000612492
0.000324094
-0.000583135
0.000231301
-0.000541465
-1.02089e-05
-0.000497627
-0.00028788
-0.000444404
-0.000404999
-0.000373989
-0.00029084
-0.000275572
-6.72179e-05
-0.00019363
0.000106732
-0.000154539
5.90868e-05
-0.000164195
-0.000175346
-0.000161965
-0.000343617
-9.54364e-05
-0.000275953
-1.65089e-06
-4.57003e-05
7.75408e-05
0.000180587
8.25968e-05
0.000239381
1.5987e-05
5.44869e-05
-5.71492e-05
-0.000212668
-7.55672e-05
-0.00027788
-1.98072e-05
-0.000116899
5.52911e-05
0.000106766
6.39574e-05
0.000220801
9.26951e-06
9.97011e-05
-6.52502e-05
-0.000151134
-9.21811e-05
-0.000256146
-4.35011e-05
-0.000125461
3.27406e-05
9.73242e-05
6.27298e-05
0.000237398
3.98931e-05
0.000140924
-1.04071e-05
-0.000113212
-1.81958e-05
-0.000246942
4.26276e-05
-0.000146326
0.000102385
8.50633e-05
0.000108792
0.000280599
6.25754e-05
0.000258248
-1.67689e-05
-7.46467e-05
0.00056826
0.00148379
0.00095013
0.00133883
0.00109203
0.000899991
0.00104951
0.000509331
0.000851657
0.000176292
0.0006636
-0.000139076
0.000509151
-0.000361557
0.000403955
-0.000494357
0.000331943
-0.000540479
0.000263295
-0.00051449
0.000171796
-0.000449969
5.49729e-05
-0.0003808
-5.56927e-05
-0.000333735
-0.000120005
-0.000309678
-0.000109433
-0.000286144
-5.42981e-05
-0.00024876
-1.19575e-05
-0.000196876
-3.48849e-05
-0.000141268
-0.000105659
-9.11945e-05
-0.000150151
-5.09487e-05
-0.000122756
-2.90486e-05
-3.30409e-05
-1.2174e-05
5.25345e-05
-2.97622e-06
6.91403e-05
-6.17037e-07
1.08031e-05
1.18694e-06
-6.93204e-05
4.5528e-06
-9.53928e-05
6.26423e-06
-4.58829e-05
5.78382e-06
2.88258e-05
-1.0751e-05
5.66691e-05
-1.85758e-05
1.28669e-05
-2.14472e-05
-6.3617e-05
-1.56963e-05
-9.70552e-05
-1.00619e-05
-5.62925e-05
-8.01922e-06
1.66789e-05
-1.02389e-05
5.6704e-05
-1.29298e-07
2.46548e-05
2.16417e-05
-4.273e-05
4.91878e-05
-6.6546e-05
6.6445e-05
-2.18206e-05
5.76594e-05
5.64438e-05
3.05244e-05
0.000110951
8.06903e-06
8.8428e-05
5.75312e-06
1.37785e-05
0.000438248
0.00104553
0.000745759
0.00103131
0.00087039
0.000775363
0.00087288
0.000506839
0.000805891
0.000243281
0.000661005
5.81538e-06
0.000518649
-0.000219201
0.000384293
-0.000360006
0.000266706
-0.000422894
0.000174519
-0.000422301
0.000105371
-0.000380819
5.67519e-05
-0.000332181
2.15088e-05
-0.000298491
-6.82286e-06
-0.000281343
-2.63872e-05
-0.000266575
-3.75149e-05
-0.000237628
-4.51556e-05
-0.000189236
-5.42972e-05
-0.000132131
-6.17824e-05
-8.3714e-05
-5.78867e-05
-5.48465e-05
-4.33419e-05
-4.35932e-05
-1.83411e-05
-3.71733e-05
4.9406e-06
-2.62582e-05
1.06957e-05
-6.37403e-06
1.89631e-06
9.98551e-06
-1.02646e-05
1.6713e-05
-1.47328e-05
1.07317e-05
-4.3509e-06
-4.59679e-06
2.8986e-06
-1.80007e-05
1.94165e-06
-1.76216e-05
-1.02782e-05
-9.2267e-06
-2.32688e-05
-2.70125e-06
-2.61485e-05
-7.17889e-06
-1.9377e-05
-1.47902e-05
-1.38683e-05
-1.57478e-05
-1.21395e-05
-1.85571e-06
-1.34067e-05
2.29122e-05
-9.79392e-06
4.55748e-05
4.13012e-06
5.25209e-05
2.32343e-05
3.85578e-05
3.58504e-05
1.79063e-05
3.38888e-05
1.00268e-05
1.8428e-05
2.12156e-05
3.22076e-05
0.000333106
0.000712424
0.000615329
0.000749089
0.000769202
0.000621494
0.000817691
0.000458352
0.000785708
0.000275261
0.000700935
9.05885e-05
0.000557867
-7.61299e-05
0.000407598
-0.000209737
0.000270679
-0.000285975
0.000162336
-0.000313955
9.1398e-05
-0.00030988
5.14812e-05
-0.000292264
2.7598e-05
-0.000274603
6.07877e-06
-0.000259816
-1.82924e-05
-0.000242199
-4.13779e-05
-0.000214546
-5.50796e-05
-0.000175542
-5.51332e-05
-0.000132081
-4.40518e-05
-9.4795e-05
-2.90369e-05
-6.98619e-05
-1.70298e-05
-5.56019e-05
-9.75431e-06
-4.44492e-05
-5.74017e-06
-3.02734e-05
1.12707e-06
-1.32439e-05
8.48097e-06
2.63107e-06
1.63533e-05
8.84158e-06
2.21063e-05
4.97706e-06
2.0653e-05
-3.14567e-06
1.21735e-05
-9.52109e-06
4.07131e-06
-9.51821e-06
3.34118e-07
-5.48697e-06
1.21112e-06
-3.57496e-06
6.32895e-07
-6.5987e-06
-4.1598e-06
-9.99816e-06
-1.1243e-05
-8.66611e-06
-1.51153e-05
2.01812e-06
-1.02515e-05
1.80553e-05
3.35283e-06
3.19765e-05
1.9736e-05
3.61352e-05
2.75324e-05
3.07578e-05
2.25746e-05
2.28641e-05
1.02202e-05
2.23787e-05
1.53591e-06
2.98998e-05
3.37464e-05
0.000236044
0.000476383
0.000466406
0.000518724
0.000629718
0.00045818
0.000718823
0.000369248
0.000736546
0.000257539
0.000692655
0.000134481
0.000601843
1.46863e-05
0.000477902
-8.57935e-05
0.000351805
-0.000159877
0.000242373
-0.000204523
0.000158299
-0.000225805
9.86537e-05
-0.000232615
5.52062e-05
-0.00023115
1.94586e-05
-0.000224064
-1.21598e-05
-0.000210582
-3.72415e-05
-0.000189471
-5.10379e-05
-0.000161749
-5.13118e-05
-0.000131807
-4.15496e-05
-0.000104557
-2.86328e-05
-8.27813e-05
-1.85277e-05
-6.57089e-05
-1.2224e-05
-5.07524e-05
-6.82767e-06
-3.56703e-05
1.22321e-06
-2.1298e-05
1.31171e-05
-9.26521e-06
2.5453e-05
-3.49531e-06
3.241e-05
-1.98178e-06
3.20613e-05
-2.79797e-06
2.66831e-05
-4.14071e-06
2.08966e-05
-3.72834e-06
1.78517e-05
-2.43987e-06
1.63232e-05
-2.04705e-06
1.28289e-05
-3.10649e-06
6.08281e-06
-3.25259e-06
-2.10206e-06
-4.78152e-07
-6.37431e-06
6.29404e-06
-3.40381e-06
1.50867e-05
5.49145e-06
2.30862e-05
1.42493e-05
2.73784e-05
1.69715e-05
2.80288e-05
1.18838e-05
2.79502e-05
4.19586e-06
3.00695e-05
-4.13704e-07
3.45105e-05
3.33327e-05
0.000159393
0.000316992
0.000327456
0.000350657
0.000465925
0.000319708
0.000563845
0.00027133
0.000614202
0.000207184
0.000615992
0.000132693
0.00057497
5.57095e-05
0.000501449
-1.22707e-05
0.000414129
-7.25577e-05
0.000325641
-0.000116035
0.000245382
-0.000145545
0.000176407
-0.000163636
0.000118091
-0.00017283
6.85281e-05
-0.000174502
2.71799e-05
-0.000169239
-4.60115e-06
-0.000157693
-2.49298e-05
-0.000141419
-3.4007e-05
-0.000122729
-3.45339e-05
-0.000104034
-3.05566e-05
-8.67604e-05
-2.51647e-05
-7.10994e-05
-1.94453e-05
-5.64727e-05
-1.24564e-05
-4.26639e-05
-3.49838e-06
-3.02598e-05
7.42023e-06
-2.01858e-05
1.70369e-05
-1.31144e-05
2.3598e-05
-8.54406e-06
2.64094e-05
-5.6071e-06
2.58025e-05
-3.53123e-06
2.373e-05
-1.65582e-06
2.14371e-05
-1.48073e-07
1.85689e-05
8.20122e-07
1.38963e-05
1.56496e-06
7.77773e-06
2.86444e-06
1.71988e-06
5.58185e-06
-2.06911e-06
1.00894e-05
-2.3039e-06
1.53201e-05
4.43899e-07
2.03351e-05
3.47534e-06
2.43508e-05
4.1942e-06
2.73114e-05
2.27297e-06
2.98701e-05
-2.83461e-07
3.26277e-05
-1.14807e-06
3.53773e-05
3.21836e-05
0.000107642
0.000209348
0.000224964
0.000233332
0.000328723
0.00021595
0.000411439
0.000188616
0.000466597
0.000152025
0.000490566
0.000108723
0.00048373
6.2545e-05
0.000453828
1.7632e-05
0.000401884
-2.06135e-05
0.000343343
-5.74914e-05
0.000282308
-8.45085e-05
0.000222892
-0.000104218
0.000167297
-0.000117236
0.000116913
-0.00012412
7.30552e-05
-0.000125382
3.70944e-05
-0.00012173
9.88735e-06
-0.00011421
-8.75578e-06
-0.000104089
-2.01639e-05
-9.263e-05
-2.62214e-05
-8.07011e-05
-2.85226e-05
-6.87952e-05
-2.78796e-05
-5.71203e-05
-2.45649e-05
-4.5986e-05
-1.90694e-05
-3.57568e-05
-1.23442e-05
-2.69103e-05
-5.83138e-06
-1.96297e-05
-5.90753e-07
-1.37855e-05
2.87791e-06
-9.07259e-06
4.56359e-06
-5.21511e-06
4.96971e-06
-2.06331e-06
4.39634e-06
4.22144e-07
2.7546e-06
2.45949e-06
-2.17217e-07
4.53925e-06
-4.14701e-06
6.79526e-06
-8.04017e-06
9.47133e-06
-1.03181e-05
1.23707e-05
-1.09561e-05
1.59615e-05
-1.02791e-05
1.96536e-05
-8.93193e-06
2.3003e-05
-7.63639e-06
2.60207e-05
-6.50606e-06
2.87423e-05
-5.03703e-06
3.11582e-05
-2.72522e-06
3.30642e-05
2.94573e-05
7.38396e-05
0.000135506
0.000155331
0.000151838
0.000229435
0.000141846
0.000291717
0.000126331
0.000338071
0.000105666
0.000365782
8.10083e-05
0.000374271
5.40547e-05
0.000365121
2.67818e-05
0.000344059
4.48594e-07
0.000308022
-2.14541e-05
0.000267198
-4.36846e-05
0.00022337
-6.03908e-05
0.000179039
-7.2907e-05
0.000136246
-8.13281e-05
9.67197e-05
-8.58549e-05
6.18464e-05
-8.6855e-05
3.25071e-05
-8.48715e-05
8.96984e-06
-8.05551e-05
-9.10561e-06
-7.45564e-05
-2.23399e-05
-6.74659e-05
-3.14306e-05
-5.97063e-05
-3.69082e-05
-5.16491e-05
-3.93429e-05
-4.35554e-05
-3.92773e-05
-3.58216e-05
-3.75229e-05
-2.86654e-05
-3.49203e-05
-2.22347e-05
-3.21437e-05
-1.65609e-05
-2.96418e-05
-1.15731e-05
-2.76064e-05
-7.25245e-06
-2.61222e-05
-3.54694e-06
-2.52994e-05
-4.00273e-07
-2.52559e-05
2.41107e-06
-2.56752e-05
4.95888e-06
-2.63431e-05
7.46833e-06
-2.69155e-05
1.00408e-05
-2.69772e-05
1.24297e-05
-2.58454e-05
1.48343e-05
-2.3969e-05
1.7779e-05
-2.13518e-05
2.03835e-05
-1.8093e-05
2.27613e-05
-1.4237e-05
2.48874e-05
-9.76418e-06
2.66855e-05
-4.71935e-06
2.80188e-05
2.47386e-05
5.11806e-05
8.43239e-05
0.000108061
9.49567e-05
0.000160566
8.93388e-05
0.000206132
8.07614e-05
0.00024236
6.94328e-05
0.000267515
5.58525e-05
0.000280856
4.07157e-05
0.000282764
2.48757e-05
0.000273961
9.25303e-06
0.000257937
-5.42947e-06
0.000233236
-1.8983e-05
0.000203996
-3.11507e-05
0.000171994
-4.09047e-05
0.000138985
-4.83175e-05
0.000106524
-5.33929e-05
7.59037e-05
-5.62347e-05
4.80783e-05
-5.7048e-05
2.36356e-05
-5.61131e-05
2.83078e-06
-5.37507e-05
-1.43589e-05
-5.02773e-05
-2.80833e-05
-4.59864e-05
-3.85945e-05
-4.11408e-05
-4.61168e-05
-3.60309e-05
-5.11179e-05
-3.08189e-05
-5.40779e-05
-2.57087e-05
-5.54796e-05
-2.0834e-05
-5.57594e-05
-1.62755e-05
-5.52373e-05
-1.20934e-05
-5.42261e-05
-8.26804e-06
-5.29431e-05
-4.8284e-06
-5.15623e-05
-1.77584e-06
-5.01403e-05
9.85979e-07
-4.86262e-05
3.44156e-06
-4.70003e-05
5.84741e-06
-4.49895e-05
8.03222e-06
-4.25419e-05
9.97955e-06
-3.97093e-05
1.2003e-05
-3.58911e-05
1.39646e-05
-3.13031e-05
1.57968e-05
-2.59946e-05
1.74519e-05
-2.00054e-05
1.88975e-05
-1.34036e-05
2.00839e-05
-6.32257e-06
2.09384e-05
1.84175e-05
3.30361e-05
5.12843e-05
7.0051e-05
5.79382e-05
0.000104632
5.47548e-05
0.000135427
4.99594e-05
0.000161185
4.36715e-05
0.00018091
3.61278e-05
0.000193988
2.76391e-05
0.000200283
1.8581e-05
0.000200177
9.35809e-06
0.00019441
3.37039e-07
0.000183355
-7.92889e-06
0.000167953
-1.57493e-05
0.000149394
-2.23473e-05
0.000128789
-2.77135e-05
0.00010717
-3.17751e-05
8.54579e-05
-3.45258e-05
6.44283e-05
-3.6021e-05
4.4682e-05
-3.63674e-05
2.6638e-05
-3.57065e-05
1.05568e-05
-3.4199e-05
-3.42113e-06
-3.2013e-05
-1.52453e-05
-2.93171e-05
-2.50119e-05
-2.62603e-05
-3.2831e-05
-2.29982e-05
-3.88876e-05
-1.96556e-05
-4.33916e-05
-1.63302e-05
-4.65593e-05
-1.31019e-05
-4.86219e-05
-1.00283e-05
-4.97465e-05
-7.14694e-06
-5.00929e-05
-4.48105e-06
-4.98899e-05
-1.97328e-06
-4.90798e-05
1.76003e-07
-4.78289e-05
2.18742e-06
-4.602e-05
4.04039e-06
-4.37186e-05
5.73415e-06
-4.10139e-05
7.2748e-06
-3.7694e-05
8.68234e-06
-3.3746e-05
1.0018e-05
-2.91739e-05
1.12266e-05
-2.40153e-05
1.22943e-05
-1.83225e-05
1.3205e-05
-1.21723e-05
1.39339e-05
-5.67886e-06
1.44455e-05
1.27383e-05
2.10825e-05
3.02002e-05
4.49296e-05
3.4092e-05
6.74501e-05
3.22344e-05
8.79366e-05
2.94706e-05
0.000105743
2.58668e-05
0.000120332
2.15443e-05
0.000131316
1.66588e-05
0.000138498
1.13995e-05
0.000141892
5.96385e-06
0.000141644
5.85581e-07
0.000138239
-4.52282e-06
0.000131738
-9.24793e-06
0.000122792
-1.3401e-05
0.000111952
-1.68748e-05
9.97771e-05
-1.9602e-05
8.68036e-05
-2.15543e-05
7.35214e-05
-2.27399e-05
6.03547e-05
-2.31998e-05
4.76498e-05
-2.30004e-05
3.56756e-05
-2.22256e-05
2.4631e-05
-2.09704e-05
1.46494e-05
-1.9334e-05
5.80852e-06
-1.74147e-05
-1.88104e-06
-1.53063e-05
-8.44561e-06
-1.30924e-05
-1.3927e-05
-1.0848e-05
-1.83914e-05
-8.63229e-06
-2.19167e-05
-6.49994e-06
-2.45996e-05
-4.4652e-06
-2.65937e-05
-2.48625e-06
-2.77605e-05
-8.02098e-07
-2.83651e-05
7.82359e-07
-2.8407e-05
2.2278e-06
-2.80079e-05
3.64127e-06
-2.70189e-05
4.74666e-06
-2.55399e-05
5.79612e-06
-2.36166e-05
6.75797e-06
-2.12234e-05
7.62402e-06
-1.83888e-05
8.39209e-06
-1.51526e-05
9.05846e-06
-1.15636e-05
9.61607e-06
-7.68441e-06
1.00545e-05
-3.59598e-06
1.03563e-05
9.14013e-06
1.47718e-05
1.54276e-05
3.15685e-05
1.72959e-05
4.75699e-05
1.62317e-05
6.23675e-05
1.46705e-05
7.5577e-05
1.26599e-05
8.6869e-05
1.0256e-05
9.59883e-05
7.53997e-06
0.000102774
4.61296e-06
0.000107129
1.60781e-06
0.000109116
-1.40255e-06
0.000108859
-4.26631e-06
0.000106542
-6.93196e-06
0.000102396
-9.25643e-06
9.671e-05
-1.11899e-05
8.97938e-05
-1.26878e-05
8.19641e-05
-1.37266e-05
7.35289e-05
-1.43053e-05
6.47751e-05
-1.44447e-05
5.59546e-05
-1.41781e-05
4.72815e-05
-1.35526e-05
3.89348e-05
-1.26245e-05
3.10588e-05
-1.14565e-05
2.37576e-05
-1.011e-05
1.70996e-05
-8.64655e-06
1.11178e-05
-7.11146e-06
5.83578e-06
-5.56558e-06
1.25404e-06
-4.04701e-06
-2.66187e-06
-2.58131e-06
-5.91266e-06
-1.21468e-06
-8.47245e-06
7.39099e-08
-1.05192e-05
1.24747e-06
-1.20407e-05
2.30565e-06
-1.30644e-05
3.25085e-06
-1.35185e-05
4.09434e-06
-1.35971e-05
4.8252e-06
-1.32816e-05
5.48013e-06
-1.25783e-05
6.05313e-06
-1.15116e-05
6.55517e-06
-1.01134e-05
6.99182e-06
-8.42163e-06
7.36474e-06
-6.48011e-06
7.6724e-06
-4.33894e-06
7.91082e-06
-2.05835e-06
8.07288e-06
7.07949e-06
1.05044e-05
4.92607e-06
2.24035e-05
5.39992e-06
3.37764e-05
4.85899e-06
4.44382e-05
4.00852e-06
5.40989e-05
3.00309e-06
6.2559e-05
1.79875e-06
6.96155e-05
4.84066e-07
7.51539e-05
-9.24992e-07
7.90823e-05
-2.32043e-06
8.12776e-05
-3.59818e-06
8.20654e-05
-5.05418e-06
8.13614e-05
-6.22752e-06
7.93061e-05
-7.20042e-06
7.60608e-05
-7.94438e-06
7.18129e-05
-8.44009e-06
6.67606e-05
-8.67466e-06
6.11028e-05
-8.64695e-06
5.5044e-05
-8.38388e-06
4.87622e-05
-7.89408e-06
4.24181e-05
-7.20784e-06
3.61554e-05
-6.36209e-06
3.01054e-05
-5.4057e-06
2.43591e-05
-4.36146e-06
1.90339e-05
-3.32035e-06
1.40949e-05
-2.17326e-06
9.63745e-06
-1.10819e-06
5.65731e-06
-6.44526e-08
2.23075e-06
8.47674e-07
-6.7542e-07
1.69199e-06
-3.11902e-06
2.5179e-06
-5.11349e-06
3.24378e-06
-6.66145e-06
3.8553e-06
-7.78543e-06
4.37477e-06
-8.50117e-06
4.80906e-06
-8.84757e-06
5.17071e-06
-8.83911e-06
5.47065e-06
-8.50104e-06
5.71333e-06
-7.86261e-06
5.91422e-06
-6.95602e-06
6.08216e-06
-5.81731e-06
6.22266e-06
-4.48674e-06
6.33824e-06
-3.00846e-06
6.42879e-06
-1.42992e-06
6.49068e-06
5.64821e-06
6.90875e-06
-1.98019e-06
1.47276e-05
-2.41727e-06
2.22434e-05
-2.65774e-06
2.92004e-05
-2.94861e-06
3.54955e-05
-3.28939e-06
4.09628e-05
-3.66788e-06
4.55088e-05
-4.06182e-06
4.90302e-05
-4.44536e-06
5.14981e-05
-4.78816e-06
5.2972e-05
-5.07245e-06
5.32245e-05
-5.30628e-06
5.24338e-05
-5.43549e-06
5.06828e-05
-5.44786e-06
4.80732e-05
-5.3336e-06
4.47257e-05
-5.09226e-06
4.07807e-05
-4.72993e-06
3.63813e-05
-4.24739e-06
3.16794e-05
-3.68095e-06
2.68343e-05
-3.04791e-06
2.19576e-05
-2.33128e-06
1.71285e-05
-1.53404e-06
1.254e-05
-8.17508e-07
8.20732e-06
-2.80105e-08
4.14221e-06
7.45098e-07
4.89246e-07
1.47887e-06
-2.76859e-06
2.14941e-06
-5.57973e-06
2.74837e-06
-7.99301e-06
3.26306e-06
-9.99618e-06
3.69597e-06
-1.1538e-05
4.05997e-06
-1.26401e-05
4.34678e-06
-1.3339e-05
4.55515e-06
-1.36551e-05
4.69089e-06
-1.36188e-05
4.77196e-06
-1.32496e-05
4.8005e-06
-1.25693e-05
4.78936e-06
-1.16127e-05
4.75567e-06
-1.04068e-05
4.70664e-06
-8.97941e-06
4.65266e-06
-7.36249e-06
4.60314e-06
-5.59153e-06
4.56433e-06
-3.70168e-06
4.53584e-06
-1.72907e-06
4.51509e-06
3.91832e-06
3.57556e-06
-5.55356e-06
7.61077e-06
-6.45053e-06
1.14459e-05
-6.49279e-06
1.49453e-05
-6.44656e-06
1.79934e-05
-6.3353e-06
2.04843e-05
-6.15898e-06
2.23304e-05
-5.90709e-06
2.34611e-05
-5.57416e-06
2.38456e-05
-5.1718e-06
2.34758e-05
-4.70226e-06
2.23379e-05
-4.16748e-06
2.04772e-05
-3.57332e-06
1.79749e-05
-2.9442e-06
1.49376e-05
-2.29537e-06
1.14315e-05
-1.58638e-06
7.57995e-06
-8.79406e-07
3.42041e-06
-8.89484e-08
-7.82392e-07
5.21399e-07
-4.90332e-06
1.0728e-06
-8.92464e-06
1.68912e-06
-1.27227e-05
2.26259e-06
-1.63129e-05
2.77194e-06
-1.9564e-05
3.22349e-06
-2.24219e-05
3.60331e-06
-2.48409e-05
3.89746e-06
-2.67976e-05
4.1059e-06
-2.82763e-05
4.22838e-06
-2.92806e-05
4.26901e-06
-2.98187e-05
4.23491e-06
-2.98951e-05
4.13653e-06
-2.95296e-05
3.9816e-06
-2.87511e-05
3.77719e-06
-2.75908e-05
3.53082e-06
-2.60697e-05
3.25058e-06