/*--------------------------------*- C++ -*----------------------------------*\
  =========                 |
  \\      /  F ield         | OpenFOAM: The Open Source CFD Toolbox
   \\    /   O peration     | Website:  https://openfoam.org
    \\  /    A nd           | Version:  7
     \\/     M anipulation  |
\*---------------------------------------------------------------------------*/
FoamFile
{
    version     2.0;
    format      ascii;
    class       surfaceScalarField;
    location    "1.19";
    object      phi;
}
// * * * * * * * * * * * * * * * * * * * * * * * * * * * * * * * * * * * * * //

dimensions      [0 3 -1 0 0 0 0];

internalField   nonuniform List<scalar> 
3784
(
-0.0021099
0.0021099
-0.00290156
0.000791659
-0.00204836
-0.000853193
-0.00031659
-0.00173177
0.00057451
-0.000891102
0.000645872
-7.13612e-05
0.000445946
0.000199926
8.63611e-05
0.000359583
-0.000346053
0.000432414
-0.00071775
0.000371698
-0.000814803
9.70539e-05
-0.000354648
-0.000460157
0.000624689
-0.000979338
0.00132436
-0.000699664
0.000935426
0.000388931
-0.000435166
0.00137059
-0.00167623
0.00124107
-0.00138141
-0.000294826
0.000292818
-0.00167423
0.00172224
-0.00142942
0.00204938
-0.000327144
0.00118346
0.000865924
-0.000185848
0.0013693
-0.0010115
0.00082565
-0.000698857
-0.000312641
0.00043331
-0.00113217
0.0010998
-0.00066649
0.00034212
0.000757681
-0.00119955
0.00154167
-0.00189685
0.000697306
-0.000827718
-0.00106914
0.000893215
-0.00172093
0.00179718
-0.000903967
0.00144349
0.00035369
0.00017266
0.00127083
-0.00100818
0.00118084
-0.000896912
-0.000111272
0.000237559
-0.00113447
0.00108231
-0.000844748
0.000768298
0.00031401
-0.000582389
0.00135069
-0.00181129
0.0012289
-0.00157111
-0.000240182
-0.00157111
-0.00293338
0.00504328
-0.00410027
0.00195855
-0.00245377
-0.00249969
-0.00029868
-0.00388687
0.000449485
-0.00163927
0.000541722
-0.000163597
0.000394499
0.000347148
6.04154e-05
0.000693664
-0.000326409
0.000819239
-0.000700927
0.000746217
-0.000965027
0.000361153
-0.000563872
-0.00086131
0.000766928
-0.00231014
0.00159735
-0.00153009
0.000865414
0.00112087
-0.000409471
0.00264548
-0.00155999
0.00239159
-0.00170487
-0.00014994
0.000352557
-0.00373166
0.00223809
-0.00331495
0.00201678
-0.000105837
0.0010711
0.00181161
-1.24903e-05
0.00245289
-0.00122715
0.00204032
-0.00109427
-0.000445526
0.000664576
-0.00289101
0.00131909
-0.001321
0.00018369
0.00189308
-0.00105545
0.00278081
-0.00199733
0.00163918
-0.00116138
-0.00190508
0.00127943
-0.00416174
0.00204898
-0.00167352
0.00124289
0.00115978
0.000257572
0.00225615
-0.00102661
0.00246503
-0.00126595
0.000128061
0.000357829
-0.00275825
0.00146936
-0.00195628
0.000673215
0.00111015
-0.000538215
0.00256212
-0.001658
0.00234869
-0.00201819
0.000120008
-0.0035893
-0.00309964
0.00814292
-0.00427636
0.00313527
-0.00245475
-0.00432131
-9.09682e-05
-0.00625064
0.000645732
-0.00237597
0.000643279
-0.00016115
0.000397095
0.000593332
-3.04088e-05
0.00112117
-0.000524813
0.00131364
-0.000986042
0.00120744
-0.00121191
0.000587023
-0.000574985
-0.00149824
0.00103468
-0.0039198
0.00200276
-0.00249817
0.00129956
0.00182406
-7.46011e-05
0.00401964
-0.00150507
0.00382205
-0.00193881
0.000283805
0.000153364
-0.00582383
0.00233256
-0.00549414
0.00205905
0.000167677
0.000680184
0.00319047
-0.000663782
0.00379686
-0.00176068
0.00313721
-0.00124834
-0.000957866
0.000911347
-0.0050507
0.00179907
-0.00220873
0.000708165
0.00298398
-0.000766199
0.00425517
-0.00210085
0.00297383
-0.00143124
-0.0025747
0.00123265
-0.00682562
0.00220322
-0.00264409
0.00113611
0.00222689
-0.00022376
0.00361602
-0.00155814
0.00379941
-0.00162009
0.000190014
0.000338981
-0.00471732
0.00183969
-0.00345699
0.00126876
0.00168108
-7.83243e-05
0.00390921
-0.00159583
0.0038662
-0.00216352
0.000687699
-0.00575282
-0.0026332
0.0107761
-0.00358986
0.00409194
-0.00210807
-0.0058031
-0.000429069
-0.00792964
0.000177889
-0.00298293
0.000292313
-0.000275572
0.000121065
0.00076458
-0.00021855
0.00146079
-0.000594815
0.00168991
-0.000890727
0.00150336
-0.000932983
0.000629279
-0.000309255
-0.00212196
0.000927586
-0.00515664
0.00160133
-0.00317191
0.00116619
0.00225919
0.000323789
0.00486204
-0.000646751
0.00479259
-0.00119073
0.000827784
2.10527e-05
-0.00703561
0.00152834
-0.00700143
0.00122192
0.000474096
4.79484e-05
0.00436444
-0.000896074
0.00474088
-0.0014615
0.00370264
-0.000890306
-0.00152906
0.000707013
-0.00664802
0.00138381
-0.00288553
0.000793584
0.00357421
-9.52694e-05
0.00514402
-0.00118495
0.00406352
-0.00102206
-0.00273759
0.000717882
-0.00856556
0.00138465
-0.00331086
0.000490447
0.00312109
-0.000538469
0.00464494
-0.00131619
0.00457713
-0.00122684
0.000100662
0.000197956
-0.00614212
0.00137029
-0.00462932
0.00117879
0.00187258
0.000379783
0.00470821
-0.000727339
0.00497332
-0.00132745
0.00128781
-0.00708028
-0.0019122
0.0126883
-0.00264785
0.00482759
-0.00164942
-0.00680154
-0.000809697
-0.00876936
-0.000368168
-0.00342446
-0.000151489
-0.00049225
-0.000235817
0.000848909
-0.000454887
0.00167985
-0.000688345
0.00192337
-0.000794105
0.00160912
-0.000626379
0.000461554
-3.76113e-05
-0.00271073
0.000761594
-0.00595584
0.001138
-0.00354831
0.000946955
0.00245024
0.000592952
0.00521605
0.000136036
0.0052495
-0.000425792
0.00138961
-0.000119031
-0.00734238
0.000669327
-0.00778979
0.000403716
0.000739707
-0.000384407
0.00515257
-0.000948623
0.0053051
-0.00111955
0.00387357
-0.000514396
-0.00213422
0.000492136
-0.00765455
0.000956858
-0.00335025
0.000755189
0.00377588
0.000371046
0.00552817
-0.000301285
0.00473585
-0.000574213
-0.00246467
0.000176869
-0.00931664
0.000565894
-0.00369988
-1.83582e-05
0.00370534
-0.000655868
0.00528245
-0.000934427
0.00485569
-0.0007894
-4.4367e-05
4.60008e-05
-0.00697752
0.000856709
-0.00544003
0.000909056
0.00182024
0.000608643
0.00500862
8.62738e-06
0.00557333
-0.000508332
0.00180477
-0.00758861
-0.00101332
0.0137016
-0.00153965
0.00535393
-0.00119719
-0.007144
-0.00120526
-0.0087613
-0.000961906
-0.00366781
-0.000689329
-0.00076483
-0.000634612
0.000794195
-0.000688399
0.00173364
-0.000731173
0.00196614
-0.000619548
0.0014975
-0.000285506
0.000127513
0.000208823
-0.00320506
0.000512775
-0.0062598
0.000580418
-0.00361595
0.000561918
0.00246874
0.000653865
0.0051241
0.000687732
0.00521563
0.000269009
0.00180834
-0.00021945
-0.00685392
-0.000198479
-0.00781076
-0.000280235
0.000821465
-0.000553968
0.0054263
-0.000723515
0.00547464
-0.000565335
0.00371539
-9.59257e-05
-0.00260363
0.000272428
-0.0080229
0.000409294
-0.00348711
0.00053391
0.00365127
0.000588042
0.00547404
0.000413437
0.00491045
-0.000125206
-0.00192602
-0.000307773
-0.00913407
-0.000187476
-0.00382018
-0.000333919
0.00385178
-0.000486378
0.00543491
-0.000368256
0.00473757
-0.000299629
-0.000112994
-9.05694e-05
-0.00718658
0.000285604
-0.00581621
0.000455469
0.00165037
0.00053671
0.00492738
0.00049911
0.00561093
0.000220241
0.00208364
-0.00736837
-6.21563e-05
0.0137638
-0.000392553
0.00568433
-0.000779782
-0.00675677
-0.00153852
-0.00800256
-0.00151569
-0.00369064
-0.00123462
-0.0010459
-0.00103569
0.000595265
-0.000872212
0.00157017
-0.000683506
0.00177744
-0.000398635
0.00121262
3.83108e-05
-0.000309434
0.000359233
-0.00352598
0.000167734
-0.00606829
-9.71125e-05
-0.00335111
6.05401e-05
0.00231108
0.000516549
0.00466809
0.000986855
0.00474533
0.000816227
0.00197896
-0.000242122
-0.00579557
-0.000910512
-0.00714237
-0.000807144
0.000718099
-0.000508285
0.00512744
-0.000220526
0.00518688
0.000131181
0.00336368
0.000333825
-0.00280627
1.8307e-05
-0.00770739
-0.000201055
-0.00326775
0.000133764
0.00331645
0.000599044
0.00500876
0.000920743
0.00458876
0.000325437
-0.00133072
-0.000640282
-0.00816835
-0.00079919
-0.00366127
-0.000512346
0.00356494
-0.000142339
0.0050649
0.000291865
0.00430336
0.000242779
-6.39076e-05
-0.000187747
-0.00675605
-0.000330752
-0.0056732
-0.000105177
0.0014248
0.000277476
0.00454473
0.00076229
0.00512612
0.000805693
0.00204024
-0.00656268
0.000883951
0.0128798
0.00071219
0.00585609
-0.00044854
-0.00559605
-0.00173212
-0.00671899
-0.0019293
-0.00349346
-0.00168728
-0.00128792
-0.00134672
0.000254711
-0.000961602
0.00118504
-0.000559835
0.00137567
-0.000131696
0.000784485
0.000321761
-0.000762892
0.000373131
-0.00357735
-0.000269418
-0.00542574
-0.000783326
-0.00283721
-0.000457346
0.0019851
0.000288504
0.00392225
0.00108905
0.00394478
0.00121615
0.00185186
-0.000126974
-0.00445245
-0.00136331
-0.00590604
-0.00112015
0.00047494
-0.000373367
0.00438066
0.000308484
0.00450503
0.000856912
0.00281525
0.00070239
-0.00265175
-0.000255516
-0.00674948
-0.000744393
-0.00277888
-0.000280394
0.00285245
0.000508647
0.00421972
0.00121749
0.00387992
0.000743617
-0.000856852
-0.00078261
-0.00664213
-0.00125449
-0.00318939
-0.000619441
0.00292989
0.000175087
0.00427037
0.000810268
0.00366818
0.000764923
-1.85644e-05
-0.000224461
-0.00576667
-0.000895935
-0.00500173
-0.000582793
0.00111166
2.6935e-05
0.003935
0.000886184
0.00426687
0.00121248
0.00171394
-0.0053502
0.00174845
0.0111314
0.00181078
0.00579375
-3.6093e-06
-0.00378165
-0.00161511
-0.00510748
-0.002023
-0.00308557
-0.00186866
-0.00144226
-0.00145342
-0.000160532
-0.000916608
0.000648228
-0.000371191
0.000830247
0.000124974
0.000288324
0.00048643
-0.00112435
0.00023166
-0.00332258
-0.000731315
-0.00446277
-0.00136938
-0.00219914
-0.00085489
0.00147062
6.49018e-05
0.00300246
0.00102317
0.00298651
0.00143992
0.00143511
6.8456e-05
-0.00308098
-0.00151884
-0.00431874
-0.00128388
0.000239981
-0.000268167
0.00336495
0.000715572
0.00352129
0.00139208
0.00213874
0.000930248
-0.00218992
-0.00050256
-0.00531667
-0.00115435
-0.00212709
-0.000532444
0.00223054
0.000429616
0.00325766
0.0013298
0.00297973
0.00103744
-0.000564489
-0.000758728
-0.00484596
-0.00149381
-0.0024543
-0.000671699
0.00210777
0.000347091
0.00325158
0.00115722
0.00285805
0.00117095
-3.22996e-05
-0.000197534
-0.00439818
-0.00130575
-0.00389352
-0.000943562
0.000749472
-0.000114388
0.00310583
0.000913064
0.00323941
0.00142263
0.00120437
-0.00392756
0.00233637
0.00879501
0.00281872
0.0053114
0.000738226
-0.00170116
-0.00102648
-0.00334278
-0.0016536
-0.00245844
-0.00166034
-0.00143552
-0.00128758
-0.000533291
-0.000728835
8.94788e-05
-0.000150682
0.000252089
0.000318369
-0.000180725
0.000506027
-0.001312
-9.64027e-06
-0.00280692
-0.00112971
-0.0033427
-0.00169745
-0.0016314
-0.00110327
0.000876438
-0.00011351
0.0020127
0.000861631
0.00201136
0.00138968
0.000907063
0.000190236
-0.00188154
-0.0014238
-0.0027047
-0.00128387
0.000100044
-0.000213311
0.00229439
0.000874447
0.00243354
0.00159284
0.00142035
0.000988602
-0.00158568
-0.00064941
-0.00367866
-0.00131938
-0.00145712
-0.000624314
0.00153548
0.00037744
0.0022559
0.00131885
0.00203832
0.00112837
-0.000374007
-0.000620498
-0.00309709
-0.00143767
-0.00163713
-0.000628523
0.00129863
0.000402693
0.00222036
0.00130214
0.00195861
0.00133912
-6.92776e-05
-0.000128916
-0.00293015
-0.00141265
-0.00260979
-0.001106
0.000442821
-0.000152358
0.00215219
0.000886115
0.00220094
0.00140622
0.000684273
-0.00252135
0.00245337
0.00634164
0.00337935
0.00438541
0.00168007
-1.87078e-06
-7.25603e-06
-0.00165545
-0.000846158
-0.00161953
-0.00107221
-0.00120947
-0.00086442
-0.000741085
-0.000417706
-0.000357234
8.03339e-05
-0.000245952
0.000444724
-0.000545118
0.0004345
-0.00130178
-0.000219671
-0.00215275
-0.00126091
-0.00230146
-0.00169486
-0.00119745
-0.0011492
0.000330771
-0.000244612
0.00110812
0.000617348
0.0011494
0.00106827
0.000456138
0.000170948
-0.000984218
-0.00113808
-0.00139567
-0.00108708
4.90532e-05
-0.000132598
0.00133991
0.000829733
0.00147121
0.00145746
0.000792621
0.000864851
-0.000993072
-0.000653758
-0.00216005
-0.00123318
-0.000877694
-0.00059513
0.000897433
0.000277383
0.00138339
0.00112782
0.00118789
0.000991218
-0.000237406
-0.000431207
-0.00167467
-0.00114042
-0.000927917
-0.000518529
0.00067673
0.000386425
0.00131541
0.00120319
0.00114184
0.00121542
-8.15115e-05
-6.33182e-05
-0.00165141
-0.0012165
-0.0014566
-0.00101255
0.000238871
-0.000132303
0.00127194
0.00077556
0.00129308
0.00114863
0.000311208
-0.00137272
0.00209653
0.00424511
0.00317896
0.00330298
0.00222209
0.000954999
0.000947
-0.000380358
0.000122253
-0.000794786
-0.000259734
-0.000827485
-0.000271441
-0.000729379
-1.21332e-05
-0.000616541
0.000324503
-0.000582589
0.000524755
-0.000745371
0.000359685
-0.00113671
-0.000286209
-0.00150686
-0.0011065
-0.00148117
-0.00142169
-0.000882254
-0.00103733
-5.359e-05
-0.000356624
0.000427405
0.000298321
0.000494457
0.000599393
0.000155062
4.44018e-05
-0.000429228
-0.000782258
-0.000569013
-0.000769597
3.63954e-05
-7.7658e-05
0.000647969
0.000643789
0.000749757
0.00107913
0.000357279
0.000605215
-0.000519159
-0.000519275
-0.00103556
-0.000955197
-0.000441769
-0.000492939
0.000435174
0.000161085
0.000729366
0.000785982
0.000562998
0.000685465
-0.000136889
-0.000251576
-0.000737634
-0.000744006
-0.000435486
-0.000355273
0.000287996
0.00030987
0.000650262
0.000900639
0.000551076
0.000872704
-5.35807e-05
-3.34631e-05
-0.000745239
-0.000857029
-0.000633036
-0.000750012
0.000131854
-0.00011541
0.000637339
0.000554648
0.00062302
0.000763018
0.000102841
-0.000609704
0.00135944
0.00288568
0.00232047
0.00234196
0.0020771
0.00119837
0.0014033
0.00029345
0.000805427
-0.000196916
0.000447847
-0.000469907
0.000331663
-0.000613191
0.000394945
-0.000679818
0.000525161
-0.000712807
0.00055685
-0.000777063
0.000317768
-0.000897624
-0.000207044
-0.000982049
-0.000773943
-0.000914273
-0.00101919
-0.000637003
-0.000819969
-0.000252813
-0.00039853
5.9651e-06
1.2866e-05
8.30573e-05
0.000181988
-1.40613e-05
-8.40576e-05
-0.00016318
-0.000475212
-0.000177855
-0.000465733
2.69167e-05
-6.31931e-05
0.000245426
0.000389138
0.000297424
0.000622033
0.000124386
0.000310676
-0.000207799
-0.000341382
-0.000383499
-0.000620477
-0.000162673
-0.000360619
0.000175316
6.0188e-05
0.000308558
0.000417599
0.000205587
0.000347946
-6.7236e-05
-0.000133002
-0.000256688
-0.000406942
-0.000161545
-0.000212486
9.35393e-05
0.000188597
0.000249175
0.000527094
0.000212579
0.000481403
-7.89125e-06
-3.50596e-05
-0.000228775
-0.000498823
-0.000169272
-0.000458369
9.14004e-05
-8.69982e-05
0.000265968
0.000311149
0.000224869
0.000399621
1.43698e-05
-0.000210079
0.000839347
0.00204633
0.00144932
0.00173198
0.00156474
0.00108295
0.00131752
0.000540672
0.0010287
9.1905e-05
0.000800942
-0.000242146
0.000674232
-0.000486482
0.000624174
-0.000629754
0.000595647
-0.00068428
0.000503062
-0.000684486
0.000270437
-0.000665002
-8.13029e-05
-0.000630305
-0.000428923
-0.000566652
-0.000609955
-0.000455972
-0.000552506
-0.000310263
-0.000353089
-0.000193451
-0.000142651
-0.000127381
-5.93096e-05
-9.74012e-05
-0.00014396
-7.85286e-05
-0.00027263
-4.91848e-05
-0.000250218
4.50243e-06
-6.3088e-05
5.82935e-05
0.000157144
7.71926e-05
0.000249083
3.24512e-05
8.8539e-05
-4.72513e-05
-0.000213555
-8.14056e-05
-0.000350145
-2.60856e-05
-0.000239245
6.44164e-05
-2.31175e-05
9.24309e-05
0.000138183
4.42887e-05
0.00010023
-2.92816e-05
-8.69788e-05
-6.94822e-05
-0.000203083
-4.54419e-05
-0.000125654
1.61104e-05
6.56206e-05
5.78983e-05
0.000217012
6.11878e-05
0.000185842
2.32799e-05
-4.28922e-05
-3.88864e-08
-0.000237833
2.56673e-05
-0.000223852
7.7416e-05
-4.84244e-05
9.05411e-05
0.000130415
4.60308e-05
0.000156172
-1.13883e-05
-5.3907e-05
0.000559834
0.0014865
0.00093333
0.00135849
0.00107326
0.000943018
0.00105692
0.000557003
0.000940414
0.000208422
0.000819017
-0.000120744
0.00070352
-0.000370987
0.000596285
-0.000522522
0.000487055
-0.00057505
0.000355348
-0.000552781
0.000184449
-0.000494105
-1.19509e-05
-0.000433904
-0.000191926
-0.000386673
-0.000301626
-0.000346273
-0.000309445
-0.000302445
-0.000248976
-0.000253917
-0.000177745
-0.000198611
-0.000139904
-0.000135242
-0.00014202
-7.64154e-05
-0.00015351
-3.76983e-05
-0.000130399
-1.86101e-05
-6.36936e-05
-8.40902e-06
1.17568e-05
1.74607e-06
3.35417e-05
1.06681e-05
-2.81245e-05
1.44143e-05
-0.00012885
1.93179e-05
-0.000180171
2.52357e-05
-0.000144599
2.88469e-05
-6.32611e-05
1.10951e-05
-1.24862e-05
-6.48665e-06
-2.34368e-05
-1.83308e-05
-7.49383e-05
-1.79824e-05
-0.000106729
-1.36534e-05
-8.04855e-05
-1.01323e-05
-1.87772e-05
-3.80792e-06
3.11184e-05
1.12941e-05
1.90884e-05
3.53077e-05
-4.15534e-05
6.06012e-05
-9.02994e-05
7.44147e-05
-7.67383e-05
6.38546e-05
-1.54426e-05
2.92434e-05
3.4882e-05
-4.29051e-06
4.04534e-05
-1.69582e-05
-1.34553e-05
0.000415892
0.0010706
0.00071413
0.00106025
0.00085059
0.000806561
0.000879914
0.000527677
0.00084246
0.000245875
0.000731386
-9.66511e-06
0.000601724
-0.000241324
0.000459793
-0.000380595
0.000320784
-0.000436043
0.000194426
-0.000426421
8.45873e-05
-0.000384264
-1.05219e-05
-0.000338794
-8.78468e-05
-0.000309348
-0.00014023
-0.000293887
-0.000163276
-0.000279395
-0.000164089
-0.000253101
-0.000153797
-0.000208905
-0.00013743
-0.000151613
-0.000117535
-9.63123e-05
-9.75795e-05
-5.76538e-05
-7.77015e-05
-3.84869e-05
-5.80644e-05
-2.80437e-05
-4.25605e-05
-1.37558e-05
-3.97345e-05
7.84203e-06
-5.37421e-05
2.84207e-05
-7.31623e-05
3.87376e-05
-8.18085e-05
3.38834e-05
-7.05465e-05
1.75887e-05
-5.58267e-05
-3.62323e-06
-4.8502e-05
-1.38142e-05
-5.31624e-05
-1.36714e-05
-6.16562e-05
-9.48664e-06
-6.45373e-05
-1.07712e-05
-5.99739e-05
-1.46967e-05
-5.0694e-05
-1.30884e-05
-4.18565e-05
2.45877e-06
-3.69423e-05
3.03949e-05
-3.24921e-05
5.61486e-05
-2.22886e-05
6.4211e-05
-5.6106e-06
4.71809e-05
7.99967e-06
1.5632e-05
1.13786e-05
-7.67123e-06
7.08949e-06
-1.26656e-05
-6.3645e-06
0.000314947
0.000755647
0.000584592
0.000790602
0.000740399
0.000650756
0.000798117
0.000469961
0.000775098
0.00026889
0.000693626
7.18063e-05
0.000551965
-9.96601e-05
0.000396319
-0.000224949
0.000250689
-0.000290412
0.000132519
-0.000308248
4.68175e-05
-0.000298561
-1.00854e-05
-0.000281891
-5.01218e-05
-0.000269308
-8.12127e-05
-0.00026279
-0.000106477
-0.000254127
-0.000124891
-0.000234691
-0.000132506
-0.000201295
-0.000125722
-0.000158399
-0.000106612
-0.000115421
-8.36781e-05
-8.05853e-05
-6.60687e-05
-5.60947e-05
-5.66081e-05
-3.75033e-05
-5.2137e-05
-1.82278e-05
-4.62233e-05
1.92671e-06
-3.84007e-05
2.05987e-05
-2.86533e-05
2.89924e-05
-2.00476e-05
2.52787e-05
-1.53784e-05
1.29203e-05
-1.87072e-05
-2.9336e-07
-2.51015e-05
-7.42008e-06
-2.96688e-05
-9.10413e-06
-3.06866e-05
-8.46736e-06
-3.19489e-05
-9.50702e-06
-3.56911e-05
-1.09556e-05
-4.086e-05
-7.92257e-06
-4.19442e-05
3.54288e-06
-3.27822e-05
2.12386e-05
-1.43502e-05
3.77212e-05
7.40775e-06
4.24497e-05
2.19109e-05
3.26761e-05
2.25128e-05
1.50309e-05
1.35709e-05
1.26871e-06
4.32394e-06
-3.41782e-06
-2.03757e-06
0.000231927
0.000523721
0.000457284
0.000565243
0.000617578
0.00049046
0.000703073
0.000384466
0.000714613
0.000257351
0.00066223
0.00012419
0.00055967
2.90222e-06
0.000429133
-9.44091e-05
0.000298989
-0.000160266
0.000187771
-0.00019703
0.000103108
-0.000213898
4.21656e-05
-0.000220946
-2.56665e-06
-0.000224571
-3.97374e-05
-0.000225614
-7.2688e-05
-0.000221178
-9.92997e-05
-0.000208085
-0.000115191
-0.000185404
-0.000117509
-0.000156078
-0.000107956
-0.000124972
-9.23919e-05
-9.61503e-05
-7.72751e-05
-7.12113e-05
-6.54378e-05
-4.93388e-05
-5.45372e-05
-2.9129e-05
-4.17255e-05
-1.08869e-05
-2.4363e-05
3.23632e-06
-5.38779e-06
1.00189e-05
9.404e-06
1.04878e-05
1.55451e-05
6.77967e-06
1.35628e-05
1.69056e-06
8.43178e-06
-2.28658e-06
3.51527e-06
-4.18632e-06
9.66446e-08
-5.05044e-06
-3.89933e-06
-5.51333e-06
-9.84259e-06
-5.01333e-06
-1.61968e-05
-1.56663e-06
-1.80325e-05
5.37998e-06
-1.17244e-05
1.49315e-05
2.82577e-06
2.31766e-05
1.88107e-05
2.64646e-05
2.81367e-05
2.33432e-05
2.67008e-05
1.64656e-05
1.78366e-05
1.01356e-05
7.57503e-06
6.84553e-06
5.5379e-06
0.000167136
0.000356586
0.000340764
0.000391612
0.000480213
0.000351008
0.000573357
0.000291322
0.000613689
0.00021702
0.000602321
0.00013556
0.000549389
5.58356e-05
0.00046623
-1.12485e-05
0.000374214
-6.82508e-05
0.000285111
-0.000107928
0.000206852
-0.000135637
0.000140761
-0.000154851
8.42362e-05
-0.000168043
3.43061e-05
-0.000175685
-9.84103e-06
-0.000177034
-4.67152e-05
-0.000171212
-7.3532e-05
-0.000158584
-8.87012e-05
-0.000140907
-9.32541e-05
-0.000120421
-9.00447e-05
-9.93602e-05
-8.22547e-05
-7.89991e-05
-7.17375e-05
-5.98567e-05
-5.85598e-05
-4.23101e-05
-4.23679e-05
-2.708e-05
-2.39363e-05
-1.51948e-05
-6.5384e-06
-7.37949e-06
7.24707e-06
-3.2968e-06
1.58668e-05
-1.83708e-06
1.92632e-05
-1.70435e-06
1.8748e-05
-1.77179e-06
1.64211e-05
-1.86058e-06
1.29424e-05
-1.57321e-06
8.70349e-06
-1.27636e-06
3.7133e-06
-2.61201e-08
-4.27657e-07
2.57607e-06
-1.65073e-06
6.60858e-06
1.77974e-06
1.14984e-05
9.08043e-06
1.58731e-05
1.70772e-05
1.84707e-05
2.16256e-05
1.87944e-05
2.05987e-05
1.74906e-05
1.48996e-05
1.58365e-05
7.00793e-06
1.47397e-05
1.2545e-05
0.000119108
0.000237475
0.000247
0.000263716
0.000356474
0.000241535
0.000439292
0.000208505
0.000489675
0.000166637
0.000505826
0.000119407
0.000490819
7.08429e-05
0.000454667
2.49049e-05
0.000401371
-1.49533e-05
0.00034276
-4.9317e-05
0.000283374
-7.62491e-05
0.00022591
-9.73832e-05
0.000171097
-0.000113229
0.000119292
-0.000123883
7.14287e-05
-0.000129171
2.92971e-05
-0.000129075
-5.22232e-06
-0.000124061
-3.11447e-05
-0.000114987
-4.83518e-05
-0.000103217
-5.77857e-05
-8.99232e-05
-6.07783e-05
-7.60026e-05
-5.84781e-05
-6.21604e-05
-5.17658e-05
-4.90279e-05
-4.16177e-05
-3.72271e-05
-2.95218e-05
-2.72882e-05
-1.74254e-05
-1.94769e-05
-7.0518e-06
-1.367e-05
5.663e-07
-9.45187e-06
5.19703e-06
-6.33337e-06
7.35034e-06
-3.92622e-06
7.48697e-06
-2.00128e-06
6.35441e-06
-4.43756e-07
4.06073e-06
1.01992e-06
1.39836e-06
2.63578e-06
-7.52831e-07
4.72318e-06
-1.43257e-06
7.29183e-06
-4.73138e-08
1.01149e-05
3.01808e-06
1.28023e-05
6.48751e-06
1.49999e-05
8.78035e-06
1.6505e-05
8.88773e-06
1.73848e-05
6.84981e-06
1.78739e-05
3.41188e-06
1.81766e-05
1.59557e-05
8.40435e-05
0.00015343
0.000176062
0.000171694
0.000257921
0.000159675
0.000324754
0.000141669
0.000372844
0.000118543
0.000400418
9.18289e-05
0.000407942
6.33169e-05
0.000398066
3.47803e-05
0.000375246
7.8681e-06
0.000342772
-1.6843e-05
0.000304559
-3.80366e-05
0.000262961
-5.57863e-05
0.000219658
-6.99269e-05
0.000176106
-8.03316e-05
0.000133862
-8.69254e-05
9.45739e-05
-8.9785e-05
5.97228e-05
-8.92104e-05
3.04963e-05
-8.57635e-05
7.34465e-06
-8.0067e-05
-9.84627e-06
-7.2731e-05
-2.14684e-05
-6.43816e-05
-2.80762e-05
-5.55575e-05
-3.03684e-05
-4.67384e-05
-2.92583e-05
-3.83361e-05
-2.58603e-05
-3.06863e-05
-2.13724e-05
-2.39654e-05
-1.68244e-05
-1.82161e-05
-1.29184e-05
-1.33581e-05
-9.98328e-06
-9.27065e-06
-8.06691e-06
-5.84118e-06
-7.09271e-06
-2.97669e-06
-6.92811e-06
-6.14945e-07
-7.43734e-06
1.52993e-06
-8.28259e-06
3.48533e-06
-8.97805e-06
5.41446e-06
-9.06949e-06
7.3805e-06
-8.31997e-06
9.36862e-06
-6.82017e-06
1.13026e-05
-4.91511e-06
1.30917e-05
-3.06984e-06
1.46585e-05
-1.64429e-06
1.59596e-05
-7.53311e-07
1.69826e-05
-2.84016e-07
1.77063e-05
1.56717e-05
5.92335e-05
9.41947e-05
0.000125009
0.000105917
0.000185203
9.94812e-05
0.00023703
8.98389e-05
0.000278213
7.73575e-05
0.000307364
6.26792e-05
0.00032411
4.65732e-05
0.000329036
2.98556e-05
0.000323625
1.3281e-05
0.000308434
-1.64877e-06
0.000287254
-1.68549e-05
0.000260862
-2.93946e-05
0.000230836
-3.99005e-05
0.000198674
-4.81674e-05
0.000165847
-5.40956e-05
0.000133761
-5.76984e-05
0.000103658
-5.91096e-05
7.6465e-05
-5.85699e-05
5.27827e-05
-5.63827e-05
3.29421e-05
-5.28911e-05
1.69969e-05
-4.84407e-05
4.79365e-06
-4.33557e-05
-4.01386e-06
-3.79274e-05
-9.92417e-06
-3.24245e-05
-1.35514e-05
-2.70623e-05
-1.55043e-05
-2.20116e-05
-1.63581e-05
-1.73561e-05
-1.65733e-05
-1.3143e-05
-1.64717e-05
-9.37735e-06
-1.62535e-05
-6.05704e-06
-1.60632e-05
-3.16292e-06
-1.6016e-05
-6.6698e-07
-1.60165e-05
1.52732e-06
-1.60575e-05
3.53076e-06
-1.59593e-05
5.31722e-06
-1.5557e-05
6.97508e-06
-1.47261e-05
8.53807e-06
-1.34283e-05
1.00073e-05
-1.17049e-05
1.13684e-05
-9.64355e-06
1.25957e-05
-7.34123e-06
1.36561e-05
-4.87448e-06
1.45154e-05
-2.29723e-06
1.51292e-05
1.33756e-05
3.82499e-05
5.59413e-05
8.11533e-05
6.30109e-05
0.000121178
5.94532e-05
0.000156862
5.41474e-05
0.000186948
4.72671e-05
0.000210524
3.91044e-05
0.000227085
3.00128e-05
0.000236549
2.03896e-05
0.000239198
1.06296e-05
0.000236431
1.11771e-06
0.000227455
-7.87936e-06
0.000214019
-1.59612e-05
0.000197066
-2.29492e-05
0.000177577
-2.86792e-05
0.000156536
-3.30556e-05
0.000134887
-3.60519e-05
0.000113481
-3.77074e-05
9.3031e-05
-3.81203e-05
7.40818e-05
-3.74329e-05
5.70041e-05
-3.58164e-05
4.2013e-05
-3.34547e-05
2.91894e-05
-3.05324e-05
1.84987e-05
-2.72323e-05
9.79736e-06
-2.37224e-05
2.87622e-06
-2.01452e-05
-2.52565e-06
-1.66095e-05
-6.65801e-06
-1.3218e-05
-9.77391e-06
-1.00262e-05
-1.20732e-05
-7.08277e-06
-1.37211e-05
-4.40845e-06
-1.48714e-05
-2.00814e-06
-1.56648e-05
1.25014e-07
-1.61466e-05
2.00543e-06
-1.63067e-05
3.69206e-06
-1.61596e-05
5.17228e-06
-1.56893e-05
6.50379e-06
-1.48606e-05
7.70826e-06
-1.36509e-05
8.7981e-06
-1.20579e-05
9.77653e-06
-1.00997e-05
1.06378e-05
-7.8124e-06
1.13687e-05
-5.24787e-06
1.19509e-05
-2.47746e-06
1.23591e-05
1.08982e-05
2.38405e-05
3.20996e-05
5.07663e-05
3.60878e-05
7.61952e-05
3.40252e-05
9.93666e-05
3.0974e-05
0.000119612
2.70232e-05
0.000136403
2.2318e-05
0.000149379
1.70401e-05
0.000158369
1.14007e-05
0.000163374
5.62467e-06
0.000164602
-1.10106e-07
0.000162241
-5.51799e-06
0.000156767
-1.04863e-05
0.000148661
-1.48442e-05
0.000138458
-1.84762e-05
0.00012671
-2.13079e-05
0.000113962
-2.33061e-05
0.00010073
-2.44768e-05
8.7473e-05
-2.48616e-05
7.45728e-05
-2.45307e-05
6.23309e-05
-2.35754e-05
5.0974e-05
-2.20999e-05
4.06578e-05
-2.02146e-05
3.14605e-05
-1.80302e-05
2.33925e-05
-1.56525e-05
1.64236e-05
-1.31782e-05
1.05079e-05
-1.06931e-05
5.55359e-06
-8.25891e-06
1.46645e-06
-5.93698e-06
-1.85528e-06
-3.76312e-06
-4.50201e-06
-1.76143e-06
-6.56251e-06
5.58434e-08
-8.11523e-06
1.67851e-06
-9.23284e-06
3.12096e-06
-9.93129e-06
4.38996e-06
-1.02655e-05
5.50742e-06
-1.02529e-05
6.49101e-06
-9.90314e-06
7.35733e-06
-9.22478e-06
8.11906e-06
-8.23168e-06
8.78363e-06
-6.94641e-06
9.35312e-06
-5.40205e-06
9.82483e-06
-3.64326e-06
1.01923e-05
-1.7286e-06
1.04443e-05
9.16833e-06
1.62366e-05
1.58611e-05
3.46482e-05
1.76762e-05
5.21751e-05
1.64955e-05
6.83685e-05
1.47769e-05
8.28293e-05
1.25625e-05
9.52242e-05
9.92419e-06
0.000105304
6.95987e-06
0.000112915
3.78769e-06
0.000118015
5.22151e-07
0.000120586
-2.68336e-06
0.000120824
-5.75822e-06
0.000118913
-8.5766e-06
0.000115083
-1.10155e-05
0.00010962
-1.30154e-05
0.000102841
-1.45302e-05
9.50689e-05
-1.55365e-05
8.66252e-05
-1.6034e-05
7.78085e-05
-1.60437e-05
6.8884e-05
-1.56045e-05
6.00787e-05
-1.47704e-05
5.15828e-05
-1.36054e-05
4.35474e-05
-1.21783e-05
3.60793e-05
-1.0559e-05
2.92448e-05
-8.81682e-06
2.3083e-05
-7.01793e-06
1.76102e-05
-5.22033e-06
1.28237e-05
-3.46938e-06
8.68888e-06
-1.80022e-06
5.17219e-06
-2.47406e-07
2.23641e-06
1.17413e-06
-1.64524e-07
2.45878e-06
-2.06655e-06
3.5816e-06
-3.56648e-06
4.61974e-06
-4.67067e-06
5.49291e-06
-5.40449e-06
6.24093e-06
-5.79504e-06
6.88115e-06
-5.86648e-06
7.42766e-06
-5.64194e-06
7.89316e-06
-5.14666e-06
8.28725e-06
-4.41028e-06
8.61587e-06
-3.46775e-06
8.88142e-06
-2.35975e-06
9.08322e-06
-1.13566e-06
9.21881e-06
8.03135e-06
1.13053e-05
4.55761e-06
2.41013e-05
4.8827e-06
3.63359e-05
4.26005e-06
4.77227e-05
3.38921e-06
5.80177e-05
2.26942e-06
6.69937e-05
9.49371e-07
7.44867e-05
-5.33427e-07
8.03179e-05
-2.04369e-06
8.45545e-05
-3.71504e-06
8.69991e-05
-5.12925e-06
8.79649e-05
-6.72492e-06
8.73795e-05
-7.99134e-06
8.53779e-05
-9.01355e-06
8.21268e-05
-9.76404e-06
7.78194e-05
-1.02228e-05
7.26636e-05
-1.0381e-05
6.68718e-05
-1.02418e-05
6.065e-05
-9.81995e-06
5.41858e-05
-9.138e-06
4.76502e-05
-8.23426e-06
4.11968e-05
-7.15254e-06
3.49548e-05
-5.9356e-06
2.90292e-05
-4.63131e-06
2.3497e-05
-3.28372e-06
1.84106e-05
-1.93245e-06
1.38033e-05
-6.13133e-07
9.71434e-06
6.21831e-07
6.16524e-06
1.75095e-06
3.12393e-06
2.79404e-06
6.22813e-07
3.6753e-06
-1.51553e-06
4.5985e-06
-3.25211e-06
5.3194e-06
-4.55081e-06
5.91821e-06
-5.46697e-06
6.40818e-06
-6.02619e-06
6.79952e-06
-6.25429e-06
7.10873e-06
-6.17876e-06
7.3512e-06
-5.82786e-06
7.54084e-06
-5.23168e-06
7.68935e-06
-4.42311e-06
7.80546e-06
-3.43814e-06
7.89451e-06
-2.31554e-06
7.95864e-06
-1.099e-06
8.00037e-06
6.93185e-06
7.34704e-06
-2.78911e-06
1.55916e-05
-3.36209e-06
2.34911e-05
-3.64205e-06
3.07791e-05
-3.89994e-06
3.73697e-05
-4.32043e-06
4.30896e-05
-4.77141e-06
4.79127e-05
-5.35738e-06
5.17458e-05
-5.8766e-06
5.43502e-05
-6.32014e-06
5.58999e-05
-6.68014e-06
5.61425e-05
-6.96803e-06
5.52771e-05
-7.12557e-06
5.33995e-05
-7.13502e-06
5.06236e-05
-6.9873e-06
4.70814e-05
-6.68055e-06
4.29177e-05
-6.21768e-06
3.82833e-05
-5.60755e-06
3.33304e-05
-4.86622e-06
2.82097e-05
-4.01608e-06
2.30523e-05
-3.07694e-06
1.79971e-05
-2.09824e-06
1.31345e-05
-1.07313e-06
8.55891e-06
-5.45876e-08
4.35101e-06
9.24823e-07
5.75716e-07
1.84224e-06
-2.80696e-06
2.76942e-06
-5.74956e-06
3.56601e-06
-8.25741e-06
4.26062e-06
-1.03089e-05
4.84607e-06
-1.19605e-05
5.3269e-06
-1.30855e-05
5.72406e-06
-1.3783e-05
6.01766e-06
-1.40814e-05
6.21658e-06
-1.40078e-05
6.33386e-06
-1.35959e-05
6.387e-06
-1.28759e-05
6.3884e-06
-1.18762e-05
6.35104e-06
-1.06264e-05
6.29033e-06
-9.15716e-06
6.21914e-06
-7.50074e-06
6.14777e-06
-5.69127e-06
6.08361e-06
-3.76461e-06
6.03051e-06
-1.75841e-06
5.99288e-06
5.1733e-06
3.78189e-06
-6.57052e-06
8.02492e-06
-7.60472e-06
1.20445e-05
-7.66264e-06
1.57795e-05
-7.6342e-06
1.9022e-05
-7.562e-06
2.16863e-05
-7.43679e-06
2.35904e-05
-7.26103e-06
2.47176e-05
-7.00246e-06
2.50398e-05
-6.64207e-06
2.4555e-05
-6.19548e-06
2.32564e-05
-5.66908e-06
2.1194e-05
-5.0624e-06
1.84636e-05
-4.40377e-06
1.51732e-05
-3.69626e-06
1.14221e-05
-2.92966e-06
7.31806e-06
-2.11475e-06
2.97277e-06
-1.2633e-06
-1.50786e-06
-3.8581e-07
-5.9526e-06
4.28934e-07
-1.03302e-05
1.30033e-06
-1.44046e-05
1.97544e-06
-1.81783e-05
2.70044e-06
-2.15998e-05
3.3678e-06
-2.46211e-05
3.94695e-06
-2.72085e-05
4.42948e-06
-2.92634e-05
4.82428e-06
-3.08101e-05
5.11369e-06
-3.18472e-05
5.29907e-06
-3.23846e-05
5.38398e-06
-3.2437e-05
5.37929e-06
-3.20091e-05
5.29621e-06
-3.11308e-05