/*--------------------------------*- C++ -*----------------------------------*\
  =========                 |
  \\      /  F ield         | OpenFOAM: The Open Source CFD Toolbox
   \\    /   O peration     | Website:  https://openfoam.org
    \\  /    A nd           | Version:  7
     \\/     M anipulation  |
\*---------------------------------------------------------------------------*/
FoamFile
{
    version     2.0;
    format      ascii;
    class       volScalarField;
    location    "1.3";
    object      p;
}
// * * * * * * * * * * * * * * * * * * * * * * * * * * * * * * * * * * * * * //

dimensions      [0 2 -2 0 0 0 0];

internalField   nonuniform List<scalar> 
1936
(
0.000113878
-3110.27
-7223.97
-6676.5
-5298.81
-4871.18
-4391.42
-4183.2
-4212.84
-4836.45
-6431.53
-7496.7
-6116.95
-4059.53
-3340.44
-3334.29
-4248.66
-6721.32
-7610.32
-5278.22
-3362.66
-3100.68
-3394.94
-5139.89
-7325.27
-6620.48
-4185.68
-3287.78
-3345.83
-4685.46
-7274.93
-7234.77
-4758.17
-3352.02
-3161.54
-3606.98
-5712.38
-7671.25
-6255.54
-3759.59
-3107.3
-3222.93
-4545.27
-7234.95
-96.783
-3103.89
-7157.58
-6632.51
-5288.46
-4877.04
-4411
-4211.3
-4240.13
-4838.2
-6391.67
-7437.24
-6083.66
-4072.85
-3394.6
-3392.33
-4256.87
-6667.93
-7545.51
-5255.21
-3397.66
-3164.1
-3439.7
-5137.76
-7276.81
-6570.71
-4197.73
-3351.34
-3393.81
-4661.35
-7196.76
-7179.3
-4752.67
-3394.85
-3223.67
-3639.03
-5686.58
-7603.69
-6202.68
-3770.96
-3169.33
-3279.35
-4546.86
-7184.83
-393.987
-3101.59
-6913.69
-6514.77
-5278.65
-4885.96
-4461.63
-4279.32
-4310.29
-4857.56
-6286.06
-7250.23
-5996.7
-4132.52
-3526.9
-3535.72
-4304.66
-6515.27
-7337.91
-5216.93
-3504.96
-3311.23
-3572.17
-5154.14
-7116.3
-6423.13
-4253.44
-3505.48
-3516.98
-4623.76
-6962.75
-7008.33
-4768.58
-3511.88
-3369.43
-3744.39
-5630.58
-7386.02
-6062.03
-3827.82
-3314.78
-3426.01
-4582.58
-7024.43
-807.04
-3122.2
-6551.62
-6328.01
-5267.11
-4901.72
-4533.07
-4374.99
-4411.66
-4893.39
-6134.55
-6967.98
-5870.7
-4231.49
-3714.67
-3733.97
-4381.86
-6291.33
-7021.19
-5170.5
-3671.77
-3517.24
-3758.59
-5165.65
-6858.89
-6205.48
-4336.83
-3712.05
-3698.89
-4602.74
-6630.05
-6743.18
-4796.66
-3684.99
-3572.4
-3898.9
-5545.64
-7053.82
-5867.57
-3930.98
-3519.19
-3628.88
-4635.07
-6772.19
-1281.28
-3171.48
-6134.23
-6089.83
-5243.44
-4919.23
-4615.16
-4485.18
-4526.54
-4935.3
-5958.21
-6634.92
-5724.91
-4355.11
-3930.47
-3952.83
-4471.61
-6033.19
-6648.59
-5122.66
-3873.58
-3751.45
-3965.7
-5161.81
-6544.44
-5955.17
-4426.87
-3930.88
-3909.73
-4607.08
-6261.26
-6425.08
-4828.08
-3887.94
-3800.63
-4074.02
-5440.46
-6662.65
-5654.93
-4065.9
-3750.18
-3850.44
-4688.49
-6469.15
-1778.43
-3254.54
-5709.23
-5819.11
-5201.23
-4934.29
-4699.67
-4598.93
-4641.82
-4974.55
-5773.46
-6287.66
-5573.53
-4490.34
-4151.8
-4169.09
-4564.57
-5770.32
-6262.95
-5077.58
-4087.45
-3991.41
-4170.4
-5138.28
-6206.39
-5701.19
-4514.1
-4138.95
-4123.6
-4636.72
-5905.15
-6088.98
-4857.12
-4097.96
-4031.03
-4249.98
-5323.12
-6257.46
-5449.39
-4218.01
-3983.37
-4066.39
-4735.59
-6147.69
-2271.98
-3372.99
-5313.5
-5536.37
-5140.16
-4943.3
-4778.02
-4706.32
-4746.21
-5005.5
-5593.92
-5955.34
-5427.66
-4623.04
-4360.94
-4368.66
-4654.21
-5527.22
-5898.02
-5036.88
-4293.48
-4218.54
-4357.48
-5098.21
-5874.47
-5466.02
-4595.48
-4325.55
-4320.21
-4683.83
-5593.67
-5765.82
-4878.69
-4296.86
-4246.14
-4411.71
-5204.75
-5874.42
-5268.4
-4371.02
-4200.68
-4263.18
-4775.56
-5833.43
-2745.58
-3522.32
-4973.64
-5263.88
-5063.32
-4943.21
-4842.24
-4797.96
-4831.7
-5024.62
-5428.1
-5660.09
-5295.85
-4740.93
-4544.6
-4542.4
-4736.39
-5320.43
-5579.13
-5000.68
-4476.17
-4417.94
-4518.72
-5049.24
-5573.44
-5267.08
-4669.57
-4485.41
-4487.34
-4737.12
-5342.05
-5479.9
-4890.5
-4470.9
-4433.18
-4550.87
-5096.34
-5540.28
-5119.84
-4511.6
-4390.51
-4433.73
-4808.55
-5547.69
-3183.61
-3695.36
-4709.44
-5022.4
-4976.27
-4930.85
-4886.05
-4866.42
-4894.41
-5028.43
-5282.14
-5415.85
-5184.62
-4835.09
-4693.75
-4684.58
-4805.89
-5159.48
-5322.21
-4967.66
-4626.41
-4581.78
-4650.09
-4998.89
-5321.46
-5112.16
-4735.14
-4615.32
-4619.84
-4786
-5153.16
-5247.22
-4891.8
-4612.93
-4584.36
-4663.66
-5005.74
-5272.72
-5006.38
-4629.57
-4546.52
-4575.25
-4833.19
-5305.69
-3565.19
-3881.26
-4535.54
-4829.48
-4886.74
-4904.61
-4905.96
-4908.14
-4932.01
-5017.26
-5160.38
-5227.96
-5097.18
-4899.67
-4805.74
-4791.99
-4857.72
-5045.65
-5133.88
-4939.38
-4739.79
-4706.55
-4749.1
-4953.55
-5129.06
-5002.27
-4787.2
-4714.35
-4719.02
-4822.29
-5021.48
-5075.72
-4885.58
-4720.06
-4697.93
-4746.77
-4937.5
-5078.19
-4927.36
-4719.04
-4666.58
-4686.34
-4847.39
-5117.08
-3873.16
-4062.85
-4453.56
-4697.19
-4805.35
-4867.21
-4902.94
-4923.55
-4945.65
-4994.42
-5064.75
-5094.43
-5032.11
-4935.44
-4879.92
-4864.08
-4890.87
-4973.28
-5010.94
-4918
-4816.24
-4792.95
-4815.63
-4917.67
-4997.91
-4931.75
-4823.45
-4783.24
-4787.39
-4844.18
-4937.82
-4963.68
-4876.58
-4791.89
-4775.9
-4801.34
-4891.69
-4952.77
-4878.73
-4779.42
-4751.7
-4765.15
-4852.41
-4985
-4106.18
-4221.56
-4444.72
-4626.33
-4743.57
-4826.66
-4883.4
-4917.14
-4939.26
-4964.71
-4994.2
-5006.49
-4985.17
-4947.53
-4919.68
-4904.86
-4907.9
-4932.38
-4941.7
-4903.98
-4860.12
-4845.43
-4853.52
-4893.11
-4920.78
-4891.38
-4844.93
-4825.75
-4829.04
-4854.72
-4890.8
-4900.76
-4868.64
-4833.11
-4822.99
-4832.25
-4865.08
-4884.04
-4853.68
-4815.57
-4805.07
-4813.25
-4851.74
-4904.5
-4274.39
-4349.7
-4477.63
-4604.41
-4707.64
-4792.46
-4856.41
-4897.25
-4919.27
-4933.14
-4944.74
-4952.1
-4951.45
-4943.78
-4933.07
-4921.52
-4913.38
-4911.98
-4909.01
-4895.68
-4880.04
-4871.47
-4870.45
-4878.83
-4883.06
-4871.56
-4855.6
-4848.6
-4850.21
-4858.45
-4868.33
-4871.36
-4863.3
-4852.32
-4846.83
-4846.8
-4852.65
-4854.21
-4844.22
-4834.54
-4833.41
-4837.25
-4849
-4863.39
-4397.33
-4446.82
-4524.97
-4611.49
-4694.17
-4768.97
-4829.16
-4869.87
-4892.38
-4903.7
-4911.2
-4919
-4926.85
-4931.55
-4930.44
-4922.62
-4911.8
-4902.51
-4895.98
-4890.73
-4885.61
-4880.37
-4875.23
-4871.49
-4868.34
-4863.82
-4860.04
-4858.61
-4858.72
-4859.29
-4859.85
-4860.48
-4860.31
-4858.78
-4856.07
-4852.38
-4849
-4845.79
-4843.13
-4843.26
-4845.34
-4846.19
-4846.57
-4846.9
-4491.53
-4522.17
-4571.85
-4631.11
-4694.34
-4754.66
-4805.74
-4842.72
-4865.49
-4878.55
-4887.86
-4897.56
-4908
-4916.22
-4918.88
-4914.77
-4906.16
-4897.18
-4890.77
-4887.21
-4884.54
-4880.53
-4874.77
-4868.71
-4864.15
-4861.98
-4861.7
-4861.77
-4861.09
-4859.37
-4857.81
-4857.72
-4858.92
-4859.59
-4858.14
-4854.19
-4849.39
-4845.84
-4845.12
-4846.83
-4848.67
-4848.03
-4845.28
-4842.45
-4565.96
-4583.7
-4614.94
-4655.23
-4700.73
-4746.86
-4787.7
-4819.66
-4842.19
-4857.74
-4869.85
-4881.19
-4891.99
-4900.5
-4904.52
-4903.3
-4898.29
-4892.22
-4887.31
-4884.07
-4881.38
-4877.76
-4872.87
-4867.86
-4864.23
-4862.61
-4862.36
-4862.3
-4861.29
-4859.44
-4857.86
-4857.54
-4858.3
-4858.77
-4857.64
-4854.69
-4851.09
-4848.46
-4847.7
-4848.35
-4848.87
-4847.67
-4845.1
-4842.86
-4624.72
-4634.71
-4653.87
-4680.31
-4711.67
-4744.73
-4775.98
-4802.57
-4823.72
-4840.36
-4854.14
-4866.29
-4876.89
-4885.08
-4889.83
-4890.89
-4889.14
-4886.09
-4883.01
-4880.33
-4877.7
-4874.58
-4870.95
-4867.43
-4864.82
-4863.39
-4862.66
-4862.05
-4860.96
-4859.57
-4858.44
-4857.96
-4857.97
-4857.76
-4856.71
-4854.75
-4852.47
-4850.61
-4849.58
-4849.15
-4848.61
-4847.38
-4845.75
-4844.45
-4670.52
-4676.28
-4687.92
-4704.74
-4725.5
-4748.29
-4771.08
-4792.06
-4810.45
-4826.29
-4840.03
-4852.02
-4862.21
-4870.19
-4875.59
-4878.4
-4879.12
-4878.5
-4877.22
-4875.61
-4873.7
-4871.47
-4869.04
-4866.75
-4864.92
-4863.64
-4862.69
-4861.78
-4860.73
-4859.66
-4858.76
-4858.16
-4857.72
-4857.13
-4856.17
-4854.81
-4853.3
-4851.92
-4850.82
-4849.9
-4848.97
-4847.91
-4846.87
-4846.14
-4705.85
-4709.3
-4716.45
-4727.04
-4740.47
-4755.74
-4771.73
-4787.54
-4802.37
-4815.99
-4828.31
-4839.26
-4848.7
-4856.4
-4862.23
-4866.22
-4868.62
-4869.81
-4870.13
-4869.83
-4869.06
-4867.94
-4866.63
-4865.33
-4864.16
-4863.16
-4862.27
-4861.39
-4860.49
-4859.62
-4858.84
-4858.18
-4857.55
-4856.85
-4855.98
-4854.96
-4853.86
-4852.79
-4851.78
-4850.84
-4849.93
-4849.09
-4848.39
-4847.95
-4732.8
-4734.97
-4739.45
-4746.17
-4754.84
-4764.97
-4775.99
-4787.36
-4798.68
-4809.55
-4819.75
-4829.1
-4837.42
-4844.54
-4850.39
-4854.97
-4858.38
-4860.79
-4862.38
-4863.3
-4863.69
-4863.68
-4863.39
-4862.94
-4862.43
-4861.87
-4861.29
-4860.66
-4860.01
-4859.35
-4858.71
-4858.09
-4857.48
-4856.81
-4856.08
-4855.28
-4854.44
-4853.61
-4852.79
-4852.01
-4851.3
-4850.67
-4850.19
-4849.91
-4753.08
-4754.48
-4757.36
-4761.71
-4767.39
-4774.14
-4781.69
-4789.75
-4798.04
-4806.31
-4814.33
-4821.92
-4828.93
-4835.21
-4840.7
-4845.36
-4849.22
-4852.32
-4854.75
-4856.59
-4857.93
-4858.85
-4859.44
-4859.77
-4859.9
-4859.89
-4859.74
-4859.5
-4859.17
-4858.79
-4858.37
-4857.92
-4857.44
-4856.92
-4856.36
-4855.76
-4855.15
-4854.53
-4853.93
-4853.37
-4852.86
-4852.43
-4852.11
-4851.93
-4767.97
-4768.91
-4770.83
-4773.73
-4777.53
-4782.12
-4787.35
-4793.05
-4799.07
-4805.23
-4811.39
-4817.39
-4823.12
-4828.49
-4833.4
-4837.81
-4841.71
-4845.09
-4847.97
-4850.39
-4852.37
-4853.98
-4855.25
-4856.23
-4856.96
-4857.48
-4857.82
-4858
-4858.06
-4858.01
-4857.87
-4857.67
-4857.4
-4857.08
-4856.73
-4856.34
-4855.94
-4855.53
-4855.14
-4854.76
-4854.43
-4854.16
-4853.96
-4853.85
-4777.75
-4778.42
-4779.79
-4781.86
-4784.6
-4787.92
-4791.75
-4795.99
-4800.53
-4805.27
-4810.13
-4814.98
-4819.74
-4824.33
-4828.68
-4832.74
-4836.48
-4839.88
-4842.92
-4845.61
-4847.95
-4849.97
-4851.68
-4853.12
-4854.29
-4855.24
-4855.98
-4856.54
-4856.94
-4857.2
-4857.34
-4857.39
-4857.35
-4857.24
-4857.09
-4856.89
-4856.66
-4856.42
-4856.19
-4855.96
-4855.76
-4855.59
-4855.47
-4855.41
-4783.26
-4783.8
-4784.88
-4786.52
-4788.7
-4791.36
-4794.44
-4797.89
-4801.63
-4805.58
-4809.67
-4813.83
-4817.99
-4822.08
-4826.04
-4829.83
-4833.4
-4836.74
-4839.81
-4842.6
-4845.11
-4847.35
-4849.31
-4851.01
-4852.46
-4853.68
-4854.69
-4855.51
-4856.15
-4856.63
-4856.98
-4857.22
-4857.35
-4857.4
-4857.39
-4857.32
-4857.22
-4857.09
-4856.95
-4856.82
-4856.69
-4856.59
-4856.51
-4856.47
-4786.1
-4786.57
-4787.5
-4788.92
-4790.82
-4793.14
-4795.84
-4798.88
-4802.2
-4805.73
-4809.42
-4813.21
-4817.04
-4820.85
-4824.59
-4828.21
-4831.68
-4834.96
-4838.04
-4840.88
-4843.48
-4845.83
-4847.93
-4849.79
-4851.41
-4852.8
-4853.97
-4854.95
-4855.74
-4856.37
-4856.85
-4857.2
-4857.44
-4857.59
-4857.67
-4857.68
-4857.65
-4857.59
-4857.51
-4857.42
-4857.33
-4857.26
-4857.21
-4857.18
-4787.39
-4787.82
-4788.68
-4789.99
-4791.75
-4793.9
-4796.42
-4799.25
-4802.36
-4805.68
-4809.17
-4812.78
-4816.44
-4820.11
-4823.74
-4827.29
-4830.71
-4833.98
-4837.07
-4839.95
-4842.61
-4845.04
-4847.23
-4849.18
-4850.9
-4852.39
-4853.67
-4854.74
-4855.63
-4856.34
-4856.9
-4857.33
-4857.63
-4857.84
-4857.96
-4858.01
-4858.02
-4857.99
-4857.94
-4857.88
-4857.81
-4857.75
-4857.71
-4857.69
-4787.78
-4788.2
-4789.02
-4790.29
-4791.98
-4794.06
-4796.49
-4799.23
-4802.25
-4805.48
-4808.89
-4812.42
-4816.02
-4819.64
-4823.24
-4826.77
-4830.19
-4833.47
-4836.58
-4839.5
-4842.21
-4844.7
-4846.95
-4848.97
-4850.75
-4852.31
-4853.65
-4854.78
-4855.72
-4856.48
-4857.08
-4857.54
-4857.87
-4858.1
-4858.25
-4858.32
-4858.34
-4858.32
-4858.28
-4858.22
-4858.16
-4858.11
-4858.07
-4858.05
-4787.7
-4788.11
-4788.91
-4790.16
-4791.83
-4793.89
-4796.3
-4799.02
-4802.01
-4805.23
-4808.62
-4812.14
-4815.74
-4819.36
-4822.96
-4826.51
-4829.95
-4833.27
-4836.41
-4839.37
-4842.12
-4844.64
-4846.94
-4849
-4850.82
-4852.42
-4853.79
-4854.95
-4855.91
-4856.69
-4857.3
-4857.77
-4858.11
-4858.35
-4858.49
-4858.56
-4858.58
-4858.56
-4858.51
-4858.45
-4858.39
-4858.33
-4858.29
-4858.27
-4787.42
-4787.83
-4788.64
-4789.89
-4791.56
-4793.63
-4796.04
-4798.78
-4801.79
-4805.02
-4808.43
-4811.98
-4815.6
-4819.25
-4822.88
-4826.46
-4829.94
-4833.28
-4836.46
-4839.44
-4842.22
-4844.77
-4847.09
-4849.17
-4851.01
-4852.61
-4853.99
-4855.15
-4856.11
-4856.88
-4857.49
-4857.94
-4858.27
-4858.49
-4858.62
-4858.68
-4858.68
-4858.65
-4858.59
-4858.52
-4858.45
-4858.39
-4858.34
-4858.32
-4787.14
-4787.55
-4788.36
-4789.62
-4791.31
-4793.4
-4795.85
-4798.61
-4801.66
-4804.93
-4808.38
-4811.96
-4815.62
-4819.31
-4822.98
-4826.59
-4830.1
-4833.47
-4836.66
-4839.67
-4842.46
-4845.02
-4847.33
-4849.41
-4851.24
-4852.83
-4854.18
-4855.32
-4856.26
-4857
-4857.58
-4858
-4858.3
-4858.49
-4858.59
-4858.62
-4858.6
-4858.54
-4858.47
-4858.39
-4858.31
-4858.24
-4858.19
-4858.17
-4786.97
-4787.38
-4788.2
-4789.47
-4791.19
-4793.31
-4795.79
-4798.6
-4801.69
-4805
-4808.5
-4812.12
-4815.81
-4819.54
-4823.24
-4826.87
-4830.4
-4833.78
-4836.99
-4839.99
-4842.78
-4845.33
-4847.63
-4849.68
-4851.48
-4853.03
-4854.35
-4855.44
-4856.33
-4857.03
-4857.55
-4857.92
-4858.17
-4858.31
-4858.37
-4858.36
-4858.3
-4858.22
-4858.12
-4858.02
-4857.93
-4857.86
-4857.8
-4857.78
-4786.99
-4787.4
-4788.22
-4789.52
-4791.26
-4793.41
-4795.93
-4798.78
-4801.9
-4805.24
-4808.77
-4812.42
-4816.14
-4819.89
-4823.61
-4827.25
-4830.79
-4834.17
-4837.38
-4840.37
-4843.14
-4845.67
-4847.94
-4849.95
-4851.71
-4853.22
-4854.48
-4855.51
-4856.34
-4856.96
-4857.42
-4857.72
-4857.9
-4857.97
-4857.96
-4857.9
-4857.79
-4857.67
-4857.54
-4857.42
-4857.31
-4857.23
-4857.18
-4857.15
-4787.25
-4787.65
-4788.48
-4789.79
-4791.56
-4793.73
-4796.27
-4799.13
-4802.26
-4805.63
-4809.16
-4812.83
-4816.56
-4820.32
-4824.04
-4827.69
-4831.23
-4834.61
-4837.8
-4840.78
-4843.53
-4846.02
-4848.26
-4850.23
-4851.93
-4853.38
-4854.58
-4855.55
-4856.29
-4856.84
-4857.22
-4857.44
-4857.53
-4857.52
-4857.42
-4857.28
-4857.1
-4856.91
-4856.73
-4856.57
-4856.44
-4856.35
-4856.3
-4856.28
-4787.78
-4788.19
-4789.02
-4790.33
-4792.09
-4794.25
-4796.78
-4799.62
-4802.74
-4806.1
-4809.63
-4813.29
-4817.02
-4820.78
-4824.5
-4828.15
-4831.68
-4835.05
-4838.23
-4841.19
-4843.9
-4846.37
-4848.56
-4850.49
-4852.14
-4853.53
-4854.67
-4855.56
-4856.23
-4856.7
-4856.98
-4857.11
-4857.1
-4856.99
-4856.8
-4856.55
-4856.27
-4855.99
-4855.72
-4855.5
-4855.32
-4855.21
-4855.16
-4855.16
-4788.64
-4789.04
-4789.84
-4791.1
-4792.82
-4794.93
-4797.4
-4800.2
-4803.28
-4806.6
-4810.11
-4813.76
-4817.48
-4821.23
-4824.94
-4828.59
-4832.11
-4835.46
-4838.63
-4841.57
-4844.26
-4846.7
-4848.85
-4850.74
-4852.34
-4853.67
-4854.74
-4855.57
-4856.16
-4856.55
-4856.75
-4856.78
-4856.68
-4856.46
-4856.15
-4855.79
-4855.39
-4854.98
-4854.59
-4854.24
-4853.98
-4853.8
-4853.73
-4853.75
-4789.89
-4790.23
-4790.96
-4792.09
-4793.69
-4795.69
-4798.07
-4800.79
-4803.81
-4807.09
-4810.57
-4814.19
-4817.9
-4821.64
-4825.35
-4828.98
-4832.49
-4835.84
-4839
-4841.92
-4844.59
-4847
-4849.12
-4850.97
-4852.53
-4853.81
-4854.83
-4855.59
-4856.11
-4856.42
-4856.54
-4856.48
-4856.28
-4855.96
-4855.54
-4855.04
-4854.51
-4853.95
-4853.4
-4852.88
-4852.46
-4852.12
-4852
-4851.99
-4791.64
-4791.78
-4792.35
-4793.22
-4794.63
-4796.47
-4798.73
-4801.35
-4804.3
-4807.52
-4810.97
-4814.57
-4818.26
-4821.99
-4825.69
-4829.32
-4832.83
-4836.17
-4839.32
-4842.23
-4844.88
-4847.27
-4849.37
-4851.18
-4852.7
-4853.94
-4854.91
-4855.62
-4856.08
-4856.33
-4856.37
-4856.23
-4855.94
-4855.52
-4854.99
-4854.37
-4853.69
-4852.97
-4852.23
-4851.5
-4850.85
-4850.23
-4849.97
-4849.78
-4794.02
-4793.64
-4793.92
-4794.39
-4795.56
-4797.2
-4799.32
-4801.84
-4804.71
-4807.88
-4811.29
-4814.87
-4818.56
-4822.28
-4825.98
-4829.61
-4833.11
-4836.45
-4839.59
-4842.49
-4845.14
-4847.5
-4849.58
-4851.37
-4852.86
-4854.06
-4854.99
-4855.65
-4856.07
-4856.26
-4856.24
-4856.04
-4855.67
-4855.16
-4854.53
-4853.8
-4852.99
-4852.1
-4851.17
-4850.19
-4849.25
-4848.21
-4847.68
-4847
-4797.18
-4795.72
-4795.55
-4795.51
-4796.4
-4797.83
-4799.81
-4802.23
-4805.03
-4808.16
-4811.54
-4815.11
-4818.78
-4822.5
-4826.2
-4829.83
-4833.34
-4836.68
-4839.81
-4842.71
-4845.34
-4847.7
-4849.76
-4851.53
-4853
-4854.17
-4855.07
-4855.7
-4856.07
-4856.22
-4856.15
-4855.89
-4855.46
-4854.89
-4854.18
-4853.35
-4852.42
-4851.39
-4850.27
-4849.03
-4847.78
-4846.2
-4845.26
-4843.49
-4801.2
-4797.85
-4797.09
-4796.47
-4797.08
-4798.32
-4800.17
-4802.51
-4805.26
-4808.36
-4811.72
-4815.27
-4818.94
-4822.66
-4826.36
-4829.99
-4833.5
-4836.84
-4839.98
-4842.87
-4845.5
-4847.85
-4849.9
-4851.66
-4853.11
-4854.27
-4855.14
-4855.74
-4856.09
-4856.2
-4856.09
-4855.79
-4855.32
-4854.69
-4853.92
-4853.01
-4851.99
-4850.84
-4849.57
-4848.1
-4846.54
-4844.36
-4842.86
-4839.18
-4805.99
-4799.8
-4798.38
-4797.2
-4797.58
-4798.66
-4800.43
-4802.7
-4805.42
-4808.48
-4811.83
-4815.38
-4819.05
-4822.77
-4826.47
-4830.11
-4833.62
-4836.96
-4840.09
-4842.99
-4845.62
-4847.96
-4850
-4851.75
-4853.19
-4854.33
-4855.19
-4855.78
-4856.1
-4856.19
-4856.06
-4855.73
-4855.23
-4854.56
-4853.75
-4852.79
-4851.7
-4850.46
-4849.08
-4847.42
-4845.61
-4842.87
-4840.73
-4834.17
-4811.22
-4801.35
-4799.29
-4797.69
-4797.9
-4798.87
-4800.57
-4802.81
-4805.5
-4808.56
-4811.9
-4815.44
-4819.11
-4822.83
-4826.54
-4830.17
-4833.68
-4837.03
-4840.16
-4843.06
-4845.68
-4848.03
-4850.07
-4851.81
-4853.24
-4854.38
-4855.23
-4855.8
-4856.11
-4856.19
-4856.05
-4855.7
-4855.18
-4854.49
-4853.65
-4852.66
-4851.53
-4850.23
-4848.77
-4847
-4845.01
-4841.84
-4839.07
-4828.8
-4816.15
-4802.33
-4799.78
-4797.94
-4798.05
-4798.97
-4800.65
-4802.86
-4805.54
-4808.59
-4811.93
-4815.47
-4819.14
-4822.86
-4826.56
-4830.2
-4833.72
-4837.06
-4840.2
-4843.09
-4845.72
-4848.06
-4850.1
-4851.83
-4853.26
-4854.4
-4855.24
-4855.81
-4856.12
-4856.19
-4856.04
-4855.69
-4855.15
-4854.45
-4853.6
-4852.6
-4851.45
-4850.13
-4848.63
-4846.8
-4844.71
-4841.29
-4838.04
-4823.8
-4820.1
-4802.76
-4799.95
-4798.03
-4798.1
-4799
-4800.67
-4802.88
-4805.56
-4808.6
-4811.93
-4815.48
-4819.14
-4822.87
-4826.57
-4830.21
-4833.72
-4837.07
-4840.21
-4843.1
-4845.73
-4848.06
-4850.1
-4851.84
-4853.27
-4854.4
-4855.25
-4855.81
-4856.12
-4856.19
-4856.04
-4855.68
-4855.15
-4854.44
-4853.59
-4852.58
-4851.42
-4850.09
-4848.58
-4846.73
-4844.6
-4841.11
-4837.59
-4819.83
)
;

boundaryField
{
    movingWall
    {
        type            zeroGradient;
    }
    fixedWalls
    {
        type            zeroGradient;
    }
    frontAndBack
    {
        type            empty;
    }
    defaultFaces
    {
        type            empty;
    }
}


// ************************************************************************* //
