/*--------------------------------*- C++ -*----------------------------------*\
  =========                 |
  \\      /  F ield         | OpenFOAM: The Open Source CFD Toolbox
   \\    /   O peration     | Website:  https://openfoam.org
    \\  /    A nd           | Version:  7
     \\/     M anipulation  |
\*---------------------------------------------------------------------------*/
FoamFile
{
    version     2.0;
    format      ascii;
    class       volScalarField;
    location    "7.6";
    object      p;
}
// * * * * * * * * * * * * * * * * * * * * * * * * * * * * * * * * * * * * * //

dimensions      [0 2 -2 0 0 0 0];

internalField   nonuniform List<scalar> 
900
(
1.20993e-08
-0.000143096
-0.00031692
-0.000468333
-0.000564907
-0.000588602
-0.000532889
-0.000396612
-0.00018037
0.000114893
0.000487966
0.000936642
0.00145652
0.00203966
0.00267329
0.00333894
0.00401227
0.00466366
0.00526026
0.00576892
0.00616018
0.00641256
0.00651664
0.00647769
0.00631675
0.00606944
0.00578001
0.0055063
0.00530614
0.00523798
0.000140694
-5.31381e-06
-0.000127396
-0.000223066
-0.000273541
-0.000265163
-0.000192138
-5.22684e-05
0.000155202
0.000430253
0.000772063
0.0011785
0.00164525
0.00216485
0.0027257
0.00331126
0.00390125
0.00447005
0.00499013
0.00543411
0.00577801
0.006005
0.00610856
0.00609456
0.00598164
0.00579965
0.00558611
0.00538278
0.00522943
0.00516706
0.000321836
0.000111808
-1.3244e-05
-9.49433e-05
-0.000129558
-0.000108306
-2.82394e-05
0.000111587
0.000311772
0.000572652
0.000894014
0.0012745
0.00171076
0.00219647
0.00272141
0.00327107
0.0038261
0.0043627
0.00485474
0.00527582
0.00560267
0.00581877
0.00591767
0.005905
0.0057987
0.00562692
0.00542448
0.00522878
0.00507323
0.0049769
0.000483676
0.000197129
5.12645e-05
-3.24029e-05
-6.31437e-05
-3.72795e-05
4.45605e-05
0.000181333
0.000373013
0.000620188
0.000923466
0.00128271
0.00169607
0.00215892
0.00266273
0.00319428
0.00373539
0.00426262
0.0047494
0.00516812
0.00549371
0.00570766
0.00580188
0.00578103
0.00566281
0.00547561
0.00525447
0.00503696
0.00485302
0.00470489
0.0005815
0.000218217
4.64546e-05
-4.60839e-05
-7.95906e-05
-5.47712e-05
2.43505e-05
0.000154765
0.000335831
0.00056847
0.000854314
0.00119477
0.00158987
0.00203706
0.00252971
0.00305594
0.00359893
0.00413453
0.00463463
0.00506881
0.00540822
0.00563041
0.00572388
0.0056913
0.00555019
0.00533039
0.0050696
0.0048091
0.00457897
0.00436879
0.000578539
0.000143255
-5.60138e-05
-0.000161524
-0.000202675
-0.000183804
-0.00011186
8.48691e-06
0.000176172
0.000392632
0.000660744
0.000983741
0.00136393
0.00180119
0.00229115
0.00282344
0.00338352
0.00394527
0.00447839
0.00494827
0.00532035
0.00556586
0.00566765
0.00562477
0.00545397
0.00518745
0.00486801
0.00454431
0.00425111
0.00396888
0.000446485
-5.40857e-05
-0.000280391
-0.000401037
-0.000453336
-0.000444667
-0.000384404
-0.000278515
-0.00012823
6.85999e-05
0.000316315
0.000620262
0.000985383
0.00141454
0.00190644
0.00245338
0.00304171
0.00364567
0.00423197
0.00476063
0.00518933
0.00548016
0.00560712
0.0055628
0.0053616
0.00503828
0.00464297
0.0042357
0.00386043
0.0034899
0.000162088
-0.000396716
-0.000648632
-0.000785595
-0.000851938
-0.000857682
-0.000814236
-0.000728557
-0.000601855
-0.000431129
-0.000210432
6.79403e-05
0.000412002
0.0008283
0.00131989
0.00188388
0.0025054
0.00316398
0.00382318
0.00443706
0.0049536
0.00532216
0.00550326
0.00547825
0.00525565
0.00487159
0.0043853
0.00387279
0.00339185
0.00290674
-0.0002947
-0.000904898
-0.00118086
-0.00133524
-0.00141877
-0.00144389
-0.00142383
-0.0013664
-0.00127275
-0.00113909
-0.000957879
-0.000718952
-0.000410811
-2.23316e-05
0.000455095
0.00102428
0.00167652
0.00239551
0.00314448
0.00387285
0.00451756
0.00501115
0.00529398
0.00532834
0.00510991
0.00467222
0.00408422
0.00344327
0.00282678
0.00218731
-0.000941258
-0.00159619
-0.00189488
-0.00206825
-0.00217294
-0.00222382
-0.0022359
-0.00221795
-0.00217133
-0.00209177
-0.0019705
-0.00179508
-0.0015503
-0.00121955
-0.000786791
-0.000240387
0.000420626
0.00119138
0.00203819
0.00290953
0.00373184
0.00441677
0.0048758
0.00503993
0.00487937
0.00441594
0.00372596
0.00293407
0.00214531
0.00129565
-0.00179217
-0.00248517
-0.00280563
-0.00300027
-0.00313129
-0.00321612
-0.00327178
-0.00330842
-0.00332822
-0.00332722
-0.00329629
-0.00322138
-0.00308386
-0.00286102
-0.00252741
-0.002058
-0.0014347
-0.000648245
0.000284557
0.001318
0.00237193
0.00333493
0.00407944
0.00448784
0.00448399
0.00405971
0.00328984
0.00233136
0.00132814
0.000194383
-0.00285865
-0.00358292
-0.00392456
-0.0041435
-0.00430716
-0.00443588
-0.00454922
-0.00465949
-0.00477075
-0.00488076
-0.0049815
-0.00505888
-0.00509187
-0.00505173
-0.00490184
-0.00459879
-0.00409752
-0.003371
-0.00239878
-0.00120818
0.000124219
0.00146669
0.00264394
0.00346823
0.00378576
0.00352596
0.00274074
0.00161919
0.000358534
-0.00115269
-0.00414782
-0.0048965
-0.00525894
-0.0055056
-0.00570886
-0.00589253
-0.00607953
-0.00628547
-0.00651793
-0.00677834
-0.00706221
-0.00735787
-0.00764412
-0.00788733
-0.00803874
-0.00803352
-0.00779461
-0.00724771
-0.00633258
-0.00503366
-0.00340396
-0.00158352
0.000202725
0.00167576
0.00256366
0.00268217
0.00201762
0.0007769
-0.000775118
-0.00277679
-0.00566187
-0.00642834
-0.00681121
-0.00708875
-0.00733813
-0.00758744
-0.00786407
-0.00818851
-0.00857388
-0.0090279
-0.00955273
-0.0101426
-0.0107797
-0.0114279
-0.012027
-0.0124877
-0.0126928
-0.0125085
-0.0118118
-0.0105176
-0.00862779
-0.00626607
-0.00369478
-0.00129552
0.000499286
0.00132212
0.00102029
-0.000223851
-0.00207451
-0.00469686
-0.0073975
-0.00817612
-0.00857867
-0.00888887
-0.00918869
-0.00951151
-0.0098907
-0.0103535
-0.0109208
-0.0116097
-0.0124327
-0.0133939
-0.0144833
-0.0156664
-0.0168733
-0.0179896
-0.0188527
-0.0192595
-0.0189973
-0.0178962
-0.0158664
-0.0129775
-0.0094974
-0.0058989
-0.00280268
-0.000836101
-0.000398741
-0.00141976
-0.0035224
-0.00690638
-0.00934589
-0.0101331
-0.0105537
-0.0108954
-0.0112452
-0.0116432
-0.0121306
-0.0127434
-0.0135127
-0.0144679
-0.015635
-0.0170329
-0.0186633
-0.0204979
-0.022461
-0.0244144
-0.0261482
-0.0273841
-0.0278017
-0.0271436
-0.0251813
-0.0218891
-0.0174903
-0.0125045
-0.00773015
-0.00411118
-0.00242297
-0.002849
-0.0050666
-0.00935053
-0.0114934
-0.0122895
-0.012725
-0.0130918
-0.013483
-0.0139476
-0.0145364
-0.0152965
-0.0162715
-0.0175051
-0.0190401
-0.0209125
-0.0231402
-0.0257045
-0.0285279
-0.0314514
-0.0342209
-0.0364892
-0.0378422
-0.0378666
-0.0362321
-0.03277
-0.0275971
-0.0212038
-0.0145033
-0.00875559
-0.00522015
-0.00452758
-0.00659402
-0.011891
-0.0138238
-0.0146351
-0.0150798
-0.0154572
-0.0158691
-0.0163762
-0.017042
-0.0179265
-0.0190875
-0.0205844
-0.0224778
-0.0248227
-0.0276541
-0.0309654
-0.0346798
-0.0386222
-0.0425002
-0.0459067
-0.0483459
-0.0492622
-0.0482172
-0.0448852
-0.0392285
-0.0316207
-0.0229768
-0.01479
-0.00883841
-0.00639583
-0.00789137
-0.0142561
-0.0163214
-0.0171639
-0.0176076
-0.0179691
-0.018364
-0.018869
-0.0195645
-0.0205255
-0.0218248
-0.0235377
-0.025742
-0.0285104
-0.0318944
-0.0358984
-0.0404474
-0.0453542
-0.0502964
-0.0548171
-0.0583509
-0.0602625
-0.0599901
-0.0570679
-0.0512859
-0.0428313
-0.0324893
-0.0218275
-0.0130607
-0.00822513
-0.0085892
-0.0159731
-0.0189777
-0.0198807
-0.0203058
-0.0206071
-0.0209239
-0.021357
-0.0220083
-0.0229706
-0.024332
-0.0261821
-0.0286135
-0.0317135
-0.0355462
-0.0401238
-0.045372
-0.0510935
-0.0569439
-0.0624309
-0.0669423
-0.0697927
-0.0703303
-0.0679808
-0.0623757
-0.0534883
-0.0418701
-0.0289746
-0.0172581
-0.0094969
-0.00808909
-0.0162794
-0.0218019
-0.0228125
-0.0231874
-0.0233573
-0.0235044
-0.0237652
-0.0242706
-0.0251334
-0.026456
-0.0283402
-0.030889
-0.0341993
-0.038342
-0.0433322
-0.0490929
-0.0554176
-0.0619457
-0.0681623
-0.0734287
-0.0770405
-0.0782546
-0.0764614
-0.0711625
-0.0621325
-0.0496479
-0.034897
-0.0203276
-0.00928447
-0.00547534
-0.0140089
-0.0248388
-0.0260245
-0.0262906
-0.0262165
-0.0260619
-0.0260165
-0.0262477
-0.02689
-0.0280581
-0.0298615
-0.0324085
-0.0357993
-0.0401048
-0.0453366
-0.0514114
-0.0581111
-0.0650637
-0.0717392
-0.0774805
-0.0815576
-0.0832227
-0.081797
-0.0766985
-0.067552
-0.0543833
-0.0380471
-0.0207702
-0.00620494
0.000580029
-0.00745721
-0.028206
-0.0296471
-0.0296913
-0.0291959
-0.0285552
-0.0280337
-0.0278414
-0.0281324
-0.0290288
-0.0306415
-0.0330777
-0.0364334
-0.0407724
-0.0460959
-0.0523127
-0.0591862
-0.0663331
-0.0732107
-0.0791483
-0.083397
-0.0851901
-0.0838096
-0.0785772
-0.0690194
-0.0549644
-0.0369564
-0.0168923
0.00152114
0.0119133
0.00576971
-0.0321704
-0.0339198
-0.0335192
-0.0323223
-0.0309442
-0.0297424
-0.0289662
-0.0287798
-0.0293021
-0.0306369
-0.0328809
-0.0361188
-0.0404011
-0.0457127
-0.0519403
-0.0588359
-0.0659982
-0.07287
-0.078763
-0.0829034
-0.0844903
-0.0827103
-0.0768519
-0.0663199
-0.0507554
-0.0304924
-0.00706476
0.0159647
0.0309881
0.0288993
-0.0373176
-0.0392606
-0.0379711
-0.0356337
-0.0331857
-0.0310719
-0.0295555
-0.0287872
-0.0288651
-0.029872
-0.0318828
-0.0349652
-0.0391453
-0.0443866
-0.0505516
-0.0573712
-0.0644231
-0.0711299
-0.0767771
-0.080548
-0.0815734
-0.0789726
-0.0718919
-0.0595997
-0.0416158
-0.018051
0.00993959
0.0393695
0.0609581
0.0659641
-0.0449486
-0.0463728
-0.043298
-0.0391499
-0.035209
-0.0319361
-0.0295455
-0.0281316
-0.027742
-0.0284196
-0.0302086
-0.0331424
-0.0372201
-0.0423758
-0.0484435
-0.0551267
-0.0619782
-0.0683942
-0.0736254
-0.0768003
-0.076964
-0.0731004
-0.0641978
-0.0493254
-0.0277886
0.000511528
0.0345985
0.0734906
0.105061
0.121567
-0.0582266
-0.0564314
-0.0497422
-0.0427863
-0.0368312
-0.0321524
-0.0287977
-0.026739
-0.0259294
-0.0263452
-0.0279791
-0.0308226
-0.034838
-0.0399242
-0.0458829
-0.052388
-0.0589648
-0.06498
-0.0696455
-0.0720335
-0.071101
-0.0656281
-0.0544298
-0.036288
-0.0101637
0.0245086
0.0674411
0.11764
0.164595
0.202521
-0.0851754
-0.0708592
-0.0574675
-0.0462427
-0.037609
-0.0313192
-0.0270181
-0.0244345
-0.0233647
-0.0236788
-0.0252981
-0.0281623
-0.0321921
-0.037251
-0.0431103
-0.0494178
-0.0556741
-0.0612181
-0.0652213
-0.0666962
-0.0645234
-0.0573838
-0.0437911
-0.0221579
0.00907707
0.0513365
0.105366
0.171473
0.240144
0.322504
-0.137422
-0.0862432
-0.0643118
-0.0472109
-0.0354701
-0.0278431
-0.0230944
-0.0204704
-0.0195454
-0.020079
-0.021929
-0.0249937
-0.0291649
-0.0342854
-0.040111
-0.0462785
-0.0522818
-0.0574533
-0.060949
-0.0617315
-0.058553
-0.0501932
-0.0348896
-0.0106472
0.0247759
0.0742795
0.14095
0.229866
0.337708
0.507436
-0.310136
-0.0960281
-0.0471481
-0.0286362
-0.0182818
-0.0128449
-0.0105206
-0.0100257
-0.0107829
-0.0126063
-0.0154369
-0.0192372
-0.0239472
-0.0294488
-0.0355317
-0.0418638
-0.0479679
-0.0532063
-0.0567721
-0.0576925
-0.0548179
-0.0465892
-0.0313576
-0.00710696
0.0288405
0.0808589
0.155587
0.270708
0.445799
0.789592
)
;

boundaryField
{
    movingWall
    {
        type            zeroGradient;
    }
    fixedWalls
    {
        type            zeroGradient;
    }
    frontAndBack
    {
        type            empty;
    }
}


// ************************************************************************* //
