/*--------------------------------*- C++ -*----------------------------------*\
  =========                 |
  \\      /  F ield         | OpenFOAM: The Open Source CFD Toolbox
   \\    /   O peration     | Website:  https://openfoam.org
    \\  /    A nd           | Version:  7
     \\/     M anipulation  |
\*---------------------------------------------------------------------------*/
FoamFile
{
    version     2.0;
    format      ascii;
    class       volVectorField;
    location    "7.6";
    object      U;
}
// * * * * * * * * * * * * * * * * * * * * * * * * * * * * * * * * * * * * * //

dimensions      [0 1 -1 0 0 0 0];

internalField   nonuniform List<vector> 
900
(
(8.36869e-05 -8.25293e-05 0)
(7.34593e-05 3.38298e-07 0)
(-0.000262847 0.00010301 0)
(-0.000858597 0.000180687 0)
(-0.001641 0.000229539 0)
(-0.00254316 0.000255784 0)
(-0.00350941 0.000266876 0)
(-0.00449807 0.00026824 0)
(-0.00547743 0.000262757 0)
(-0.00642056 0.000251261 0)
(-0.00730109 0.000233174 0)
(-0.00809054 0.000207108 0)
(-0.00875703 0.000171423 0)
(-0.00926567 0.000124785 0)
(-0.00958049 6.67274e-05 0)
(-0.00966781 -1.87696e-06 0)
(-0.00950054 -7.8872e-05 0)
(-0.00906357 -0.000159556 0)
(-0.00835936 -0.00023765 0)
(-0.00741181 -0.00030561 0)
(-0.00626836 -0.000355496 0)
(-0.00499896 -0.000380203 0)
(-0.00369123 -0.000374758 0)
(-0.00244222 -0.000337421 0)
(-0.00134755 -0.000270244 0)
(-0.00048856 -0.000179405 0)
(7.50543e-05 -7.6292e-05 0)
(0.000319802 2.55247e-05 0)
(0.000279145 0.000101588 0)
(9.78203e-05 9.78963e-05 0)
(2.33994e-06 -7.62014e-05 0)
(-0.000397734 0.000392937 0)
(-0.00150098 0.000903674 0)
(-0.00313854 0.00131077 0)
(-0.00518312 0.00159181 0)
(-0.00750514 0.001761 0)
(-0.00998458 0.00184188 0)
(-0.0125211 0.00185451 0)
(-0.0150305 0.00181119 0)
(-0.0174373 0.00171655 0)
(-0.019668 0.00156942 0)
(-0.0216466 0.0013652 0)
(-0.0232928 0.00109866 0)
(-0.0245233 0.000766684 0)
(-0.0252564 0.000370975 0)
(-0.0254198 -7.97819e-05 0)
(-0.0249589 -0.000567919 0)
(-0.0238482 -0.00106611 0)
(-0.0221026 -0.00153886 0)
(-0.0197839 -0.00194517 0)
(-0.0170045 -0.00224329 0)
(-0.0139243 -0.0023968 0)
(-0.0107397 -0.00238109 0)
(-0.0076667 -0.00218885 0)
(-0.00491736 -0.00183345 0)
(-0.00267362 -0.00135024 0)
(-0.00106206 -0.000797777 0)
(-0.000127142 -0.000254898 0)
(0.00019137 0.000164398 0)
(0.000105533 0.000275416 0)
(-0.000109907 0.000267166 0)
(-0.000969471 0.00151124 0)
(-0.00287185 0.00273829 0)
(-0.00548709 0.00372439 0)
(-0.00864016 0.00442546 0)
(-0.0121647 0.00486189 0)
(-0.0159005 0.00507514 0)
(-0.0197076 0.00510388 0)
(-0.0234636 0.00497362 0)
(-0.0270555 0.00469507 0)
(-0.0303727 0.0042671 0)
(-0.0333022 0.00368177 0)
(-0.0357269 0.00293052 0)
(-0.0375283 0.0020107 0)
(-0.0385924 0.000931813 0)
(-0.0388202 -0.000279295 0)
(-0.0381389 -0.00157432 0)
(-0.036517 -0.0028833 0)
(-0.0339779 -0.00411729 0)
(-0.030609 -0.0051754 0)
(-0.0265663 -0.00595604 0)
(-0.0220707 -0.00637124 0)
(-0.0173941 -0.00636198 0)
(-0.0128367 -0.00591148 0)
(-0.00869479 -0.00505399 0)
(-0.0052255 -0.00387783 0)
(-0.00261018 -0.00252458 0)
(-0.000919689 -0.00118716 0)
(-9.24357e-05 -0.000115872 0)
(6.08097e-05 0.000350464 0)
(-0.00021186 0.000925117 0)
(-0.00151289 0.00328068 0)
(-0.00418711 0.00542286 0)
(-0.00771943 0.00711745 0)
(-0.0118773 0.00832351 0)
(-0.0164621 0.00907757 0)
(-0.0212847 0.00944231 0)
(-0.0261784 0.00947568 0)
(-0.0309947 0.00921629 0)
(-0.0355945 0.00868072 0)
(-0.0398401 0.00786766 0)
(-0.043591 0.00676589 0)
(-0.0467023 0.00536431 0)
(-0.0490275 0.00366264 0)
(-0.0504265 0.00168182 0)
(-0.0507765 -0.000527342 0)
(-0.0499856 -0.00287925 0)
(-0.0480101 -0.0052504 0)
(-0.0448714 -0.00748572 0)
(-0.0406676 -0.00940988 0)
(-0.0355809 -0.0108461 0)
(-0.0298756 -0.01164 0)
(-0.0238834 -0.0116868 0)
(-0.017977 -0.010954 0)
(-0.0125307 -0.0094989 0)
(-0.00787623 -0.00747359 0)
(-0.00425545 -0.00512159 0)
(-0.00177692 -0.00276834 0)
(-0.00039768 -0.00081217 0)
(1.58368e-05 0.000256981 0)
(-0.000297456 0.00186488 0)
(-0.00199926 0.00566305 0)
(-0.00539119 0.00890746 0)
(-0.00977292 0.0114158 0)
(-0.0148502 0.0131849 0)
(-0.0203926 0.0142846 0)
(-0.026187 0.0148061 0)
(-0.0320483 0.014829 0)
(-0.037812 0.014405 0)
(-0.0433222 0.013556 0)
(-0.0484236 0.0122793 0)
(-0.0529563 0.0105595 0)
(-0.0567537 0.00838201 0)
(-0.0596458 0.00574869 0)
(-0.0614665 0.00269218 0)
(-0.0620662 -0.000711513 0)
(-0.0613253 -0.00433592 0)
(-0.0591744 -0.00799783 0)
(-0.0556164 -0.0114666 0)
(-0.0507418 -0.0144795 0)
(-0.0447421 -0.0167677 0)
(-0.0379118 -0.0180925 0)
(-0.0306369 -0.0182855 0)
(-0.0233653 -0.0172867 0)
(-0.0165613 -0.0151718 0)
(-0.0106484 -0.0121632 0)
(-0.00594943 -0.00862141 0)
(-0.0026286 -0.00502344 0)
(-0.000675107 -0.00193221 0)
(-1.43975e-05 8.47243e-06 0)
(-0.000368928 0.00305332 0)
(-0.00242742 0.00860696 0)
(-0.0064733 0.0131371 0)
(-0.0116346 0.01656 0)
(-0.0175567 0.0189436 0)
(-0.0239781 0.0204116 0)
(-0.0306659 0.0210944 0)
(-0.037423 0.0210979 0)
(-0.0440766 0.0204883 0)
(-0.050463 0.019292 0)
(-0.0564175 0.0175033 0)
(-0.0617678 0.0150998 0)
(-0.066331 0.0120602 0)
(-0.0699145 0.00838438 0)
(-0.0723237 0.0041124 0)
(-0.0733743 -0.000657838 0)
(-0.0729049 -0.00575842 0)
(-0.070801 -0.0109463 0)
(-0.0670248 -0.0159075 0)
(-0.0616356 -0.0202771 0)
(-0.0548129 -0.0236734 0)
(-0.0468687 -0.0257466 0)
(-0.0382409 -0.0262369 0)
(-0.0294646 -0.0250332 0)
(-0.0211182 -0.0222174 0)
(-0.0137512 -0.0180843 0)
(-0.00780214 -0.0131294 0)
(-0.00351871 -0.00800893 0)
(-0.00093541 -0.00348146 0)
(-3.05598e-05 -0.000371349 0)
(-0.000429812 0.00445888 0)
(-0.00280441 0.0120546 0)
(-0.00744019 0.0180446 0)
(-0.0133127 0.0224801 0)
(-0.0200124 0.02553 0)
(-0.0272497 0.0273921 0)
(-0.0347765 0.0282489 0)
(-0.0423897 0.0282389 0)
(-0.0499156 0.0274456 0)
(-0.0571908 0.0258991 0)
(-0.0640496 0.0235885 0)
(-0.070314 0.0204798 0)
(-0.075789 0.0165387 0)
(-0.0802607 0.0117545 0)
(-0.0835008 0.00616555 0)
(-0.0852781 -0.000117865 0)
(-0.0853737 -0.00689213 0)
(-0.0836053 -0.0138589 0)
(-0.0798637 -0.0206155 0)
(-0.0741467 -0.0266792 0)
(-0.0665949 -0.0315281 0)
(-0.0575181 -0.034664 0)
(-0.0474014 -0.0356935 0)
(-0.0368812 -0.0344146 0)
(-0.0266838 -0.0308894 0)
(-0.0175327 -0.0254812 0)
(-0.0100349 -0.0188418 0)
(-0.00456404 -0.0118483 0)
(-0.00122113 -0.00550626 0)
(-3.94698e-05 -0.000875456 0)
(-0.000482631 0.0060551 0)
(-0.00313706 0.0159521 0)
(-0.00830155 0.0235651 0)
(-0.0148196 0.0291098 0)
(-0.0222343 0.0328821 0)
(-0.0302333 0.0351738 0)
(-0.0385582 0.036232 0)
(-0.0470068 0.0362363 0)
(-0.0554119 0.0352905 0)
(-0.0636189 0.0334289 0)
(-0.0714691 0.0306319 0)
(-0.0787865 0.0268476 0)
(-0.0853688 0.0220189 0)
(-0.0909816 0.0161123 0)
(-0.0953591 0.00914908 0)
(-0.09821 0.00123599 0)
(-0.0992403 -0.0074059 0)
(-0.0981743 -0.0164285 0)
(-0.0947958 -0.0253394 0)
(-0.0890042 -0.0335235 0)
(-0.0808639 -0.0402864 0)
(-0.0706526 -0.0449325 0)
(-0.0588881 -0.0468734 0)
(-0.0463163 -0.0457545 0)
(-0.033848 -0.0415707 0)
(-0.0224421 -0.0347372 0)
(-0.0129477 -0.0260849 0)
(-0.00592921 -0.0167704 0)
(-0.00159312 -0.00812407 0)
(-5.05788e-05 -0.00152646 0)
(-0.000528556 0.00781919 0)
(-0.00342909 0.0202497 0)
(-0.00906325 0.0296372 0)
(-0.0161624 0.0363868 0)
(-0.0242306 0.0409438 0)
(-0.032939 0.0437125 0)
(-0.0420254 0.0450184 0)
(-0.0512947 0.0450904 0)
(-0.0605944 0.0440573 0)
(-0.0697872 0.041958 0)
(-0.0787306 0.0387605 0)
(-0.0872587 0.0343873 0)
(-0.095168 0.0287456 0)
(-0.102206 0.0217619 0)
(-0.108067 0.0134187 0)
(-0.112392 0.00379552 0)
(-0.114794 -0.00689349 0)
(-0.114874 -0.018266 0)
(-0.112275 -0.0297459 0)
(-0.106756 -0.040574 0)
(-0.0982575 -0.0498494 0)
(-0.0869814 -0.0566195 0)
(-0.0734448 -0.0600201 0)
(-0.0584958 -0.0594531 0)
(-0.0432583 -0.0547667 0)
(-0.0289958 -0.0463865 0)
(-0.0168967 -0.0353389 0)
(-0.00781229 -0.0231357 0)
(-0.00212327 -0.011543 0)
(-7.40532e-05 -0.00238261 0)
(-0.000567711 0.0097296 0)
(-0.00368087 0.0248992 0)
(-0.00972528 0.0362 0)
(-0.0173392 0.0442478 0)
(-0.0259962 0.0496577 0)
(-0.0353569 0.0529632 0)
(-0.0451614 0.0545818 0)
(-0.0552288 0.0548012 0)
(-0.0654289 0.0537805 0)
(-0.0756506 0.0515645 0)
(-0.0857766 0.0481051 0)
(-0.0956605 0.0432901 0)
(-0.105106 0.0369761 0)
(-0.113847 0.0290273 0)
(-0.121539 0.0193604 0)
(-0.127751 0.00799542 0)
(-0.13199 -0.0048896 0)
(-0.133713 -0.0189031 0)
(-0.132393 -0.0334048 0)
(-0.127603 -0.0474874 0)
(-0.119108 -0.0600128 0)
(-0.106971 -0.0697082 0)
(-0.0916531 -0.0753361 0)
(-0.0740656 -0.0759313 0)
(-0.0555501 -0.0710709 0)
(-0.0377381 -0.0611049 0)
(-0.0222751 -0.0472484 0)
(-0.0104369 -0.0314547 0)
(-0.00289205 -0.0160763 0)
(-0.000120446 -0.0035423 0)
(-0.00059952 0.0117641 0)
(-0.00389011 0.0298507 0)
(-0.0102822 0.0431897 0)
(-0.0183394 0.0526252 0)
(-0.0275119 0.0589592 0)
(-0.0374553 0.0628705 0)
(-0.0479173 0.0648823 0)
(-0.0587371 0.0653513 0)
(-0.0698136 0.0644735 0)
(-0.0810699 0.0623012 0)
(-0.0924232 0.0587675 0)
(-0.103756 0.0537157 0)
(-0.114887 0.0469352 0)
(-0.125547 0.0382042 0)
(-0.135358 0.0273418 0)
(-0.143822 0.0142712 0)
(-0.150332 -0.000904672 0)
(-0.154199 -0.0178183 0)
(-0.154705 -0.0357962 0)
(-0.151204 -0.053793 0)
(-0.143231 -0.070417 0)
(-0.130639 -0.0840202 0)
(-0.113744 -0.0928882 0)
(-0.093441 -0.0955369 0)
(-0.0712444 -0.0910918 0)
(-0.049185 -0.0796703 0)
(-0.029491 -0.0626143 0)
(-0.0140473 -0.0423975 0)
(-0.00398856 -0.0221537 0)
(-0.000201079 -0.00514794 0)
(-0.000623033 0.0138985 0)
(-0.00405302 0.035051 0)
(-0.0107254 0.0505372 0)
(-0.0191461 0.0614422 0)
(-0.028748 0.0687698 0)
(-0.0391847 0.0733594 0)
(-0.0502154 0.0758531 0)
(-0.0617032 0.0766877 0)
(-0.0735811 0.0761035 0)
(-0.0858123 0.0741639 0)
(-0.0983557 0.0707804 0)
(-0.111131 0.0657433 0)
(-0.123982 0.0587585 0)
(-0.136648 0.0494936 0)
(-0.148731 0.0376382 0)
(-0.159676 0.0229813 0)
(-0.168776 0.00550746 0)
(-0.175206 -0.0144951 0)
(-0.178068 -0.0363467 0)
(-0.176478 -0.0588961 0)
(-0.169704 -0.0805081 0)
(-0.157314 -0.0991313 0)
(-0.139368 -0.112487 0)
(-0.116608 -0.118407 0)
(-0.0906013 -0.115327 0)
(-0.063741 -0.102876 0)
(-0.0389346 -0.0823559 0)
(-0.0189024 -0.0567911 0)
(-0.00551232 -0.0303303 0)
(-0.000329085 -0.00739067 0)
(-0.000637303 0.0161063 0)
(-0.00416598 0.0404426 0)
(-0.0110462 0.058166 0)
(-0.0197416 0.0706101 0)
(-0.0296704 0.0789924 0)
(-0.0404856 0.0843267 0)
(-0.0519583 0.0873875 0)
(-0.0639769 0.0887035 0)
(-0.0765101 0.0885676 0)
(-0.0895639 0.0870584 0)
(-0.103143 0.0840652 0)
(-0.117209 0.0793182 0)
(-0.131642 0.0724257 0)
(-0.146199 0.0629232 0)
(-0.160481 0.0503421 0)
(-0.173906 0.0343025 0)
(-0.185702 0.0146289 0)
(-0.194938 -0.00851915 0)
(-0.200564 -0.0345026 0)
(-0.20149 -0.0621168 0)
(-0.196705 -0.0895292 0)
(-0.185436 -0.114304 0)
(-0.167362 -0.133557 0)
(-0.142888 -0.14429 0)
(-0.113425 -0.143976 0)
(-0.0815705 -0.13138 0)
(-0.0509216 -0.107427 0)
(-0.0252646 -0.0755954 0)
(-0.00757589 -0.0412921 0)
(-0.000521133 -0.0105168 0)
(-0.000641826 0.0183589 0)
(-0.00422768 0.0459643 0)
(-0.0112409 0.0659929 0)
(-0.0201143 0.0800272 0)
(-0.0302512 0.0895074 0)
(-0.0413013 0.0956343 0)
(-0.0530452 0.0993286 0)
(-0.0653942 0.101222 0)
(-0.0783502 0.10167 0)
(-0.0919602 0.100771 0)
(-0.106273 0.0983929 0)
(-0.121296 0.0942019 0)
(-0.136951 0.0876991 0)
(-0.153027 0.0782733 0)
(-0.169148 0.0652775 0)
(-0.184737 0.0481367 0)
(-0.199015 0.0264841 0)
(-0.211004 0.000317298 0)
(-0.21957 -0.0298334 0)
(-0.223481 -0.0627727 0)
(-0.221488 -0.0965629 0)
(-0.212453 -0.128468 0)
(-0.195576 -0.155037 0)
(-0.170717 -0.172369 0)
(-0.138834 -0.17671 0)
(-0.102418 -0.165482 0)
(-0.0655953 -0.138663 0)
(-0.0333722 -0.099844 0)
(-0.0103052 -0.0558521 0)
(-0.000799619 -0.0148363 0)
(-0.000637088 0.0206282 0)
(-0.00424191 0.0515557 0)
(-0.0113168 0.0739315 0)
(-0.0202688 0.0895808 0)
(-0.0304813 0.100172 0)
(-0.0415946 0.107107 0)
(-0.0533932 0.111463 0)
(-0.0658049 0.113988 0)
(-0.0788586 0.115109 0)
(-0.0926353 0.114949 0)
(-0.107223 0.113359 0)
(-0.122672 0.109939 0)
(-0.138946 0.104083 0)
(-0.155884 0.095028 0)
(-0.173156 0.0819419 0)
(-0.190239 0.0640463 0)
(-0.206405 0.040769 0)
(-0.220719 0.0119182 0)
(-0.232055 -0.022138 0)
(-0.239147 -0.0602954 0)
(-0.240601 -0.100638 0)
(-0.234956 -0.140287 0)
(-0.220887 -0.175369 0)
(-0.197534 -0.201134 0)
(-0.165059 -0.212432 0)
(-0.125392 -0.204834 0)
(-0.0827776 -0.176549 0)
(-0.043382 -0.130527 0)
(-0.013834 -0.0749279 0)
(-0.0011948 -0.0207302 0)
(-0.000625221 0.0228896 0)
(-0.00422081 0.0571635 0)
(-0.0112998 0.0818997 0)
(-0.0202371 0.099153 0)
(-0.0303862 0.110826 0)
(-0.0413683 0.118532 0)
(-0.0529635 0.123521 0)
(-0.0651077 0.126667 0)
(-0.0778468 0.128474 0)
(-0.0912857 0.1291 0)
(-0.105542 0.12838 0)
(-0.120701 0.125858 0)
(-0.136774 0.120822 0)
(-0.153655 0.112368 0)
(-0.171091 0.0994914 0)
(-0.188658 0.0812224 0)
(-0.205749 0.0567922 0)
(-0.221565 0.0258154 0)
(-0.235096 -0.0115357 0)
(-0.245175 -0.0543711 0)
(-0.250403 -0.100902 0)
(-0.249111 -0.148328 0)
(-0.239498 -0.192617 0)
(-0.219897 -0.228394 0)
(-0.189383 -0.249134 0)
(-0.148779 -0.248152 0)
(-0.101782 -0.220897 0)
(-0.0552758 -0.168389 0)
(-0.0182884 -0.0994844 0)
(-0.00174686 -0.0286561 0)
(-0.000610825 0.025128 0)
(-0.00418899 0.0627531 0)
(-0.0112428 0.0898309 0)
(-0.0200918 0.108631 0)
(-0.0300425 0.121298 0)
(-0.0406859 0.12967 0)
(-0.0517886 0.135185 0)
(-0.0632855 0.138852 0)
(-0.0752296 0.141261 0)
(-0.0877382 0.142609 0)
(-0.100948 0.142725 0)
(-0.114971 0.141103 0)
(-0.129865 0.136944 0)
(-0.145591 0.129224 0)
(-0.161997 0.116796 0)
(-0.178796 0.0985312 0)
(-0.195562 0.0734938 0)
(-0.211718 0.0411232 0)
(-0.226511 0.00138523 0)
(-0.238966 -0.0451087 0)
(-0.247818 -0.0968437 0)
(-0.251401 -0.151341 0)
(-0.24759 -0.20476 0)
(-0.233967 -0.251495 0)
(-0.20837 -0.283942 0)
(-0.170034 -0.29303 0)
(-0.121257 -0.270506 0)
(-0.0687367 -0.213643 0)
(-0.0237622 -0.130425 0)
(-0.00250869 -0.0391434 0)
(-0.000602119 0.0273458 0)
(-0.00418862 0.0683235 0)
(-0.0112364 0.0976904 0)
(-0.0199595 0.11792 0)
(-0.029595 0.131417 0)
(-0.0396915 0.140266 0)
(-0.0499959 0.146105 0)
(-0.0604366 0.150092 0)
(-0.0710667 0.152906 0)
(-0.0820074 0.15479 0)
(-0.0934053 0.155573 0)
(-0.105397 0.154717 0)
(-0.118083 0.15136 0)
(-0.131503 0.144394 0)
(-0.145623 0.132569 0)
(-0.16033 0.114648 0)
(-0.175418 0.0895747 0)
(-0.190591 0.0566457 0)
(-0.205426 0.0156388 0)
(-0.219256 -0.0330953 0)
(-0.231097 -0.088487 0)
(-0.239476 -0.148587 0)
(-0.242185 -0.210117 0)
(-0.236285 -0.267775 0)
(-0.218447 -0.313458 0)
(-0.186048 -0.336013 0)
(-0.139176 -0.322909 0)
(-0.0830386 -0.265612 0)
(-0.0302892 -0.168418 0)
(-0.00355136 -0.0527802 0)
(-0.000612883 0.0295748 0)
(-0.00428689 0.0739289 0)
(-0.0114215 0.105496 0)
(-0.0200367 0.126962 0)
(-0.0292712 0.14103 0)
(-0.0386237 0.150062 0)
(-0.0478218 0.155919 0)
(-0.0567904 0.159913 0)
(-0.0655832 0.162822 0)
(-0.0743238 0.164933 0)
(-0.0831665 0.166091 0)
(-0.092271 0.165742 0)
(-0.101785 0.162993 0)
(-0.111836 0.156692 0)
(-0.122524 0.145541 0)
(-0.133923 0.128248 0)
(-0.146076 0.103696 0)
(-0.158985 0.0710872 0)
(-0.172574 0.0300477 0)
(-0.186558 -0.0193254 0)
(-0.20035 -0.076457 0)
(-0.212814 -0.14007 0)
(-0.221941 -0.207774 0)
(-0.22462 -0.275142 0)
(-0.216684 -0.33437 0)
(-0.193717 -0.373031 0)
(-0.153057 -0.374415 0)
(-0.0970067 -0.32242 0)
(-0.0378204 -0.213664 0)
(-0.00497583 -0.0701932 0)
(-0.000666277 0.0318931 0)
(-0.00458805 0.0797063 0)
(-0.012007 0.113339 0)
(-0.0206067 0.135748 0)
(-0.0293943 0.150006 0)
(-0.0378217 0.158809 0)
(-0.0456123 0.164265 0)
(-0.0527033 0.16785 0)
(-0.059161 0.17044 0)
(-0.0651196 0.172373 0)
(-0.0707477 0.173516 0)
(-0.0762332 0.173322 0)
(-0.0817794 0.1709 0)
(-0.0876068 0.165099 0)
(-0.0939581 0.154625 0)
(-0.1011 0.138191 0)
(-0.109319 0.114667 0)
(-0.118906 0.0832163 0)
(-0.130112 0.0433548 0)
(-0.143042 -0.00505371 0)
(-0.157526 -0.0618881 0)
(-0.172864 -0.126584 0)
(-0.187489 -0.19784 0)
(-0.198524 -0.272572 0)
(-0.201488 -0.344157 0)
(-0.190605 -0.400104 0)
(-0.160393 -0.420501 0)
(-0.109096 -0.380861 0)
(-0.046213 -0.265626 0)
(-0.00693415 -0.0920326 0)
(-0.000802937 0.0344522 0)
(-0.00525485 0.085913 0)
(-0.0132969 0.121416 0)
(-0.0220592 0.144331 0)
(-0.0303889 0.158247 0)
(-0.037717 0.166271 0)
(-0.0438003 0.170796 0)
(-0.0486221 0.173466 0)
(-0.0522883 0.17525 0)
(-0.0549624 0.176536 0)
(-0.0568412 0.177219 0)
(-0.0581523 0.176783 0)
(-0.0591623 0.174369 0)
(-0.0601896 0.168869 0)
(-0.061617 0.159043 0)
(-0.0638941 0.14365 0)
(-0.067529 0.121598 0)
(-0.0730638 0.0920423 0)
(-0.0810283 0.0544253 0)
(-0.0918701 0.00842021 0)
(-0.105781 -0.0461953 0)
(-0.12252 -0.109541 0)
(-0.141113 -0.181416 0)
(-0.159272 -0.260337 0)
(-0.172822 -0.341609 0)
(-0.175378 -0.414102 0)
(-0.159092 -0.456497 0)
(-0.117574 -0.436576 0)
(-0.05521 -0.322774 0)
(-0.00965392 -0.118971 0)
(-0.00109866 0.0375244 0)
(-0.00654844 0.0929773 0)
(-0.0157301 0.13004 0)
(-0.0249109 0.152821 0)
(-0.0327741 0.165662 0)
(-0.0387983 0.172207 0)
(-0.0428443 0.175166 0)
(-0.0449996 0.17635 0)
(-0.04545 0.176804 0)
(-0.0444167 0.176956 0)
(-0.0421439 0.176736 0)
(-0.0389112 0.175668 0)
(-0.0350539 0.172954 0)
(-0.0309841 0.167567 0)
(-0.0272139 0.158357 0)
(-0.0243508 0.144162 0)
(-0.0230843 0.123952 0)
(-0.024161 0.0969027 0)
(-0.0283266 0.062406 0)
(-0.0362584 0.0199927 0)
(-0.0484502 -0.0308107 0)
(-0.0650986 -0.0906687 0)
(-0.0858225 -0.160323 0)
(-0.10916 -0.239864 0)
(-0.131824 -0.326979 0)
(-0.147746 -0.413234 0)
(-0.147659 -0.47829 0)
(-0.120686 -0.4845 0)
(-0.0643682 -0.382424 0)
(-0.0134406 -0.151709 0)
(-0.00170258 0.0415884 0)
(-0.00890168 0.101564 0)
(-0.0199366 0.139655 0)
(-0.0298131 0.161342 0)
(-0.0371146 0.17212 0)
(-0.0415096 0.17632 0)
(-0.043082 0.176992 0)
(-0.0421055 0.176088 0)
(-0.0388991 0.174699 0)
(-0.0337747 0.17327 0)
(-0.0270428 0.171752 0)
(-0.0190434 0.169723 0)
(-0.0101785 0.166463 0)
(-0.000936524 0.161043 0)
(0.00806372 0.152425 0)
(0.0160937 0.139559 0)
(0.0223382 0.121489 0)
(0.0259079 0.0974183 0)
(0.0259102 0.0667076 0)
(0.0215116 0.0287846 0)
(0.0120019 -0.0170269 0)
(-0.00316501 -0.0717413 0)
(-0.0241571 -0.136715 0)
(-0.0504113 -0.213356 0)
(-0.0799367 -0.301762 0)
(-0.107912 -0.397153 0)
(-0.124981 -0.482764 0)
(-0.116629 -0.519368 0)
(-0.0728592 -0.440656 0)
(-0.0185957 -0.190914 0)
(-0.0029166 0.0474922 0)
(-0.0130465 0.112649 0)
(-0.0267936 0.150776 0)
(-0.0374904 0.169925 0)
(-0.0438408 0.177319 0)
(-0.0459683 0.178138 0)
(-0.0443583 0.175752 0)
(-0.0395774 0.172185 0)
(-0.0321374 0.168509 0)
(-0.0224735 0.165144 0)
(-0.0109734 0.162041 0)
(0.00196467 0.158827 0)
(0.0158848 0.154861 0)
(0.0302439 0.149326 0)
(0.0443709 0.141302 0)
(0.0574732 0.129865 0)
(0.0686603 0.114141 0)
(0.076968 0.0933686 0)
(0.0814193 0.0668852 0)
(0.0810752 0.0340423 0)
(0.0750449 -0.00596297 0)
(0.0625643 -0.0543034 0)
(0.0429956 -0.112666 0)
(0.016003 -0.183287 0)
(-0.0178485 -0.268225 0)
(-0.0557332 -0.366715 0)
(-0.0897697 -0.467891 0)
(-0.103229 -0.535991 0)
(-0.0790802 -0.492157 0)
(-0.0251469 -0.236911 0)
(-0.00535002 0.0567705 0)
(-0.020207 0.127562 0)
(-0.0373835 0.163791 0)
(-0.0484117 0.178213 0)
(-0.0526629 0.180503 0)
(-0.0511645 0.176765 0)
(-0.0450506 0.17057 0)
(-0.0353038 0.163871 0)
(-0.0226861 0.157616 0)
(-0.00777901 0.152131 0)
(0.00895939 0.147335 0)
(0.0270918 0.142866 0)
(0.0461378 0.13816 0)
(0.0655517 0.132507 0)
(0.0846667 0.125116 0)
(0.102693 0.115176 0)
(0.118734 0.101907 0)
(0.131811 0.0845926 0)
(0.140911 0.0625704 0)
(0.14502 0.0351547 0)
(0.143129 0.00149861 0)
(0.134249 -0.0395932 0)
(0.117325 -0.0898853 0)
(0.0913284 -0.151905 0)
(0.0554748 -0.228908 0)
(0.0101889 -0.323699 0)
(-0.0397616 -0.432697 0)
(-0.0772609 -0.529147 0)
(-0.0801064 -0.529846 0)
(-0.0323285 -0.28914 0)
(-0.0101863 0.0722987 0)
(-0.0322874 0.147855 0)
(-0.0524533 0.178394 0)
(-0.0615166 0.184816 0)
(-0.0607347 0.179862 0)
(-0.0527224 0.170371 0)
(-0.0395605 0.159796 0)
(-0.0227575 0.149771 0)
(-0.00334587 0.140954 0)
(0.0179769 0.133473 0)
(0.0407118 0.127154 0)
(0.0644393 0.121609 0)
(0.0887339 0.116326 0)
(0.113113 0.110691 0)
(0.136987 0.104029 0)
(0.159645 0.0956496 0)
(0.180259 0.0848732 0)
(0.197898 0.071054 0)
(0.211558 0.0535674 0)
(0.220178 0.0317548 0)
(0.222608 0.00481704 0)
(0.217654 -0.0283926 0)
(0.203923 -0.0694565 0)
(0.179798 -0.120771 0)
(0.143447 -0.185973 0)
(0.0931957 -0.270295 0)
(0.0293971 -0.377477 0)
(-0.0332075 -0.493721 0)
(-0.0711837 -0.544766 0)
(-0.0379762 -0.345892 0)
(-0.019473 0.0991571 0)
(-0.0514473 0.173999 0)
(-0.0696427 0.19195 0)
(-0.0696999 0.185812 0)
(-0.0571907 0.171344 0)
(-0.0370763 0.155343 0)
(-0.0125218 0.140457 0)
(0.0145317 0.127577 0)
(0.042942 0.116838 0)
(0.0720618 0.108041 0)
(0.101508 0.100837 0)
(0.131014 0.0947865 0)
(0.160321 0.0893986 0)
(0.189117 0.0841402 0)
(0.216979 0.0784526 0)
(0.243357 0.0717703 0)
(0.267559 0.0635368 0)
(0.288763 0.0532114 0)
(0.30602 0.0402573 0)
(0.318271 0.0241052 0)
(0.324222 0.00408486 0)
(0.322527 -0.0206901 0)
(0.311496 -0.0515215 0)
(0.289048 -0.0904237 0)
(0.252547 -0.140672 0)
(0.198804 -0.208336 0)
(0.124728 -0.302905 0)
(0.0385045 -0.426658 0)
(-0.0447975 -0.527442 0)
(-0.0374357 -0.402469 0)
(-0.0348316 0.143294 0)
(-0.0742779 0.198789 0)
(-0.0705736 0.193331 0)
(-0.0449806 0.170331 0)
(-0.00892149 0.145965 0)
(0.0310529 0.124831 0)
(0.0716634 0.107614 0)
(0.111411 0.0939144 0)
(0.149697 0.0831206 0)
(0.186386 0.074638 0)
(0.221542 0.0679312 0)
(0.255275 0.0625114 0)
(0.287654 0.057922 0)
(0.318648 0.0537238 0)
(0.348089 0.0494894 0)
(0.375647 0.0448035 0)
(0.400822 0.0392662 0)
(0.422939 0.0324919 0)
(0.441158 0.0240979 0)
(0.454481 0.013673 0)
(0.461627 0.000702688 0)
(0.461198 -0.0152729 0)
(0.451241 -0.0351564 0)
(0.429455 -0.0604106 0)
(0.392664 -0.0934777 0)
(0.337027 -0.139639 0)
(0.2562 -0.210291 0)
(0.152095 -0.324784 0)
(0.0148765 -0.465792 0)
(-0.0172714 -0.441591 0)
(-0.0376679 0.235724 0)
(-0.0482569 0.203088 0)
(0.0265678 0.152514 0)
(0.0982517 0.11684 0)
(0.165253 0.0904785 0)
(0.225633 0.0712182 0)
(0.279098 0.057398 0)
(0.326374 0.0474364 0)
(0.368464 0.0401494 0)
(0.406331 0.0347411 0)
(0.440789 0.0306637 0)
(0.472477 0.0275085 0)
(0.501854 0.0249471 0)
(0.529188 0.0227002 0)
(0.554559 0.0205191 0)
(0.577853 0.0181769 0)
(0.598766 0.0154651 0)
(0.616804 0.0121904 0)
(0.631289 0.00817418 0)
(0.641312 0.00323832 0)
(0.645899 -0.00278743 0)
(0.643818 -0.0102298 0)
(0.633154 -0.019506 0)
(0.611834 -0.0312907 0)
(0.57648 -0.0468404 0)
(0.523459 -0.0695285 0)
(0.442957 -0.107592 0)
(0.333541 -0.188113 0)
(0.143264 -0.335847 0)
(0.0605739 -0.412751 0)
(0.23126 0.158599 0)
(0.291184 0.116953 0)
(0.440292 0.0757454 0)
(0.538752 0.0504295 0)
(0.605491 0.0341525 0)
(0.654861 0.0234729 0)
(0.693028 0.0165669 0)
(0.723331 0.0121204 0)
(0.748087 0.00922266 0)
(0.768914 0.00729968 0)
(0.786906 0.00599656 0)
(0.802791 0.00508476 0)
(0.817039 0.00440842 0)
(0.829926 0.00385484 0)
(0.841562 0.00333766 0)
(0.851912 0.00278709 0)
(0.860812 0.00214526 0)
(0.867984 0.00136165 0)
(0.873046 0.000400257 0)
(0.875528 -0.000778337 0)
(0.874814 -0.00211499 0)
(0.870142 -0.00379334 0)
(0.860586 -0.00591425 0)
(0.845154 -0.00859741 0)
(0.821453 -0.0120937 0)
(0.787768 -0.0174464 0)
(0.732427 -0.0268435 0)
(0.655616 -0.048847 0)
(0.45401 -0.109946 0)
(0.313154 -0.177436 0)
)
;

boundaryField
{
    movingWall
    {
        type            fixedValue;
        value           uniform (1 0 0);
    }
    fixedWalls
    {
        type            noSlip;
    }
    frontAndBack
    {
        type            empty;
    }
}


// ************************************************************************* //
