/*--------------------------------*- C++ -*----------------------------------*\
  =========                 |
  \\      /  F ield         | OpenFOAM: The Open Source CFD Toolbox
   \\    /   O peration     | Website:  https://openfoam.org
    \\  /    A nd           | Version:  7
     \\/     M anipulation  |
\*---------------------------------------------------------------------------*/
FoamFile
{
    version     2.0;
    format      ascii;
    class       volVectorField;
    location    "7.1";
    object      U;
}
// * * * * * * * * * * * * * * * * * * * * * * * * * * * * * * * * * * * * * //

dimensions      [0 1 -1 0 0 0 0];

internalField   nonuniform List<vector> 
900
(
(7.96599e-05 -7.86563e-05 0)
(6.45673e-05 2.81047e-06 0)
(-0.000267874 0.000102662 0)
(-0.0008503 0.000177642 0)
(-0.00161248 0.000224613 0)
(-0.00248941 0.000249684 0)
(-0.00342708 0.000260024 0)
(-0.00438508 0.000260869 0)
(-0.00533273 0.000255053 0)
(-0.00624422 0.000243483 0)
(-0.00709471 0.000225736 0)
(-0.00785764 0.000200611 0)
(-0.00850358 0.000166638 0)
(-0.00900033 0.000122588 0)
(-0.00931456 6.79846e-05 0)
(-0.00941483 3.51492e-06 0)
(-0.00927529 -6.9058e-05 0)
(-0.00888066 -0.000145506 0)
(-0.0082314 -0.00022021 0)
(-0.00734741 -0.000286315 0)
(-0.00627037 -0.000336444 0)
(-0.00506322 -0.000363801 0)
(-0.00380632 -0.000363343 0)
(-0.00259039 -0.000332817 0)
(-0.00150698 -0.000273338 0)
(-0.000637171 -0.000189626 0)
(-4.08291e-05 -9.08711e-05 0)
(0.000249089 8.21026e-06 0)
(0.000252508 8.782e-05 0)
(9.49705e-05 9.47462e-05 0)
(-3.82944e-07 -6.71619e-05 0)
(-0.000395295 0.000390854 0)
(-0.00147204 0.000885339 0)
(-0.0030633 0.00127765 0)
(-0.00504547 0.00154751 0)
(-0.00729308 0.00170898 0)
(-0.00968989 0.00178483 0)
(-0.0121389 0.0017946 0)
(-0.014559 0.00175054 0)
(-0.0168784 0.00165774 0)
(-0.0190278 0.00151575 0)
(-0.0209364 0.00132078 0)
(-0.0225299 0.00106821 0)
(-0.0237311 0.000755108 0)
(-0.0244641 0.000382676 0)
(-0.0246611 -4.16728e-05 0)
(-0.0242697 -0.000502568 0)
(-0.0232628 -0.000975632 0)
(-0.0216505 -0.00142882 0)
(-0.0194853 -0.00182453 0)
(-0.0168669 -0.00212371 0)
(-0.0139397 -0.00229128 0)
(-0.0108847 -0.00230204 0)
(-0.00790414 -0.00214591 0)
(-0.00520068 -0.00183141 0)
(-0.00295361 -0.00138715 0)
(-0.00129408 -0.000863434 0)
(-0.000281698 -0.000334833 0)
(0.000122518 9.64817e-05 0)
(9.2297e-05 0.000249059 0)
(-0.000108981 0.000271791 0)
(-0.000945818 0.00148146 0)
(-0.00278954 0.00266663 0)
(-0.00531866 0.00361573 0)
(-0.00836346 0.00428819 0)
(-0.011763 0.00470428 0)
(-0.0153623 0.00490433 0)
(-0.0190263 0.00492625 0)
(-0.0226375 0.00479578 0)
(-0.0260885 0.0045248 0)
(-0.0292754 0.00411387 0)
(-0.0320928 0.00355679 0)
(-0.0344323 0.00284615 0)
(-0.0361841 0.00197925 0)
(-0.0372422 0.000963893 0)
(-0.0375137 -0.000176697 0)
(-0.0369284 -0.00139997 0)
(-0.0354531 -0.00264337 0)
(-0.0331044 -0.00382626 0)
(-0.0299574 -0.00485579 0)
(-0.026151 -0.00563667 0)
(-0.0218856 -0.00608403 0)
(-0.0174119 -0.00613741 0)
(-0.0130107 -0.00577356 0)
(-0.00896429 -0.00501533 0)
(-0.00552406 -0.00393567 0)
(-0.00287584 -0.00265857 0)
(-0.00110643 -0.00135978 0)
(-0.000180009 -0.000270938 0)
(4.2487e-05 0.000278521 0)
(-0.000206186 0.000911327 0)
(-0.00146353 0.00319408 0)
(-0.00404209 0.00525961 0)
(-0.007444 0.00688868 0)
(-0.0114446 0.00804422 0)
(-0.0158521 0.00876222 0)
(-0.0204834 0.0091037 0)
(-0.0251779 0.00912578 0)
(-0.0297933 0.00886779 0)
(-0.0341974 0.00834847 0)
(-0.038261 0.00756942 0)
(-0.0418534 0.00652221 0)
(-0.0448401 0.0051974 0)
(-0.0470858 0.00359431 0)
(-0.0484602 0.00173062 0)
(-0.0488485 -0.000349494 0)
(-0.0481628 -0.00257041 0)
(-0.0463584 -0.00482119 0)
(-0.0434499 -0.00696093 0)
(-0.0395221 -0.00882809 0)
(-0.0347378 -0.0102568 0)
(-0.0293372 -0.0110985 0)
(-0.0236262 -0.0112466 0)
(-0.0179523 -0.0106585 0)
(-0.0126705 -0.00937269 0)
(-0.00810161 -0.00751597 0)
(-0.00448908 -0.00530224 0)
(-0.00195555 -0.00302658 0)
(-0.000486357 -0.0010584 0)
(-3.89965e-06 0.000133291 0)
(-0.00028685 0.00181815 0)
(-0.0019227 0.00548771 0)
(-0.0051796 0.00861086 0)
(-0.00938437 0.0110194 0)
(-0.0142537 0.0127124 0)
(-0.0195648 0.0137578 0)
(-0.0251119 0.0142444 0)
(-0.0307164 0.0142506 0)
(-0.0362202 0.0138299 0)
(-0.0414756 0.0130073 0)
(-0.0463369 0.0117845 0)
(-0.050655 0.0101503 0)
(-0.0542762 0.00809251 0)
(-0.0570432 0.00561211 0)
(-0.0588023 0.00273705 0)
(-0.0594147 -0.000466256 0)
(-0.0587674 -0.00388592 0)
(-0.0567926 -0.00735686 0)
(-0.0534884 -0.0106693 0)
(-0.048933 -0.0135811 0)
(-0.0432978 -0.0158405 0)
(-0.0368508 -0.0172188 0)
(-0.0299473 -0.0175469 0)
(-0.023004 -0.0167518 0)
(-0.016458 -0.0148836 0)
(-0.0107148 -0.0121281 0)
(-0.00609268 -0.00880269 0)
(-0.00276615 -0.0053388 0)
(-0.000752451 -0.0022568 0)
(-3.3566e-05 -0.000164469 0)
(-0.000353489 0.00295861 0)
(-0.00232376 0.00830996 0)
(-0.00619503 0.0126639 0)
(-0.0111326 0.0159467 0)
(-0.0167956 0.0182251 0)
(-0.0229315 0.0196179 0)
(-0.0293148 0.0202517 0)
(-0.035755 0.0202313 0)
(-0.0420858 0.0196252 0)
(-0.0481517 0.0184645 0)
(-0.0537981 0.0167499 0)
(-0.0588648 0.0144646 0)
(-0.0631829 0.0115909 0)
(-0.0665754 0.00812814 0)
(-0.0688629 0.00411032 0)
(-0.069876 -0.000376798 0)
(-0.0694643 -0.00518218 0)
(-0.0675194 -0.0100889 0)
(-0.0640032 -0.0148113 0)
(-0.0589657 -0.0190129 0)
(-0.0525676 -0.0223372 0)
(-0.0450925 -0.0244509 0)
(-0.0369428 -0.0250975 0)
(-0.0286148 -0.0241518 0)
(-0.0206499 -0.021664 0)
(-0.0135689 -0.0178809 0)
(-0.00779621 -0.0132388 0)
(-0.00358345 -0.00833101 0)
(-0.000990062 -0.00385591 0)
(-4.75367e-05 -0.000584862 0)
(-0.00040978 0.00430151 0)
(-0.00267492 0.0116037 0)
(-0.00709823 0.0173524 0)
(-0.012702 0.0216016 0)
(-0.0190931 0.0245129 0)
(-0.0259916 0.0262755 0)
(-0.0331563 0.0270658 0)
(-0.0403904 0.0270208 0)
(-0.0475259 0.026227 0)
(-0.0544073 0.0247215 0)
(-0.0608787 0.0225015 0)
(-0.0667751 0.0195413 0)
(-0.071917 0.015812 0)
(-0.0761089 0.0113039 0)
(-0.0791421 0.00604925 0)
(-0.0808031 0.000144872 0)
(-0.0808925 -0.00622789 0)
(-0.0792426 -0.0128011 0)
(-0.0757484 -0.0192086 0)
(-0.0704036 -0.0250065 0)
(-0.0633329 -0.0297089 0)
(-0.0548173 -0.0328442 0)
(-0.0453022 -0.0340293 0)
(-0.035376 -0.0330507 0)
(-0.0257161 -0.0299345 0)
(-0.0170029 -0.0249847 0)
(-0.0098158 -0.0187762 0)
(-0.00452206 -0.012102 0)
(-0.00124156 -0.00588597 0)
(-5.29357e-05 -0.00111536 0)
(-0.00045842 0.00582142 0)
(-0.00298425 0.0153174 0)
(-0.00790211 0.0226144 0)
(-0.0141104 0.0279204 0)
(-0.0211706 0.0315162 0)
(-0.0287799 0.0336794 0)
(-0.0366866 0.0346484 0)
(-0.044693 0.0346003 0)
(-0.0526367 0.0336432 0)
(-0.0603697 0.0318201 0)
(-0.0677426 0.0291227 0)
(-0.0745929 0.0255106 0)
(-0.0807353 0.0209354 0)
(-0.0859568 0.0153672 0)
(-0.090016 0.00882336 0)
(-0.0926483 0.00139664 0)
(-0.0935849 -0.00671881 0)
(-0.0925719 -0.015209 0)
(-0.0894075 -0.0236271 0)
(-0.0839935 -0.0314091 0)
(-0.0763828 -0.0379106 0)
(-0.0668256 -0.0424762 0)
(-0.0557965 -0.0445401 0)
(-0.0439853 -0.043743 0)
(-0.0322401 -0.0400432 0)
(-0.0214595 -0.0337863 0)
(-0.0124463 -0.0257072 0)
(-0.00574359 -0.0168531 0)
(-0.00156663 -0.00844665 0)
(-5.90019e-05 -0.0017721 0)
(-0.000500823 0.00749724 0)
(-0.0032569 0.019405 0)
(-0.00861605 0.028393 0)
(-0.0153708 0.0348456 0)
(-0.0230448 0.0391829 0)
(-0.031318 0.0417884 0)
(-0.0399336 0.0429753 0)
(-0.0486996 0.0429691 0)
(-0.0574661 0.0419036 0)
(-0.0661013 0.0398292 0)
(-0.0744709 0.036729 0)
(-0.0824227 0.0325414 0)
(-0.0897724 0.0271871 0)
(-0.0962926 0.0206006 0)
(-0.101707 0.0127638 0)
(-0.105692 0.00374357 0)
(-0.107893 -0.0062727 0)
(-0.107942 -0.0169446 0)
(-0.105506 -0.0277512 0)
(-0.100353 -0.037998 0)
(-0.0924177 -0.0468501 0)
(-0.0818777 -0.0534133 0)
(-0.0692069 -0.0568624 0)
(-0.0551916 -0.0566075 0)
(-0.0408806 -0.0524652 0)
(-0.0274582 -0.0447848 0)
(-0.0160434 -0.0344776 0)
(-0.00744484 -0.0229163 0)
(-0.00203639 -0.0117271 0)
(-7.57048e-05 -0.00260645 0)
(-0.000537409 0.00930999 0)
(-0.00349485 0.0238241 0)
(-0.00924402 0.0346348 0)
(-0.0164881 0.0423216 0)
(-0.0247202 0.0474628 0)
(-0.0336087 0.0505635 0)
(-0.0428973 0.0520247 0)
(-0.0524063 0.0521294 0)
(-0.062006 0.0510431 0)
(-0.071589 0.0488248 0)
(-0.0810459 0.0454465 0)
(-0.0902441 0.0408176 0)
(-0.0990083 0.0348149 0)
(-0.107103 0.0273174 0)
(-0.114218 0.0182463 0)
(-0.119965 0.00761158 0)
(-0.123891 -0.00443632 0)
(-0.125494 -0.017554 0)
(-0.124274 -0.0311671 0)
(-0.119821 -0.0444474 0)
(-0.111899 -0.0563411 0)
(-0.100553 -0.0656533 0)
(-0.0862039 -0.0712062 0)
(-0.0697037 -0.0720619 0)
(-0.0523118 -0.0677785 0)
(-0.0355632 -0.0586309 0)
(-0.0210083 -0.0457025 0)
(-0.0098518 -0.0307752 0)
(-0.00273163 -0.0160218 0)
(-0.000113536 -0.00370971 0)
(-0.000567931 0.0112409 0)
(-0.00369759 0.0285325 0)
(-0.00978486 0.0412859 0)
(-0.0174587 0.0502914 0)
(-0.0261881 0.0563018 0)
(-0.0356347 0.0599593 0)
(-0.045548 0.0617658 0)
(-0.055766 0.0620722 0)
(-0.0661868 0.061082 0)
(-0.0767355 0.058866 0)
(-0.087337 0.0553827 0)
(-0.0978886 0.0505049 0)
(-0.108234 0.0440507 0)
(-0.118137 0.0358209 0)
(-0.127261 0.025646 0)
(-0.135156 0.0134425 0)
(-0.141261 -0.00071608 0)
(-0.144928 -0.0165174 0)
(-0.145472 -0.0333653 0)
(-0.142264 -0.0503081 0)
(-0.134841 -0.0660551 0)
(-0.123047 -0.0790553 0)
(-0.107168 -0.0876752 0)
(-0.0880494 -0.0904815 0)
(-0.067129 -0.0866038 0)
(-0.046333 -0.0760974 0)
(-0.0277688 -0.0601655 0)
(-0.0132156 -0.0410789 0)
(-0.00374287 -0.0217438 0)
(-0.000183826 -0.00521761 0)
(-0.000591771 0.0132704 0)
(-0.00386306 0.0334869 0)
(-0.010234 0.0482896 0)
(-0.0182731 0.058692 0)
(-0.0274296 0.0656359 0)
(-0.0373617 0.0699154 0)
(-0.0478282 0.0721468 0)
(-0.0586899 0.0727599 0)
(-0.0698776 0.0720047 0)
(-0.0813564 0.0699673 0)
(-0.0930933 0.066592 0)
(-0.105025 0.0617076 0)
(-0.117024 0.0550586 0)
(-0.128867 0.0463445 0)
(-0.1402 0.0352728 0)
(-0.150521 0.021628 0)
(-0.159169 0.00536152 0)
(-0.165357 -0.013302 0)
(-0.168213 -0.0337733 0)
(-0.166864 -0.0550077 0)
(-0.160582 -0.0754835 0)
(-0.14893 -0.0932591 0)
(-0.131957 -0.106153 0)
(-0.110378 -0.112073 0)
(-0.0857076 -0.109492 0)
(-0.0602407 -0.098006 0)
(-0.0367489 -0.0787909 0)
(-0.0178075 -0.0546453 0)
(-0.00517212 -0.0294369 0)
(-0.000299617 -0.0073155 0)
(-0.000608267 0.0153772 0)
(-0.00398914 0.0386414 0)
(-0.0105865 0.0555847 0)
(-0.0189198 0.0674519 0)
(-0.0284206 0.0753862 0)
(-0.0387443 0.0803481 0)
(-0.0496609 0.0830824 0)
(-0.0610554 0.0841099 0)
(-0.0728946 0.083736 0)
(-0.0851876 0.0820676 0)
(-0.0979489 0.0790352 0)
(-0.111162 0.0744176 0)
(-0.124737 0.0678724 0)
(-0.138474 0.0589763 0)
(-0.152021 0.0472834 0)
(-0.164844 0.0324079 0)
(-0.176213 0.0141334 0)
(-0.185223 -0.00745638 0)
(-0.190835 -0.0318247 0)
(-0.191955 -0.0578851 0)
(-0.187569 -0.0839233 0)
(-0.176905 -0.107614 0)
(-0.159649 -0.126176 0)
(-0.136217 -0.136705 0)
(-0.108006 -0.136748 0)
(-0.0775504 -0.12509 0)
(-0.0483151 -0.10257 0)
(-0.0239089 -0.0724441 0)
(-0.00713545 -0.0397829 0)
(-0.000477279 -0.0102452 0)
(-0.00061711 0.0175391 0)
(-0.00407558 0.0439483 0)
(-0.0108414 0.0631055 0)
(-0.0193921 0.0764893 0)
(-0.0291406 0.0854552 0)
(-0.0397374 0.0911441 0)
(-0.0509615 0.0944437 0)
(-0.0627216 0.0959786 0)
(-0.0750196 0.0961195 0)
(-0.087908 0.0950003 0)
(-0.10145 0.0925395 0)
(-0.115678 0.0884627 0)
(-0.130548 0.0823308 0)
(-0.145895 0.0735808 0)
(-0.161388 0.0615898 0)
(-0.176493 0.0457705 0)
(-0.190458 0.0257013 0)
(-0.20231 0.00128627 0)
(-0.210904 -0.0270608 0)
(-0.214985 -0.0582675 0)
(-0.21328 -0.0905097 0)
(-0.204652 -0.121147 0)
(-0.188329 -0.146818 0)
(-0.164219 -0.163718 0)
(-0.133325 -0.168201 0)
(-0.0981362 -0.157779 0)
(-0.0626842 -0.132424 0)
(-0.0317873 -0.0955458 0)
(-0.00976477 -0.053603 0)
(-0.000738851 -0.014314 0)
(-0.000618846 0.0197343 0)
(-0.00412653 0.0493613 0)
(-0.0110071 0.0707846 0)
(-0.019697 0.0857137 0)
(-0.0295848 0.0957255 0)
(-0.0403103 0.102156 0)
(-0.0516573 0.10605 0)
(-0.0635531 0.10815 0)
(-0.0760299 0.108901 0)
(-0.0891788 0.10847 0)
(-0.103107 0.106768 0)
(-0.117892 0.103467 0)
(-0.13354 0.0980268 0)
(-0.14993 0.0897371 0)
(-0.166776 0.0777863 0)
(-0.183585 0.0613702 0)
(-0.199638 0.0398411 0)
(-0.213982 0.0128912 0)
(-0.225445 -0.0192452 0)
(-0.232712 -0.0555837 0)
(-0.234348 -0.0943094 0)
(-0.228881 -0.132606 0)
(-0.215023 -0.166653 0)
(-0.191996 -0.191777 0)
(-0.16007 -0.202953 0)
(-0.121252 -0.195911 0)
(-0.0797739 -0.168973 0)
(-0.0416436 -0.125015 0)
(-0.0132042 -0.0718409 0)
(-0.00111467 -0.0199042 0)
(-0.000615498 0.0219449 0)
(-0.00415368 0.0548419 0)
(-0.0111084 0.0785591 0)
(-0.0198652 0.09503 0)
(-0.0297774 0.106063 0)
(-0.0404654 0.113203 0)
(-0.0517099 0.117669 0)
(-0.0634499 0.120332 0)
(-0.0757393 0.121721 0)
(-0.088698 0.122045 0)
(-0.102467 0.121209 0)
(-0.117164 0.118836 0)
(-0.13284 0.114288 0)
(-0.149431 0.106713 0)
(-0.166715 0.0951143 0)
(-0.184284 0.0784773 0)
(-0.201521 0.0559314 0)
(-0.217581 0.0269511 0)
(-0.23138 -0.00844257 0)
(-0.241676 -0.0494983 0)
(-0.247012 -0.0944771 0)
(-0.245681 -0.140601 0)
(-0.235919 -0.183837 0)
(-0.216158 -0.218838 0)
(-0.185628 -0.239189 0)
(-0.145313 -0.238418 0)
(-0.0990043 -0.21222 0)
(-0.0535185 -0.16172 0)
(-0.017597 -0.0955132 0)
(-0.00164605 -0.0274807 0)
(-0.000611382 0.0241619 0)
(-0.00418016 0.0603686 0)
(-0.0111952 0.0863808 0)
(-0.0199641 0.104347 0)
(-0.0297883 0.116321 0)
(-0.0402573 0.124075 0)
(-0.0511406 0.129018 0)
(-0.0623805 0.132161 0)
(-0.0740427 0.134125 0)
(-0.086264 0.135166 0)
(-0.0992072 0.13519 0)
(-0.11302 0.133777 0)
(-0.127792 0.130205 0)
(-0.143522 0.123495 0)
(-0.160077 0.112492 0)
(-0.17717 0.0959967 0)
(-0.194343 0.0729417 0)
(-0.210956 0.0425954 0)
(-0.226182 0.00475357 0)
(-0.238929 -0.0400965 0)
(-0.24784 -0.0904708 0)
(-0.251219 -0.143864 0)
(-0.246953 -0.19636 0)
(-0.232717 -0.24231 0)
(-0.206518 -0.274169 0)
(-0.167814 -0.283088 0)
(-0.119106 -0.261176 0)
(-0.0671598 -0.206037 0)
(-0.0230608 -0.125606 0)
(-0.00238862 -0.0375911 0)
(-0.00061428 0.0263926 0)
(-0.00424577 0.0659519 0)
(-0.0113521 0.0942307 0)
(-0.0201111 0.113591 0)
(-0.0297487 0.126353 0)
(-0.0398122 0.134544 0)
(-0.0500534 0.139778 0)
(-0.060412 0.143218 0)
(-0.0709576 0.145585 0)
(-0.0818334 0.147183 0)
(-0.0932128 0.147927 0)
(-0.105262 0.147365 0)
(-0.11811 0.144711 0)
(-0.131819 0.138889 0)
(-0.146364 0.128626 0)
(-0.161613 0.112586 0)
(-0.17732 0.0895504 0)
(-0.193116 0.0586157 0)
(-0.208485 0.0193751 0)
(-0.222649 -0.0279247 0)
(-0.234541 -0.0822485 0)
(-0.242628 -0.141565 0)
(-0.244688 -0.202449 0)
(-0.237846 -0.259471 0)
(-0.218927 -0.304501 0)
(-0.185541 -0.326567 0)
(-0.138052 -0.313554 0)
(-0.0818863 -0.257476 0)
(-0.0296551 -0.162903 0)
(-0.00341805 -0.0508549 0)
(-0.000637424 0.0286724 0)
(-0.0044144 0.071654 0)
(-0.0117119 0.102137 0)
(-0.020489 0.122716 0)
(-0.0298667 0.136021 0)
(-0.0393422 0.14437 0)
(-0.04865 0.149606 0)
(-0.0577283 0.153054 0)
(-0.066649 0.155535 0)
(-0.0755569 0.157406 0)
(-0.0846289 0.158595 0)
(-0.0940463 0.158637 0)
(-0.103974 0.156705 0)
(-0.114545 0.151668 0)
(-0.125853 0.142186 0)
(-0.137946 0.126846 0)
(-0.150818 0.104343 0)
(-0.164404 0.0736621 0)
(-0.178541 0.0342353 0)
(-0.192851 -0.0139597 0)
(-0.206677 -0.070376 0)
(-0.218814 -0.133595 0)
(-0.22722 -0.20103 0)
(-0.228811 -0.268048 0)
(-0.219517 -0.326728 0)
(-0.19512 -0.364727 0)
(-0.153245 -0.365728 0)
(-0.0965158 -0.31431 0)
(-0.0373502 -0.207733 0)
(-0.00484121 -0.0679438 0)
(-0.000703329 0.0310807 0)
(-0.00478621 0.077615 0)
(-0.0124735 0.110199 0)
(-0.0213634 0.131722 0)
(-0.0304398 0.145207 0)
(-0.0391525 0.153318 0)
(-0.0472322 0.158155 0)
(-0.0546293 0.161213 0)
(-0.0614266 0.163412 0)
(-0.0677749 0.165162 0)
(-0.0738567 0.166412 0)
(-0.0798691 0.166697 0)
(-0.0860167 0.165183 0)
(-0.0925103 0.160728 0)
(-0.0995708 0.151979 0)
(-0.107431 0.137512 0)
(-0.116333 0.115997 0)
(-0.126509 0.0863663 0)
(-0.138151 0.0479359 0)
(-0.151325 0.0004452 0)
(-0.165792 -0.055985 0)
(-0.18078 -0.120656 0)
(-0.194705 -0.192036 0)
(-0.204676 -0.266782 0)
(-0.206242 -0.338068 0)
(-0.193748 -0.393376 0)
(-0.161944 -0.41308 0)
(-0.109419 -0.373386 0)
(-0.046004 -0.259667 0)
(-0.00681626 -0.0895608 0)
(-0.000851852 0.0337683 0)
(-0.00551892 0.0840903 0)
(-0.0139278 0.118609 0)
(-0.0231024 0.140661 0)
(-0.031862 0.153811 0)
(-0.0396341 0.161152 0)
(-0.0461813 0.165076 0)
(-0.0514977 0.167251 0)
(-0.0557002 0.168691 0)
(-0.0589604 0.169851 0)
(-0.0614772 0.170706 0)
(-0.0634721 0.170808 0)
(-0.0651962 0.169349 0)
(-0.0669426 0.165217 0)
(-0.0690594 0.157102 0)
(-0.0719609 0.143627 0)
(-0.0761185 0.123486 0)
(-0.0820384 0.095612 0)
(-0.0902252 0.0592452 0)
(-0.101107 0.0139395 0)
(-0.114864 -0.0405066 0)
(-0.131229 -0.104116 0)
(-0.149188 -0.176446 0)
(-0.166423 -0.255734 0)
(-0.178731 -0.337032 0)
(-0.179755 -0.40908 0)
(-0.161782 -0.450701 0)
(-0.118712 -0.430255 0)
(-0.0553322 -0.31723 0)
(-0.0095753 -0.116427 0)
(-0.00115768 0.0370035 0)
(-0.0068672 0.0914985 0)
(-0.0164978 0.12767 0)
(-0.0261965 0.149632 0)
(-0.0346152 0.161735 0)
(-0.0412272 0.167623 0)
(-0.0458961 0.170013 0)
(-0.0487144 0.170741 0)
(-0.0498706 0.170897 0)
(-0.0495828 0.17097 0)
(-0.0480837 0.170957 0)
(-0.045631 0.170445 0)
(-0.0425295 0.168674 0)
(-0.0391537 0.164605 0)
(-0.0359662 0.157012 0)
(-0.0335469 0.144617 0)
(-0.0325632 0.12617 0)
(-0.0337418 0.100641 0)
(-0.0378379 0.0672379 0)
(-0.0455477 0.0253772 0)
(-0.0574047 -0.0254173 0)
(-0.0736086 -0.0857153 0)
(-0.0937504 -0.15604 0)
(-0.116336 -0.236219 0)
(-0.138015 -0.323671 0)
(-0.152667 -0.409771 0)
(-0.15105 -0.474177 0)
(-0.12247 -0.479637 0)
(-0.064836 -0.377694 0)
(-0.0134242 -0.149275 0)
(-0.00176805 0.041257 0)
(-0.00925489 0.100487 0)
(-0.0207934 0.137802 0)
(-0.0312642 0.158739 0)
(-0.0392184 0.168826 0)
(-0.0443172 0.172409 0)
(-0.0466421 0.172556 0)
(-0.0464639 0.17124 0)
(-0.0440942 0.169591 0)
(-0.0398297 0.168106 0)
(-0.0339566 0.166798 0)
(-0.0267796 0.165292 0)
(-0.0186584 0.162897 0)
(-0.0100381 0.158676 0)
(-0.00146661 0.151518 0)
(0.00633801 0.140254 0)
(0.012559 0.123749 0)
(0.0163245 0.10102 0)
(0.0166978 0.0712575 0)
(0.0127963 0.0337841 0)
(0.00382388 -0.0120931 0)
(-0.0107994 -0.0672934 0)
(-0.0312215 -0.133009 0)
(-0.0568602 -0.210429 0)
(-0.0856617 -0.299397 0)
(-0.112702 -0.394928 0)
(-0.128549 -0.480141 0)
(-0.118765 -0.516007 0)
(-0.0736156 -0.437002 0)
(-0.0186581 -0.188774 0)
(-0.00298164 0.0473627 0)
(-0.0134011 0.112001 0)
(-0.0276649 0.149487 0)
(-0.0389886 0.167975 0)
(-0.0460448 0.174745 0)
(-0.0489473 0.175006 0)
(-0.0481724 0.172147 0)
(-0.0442755 0.168209 0)
(-0.0377514 0.164299 0)
(-0.0290087 0.160878 0)
(-0.0184031 0.157952 0)
(-0.00628934 0.155179 0)
(0.00693244 0.151947 0)
(0.020768 0.147429 0)
(0.0346024 0.140652 0)
(0.0476651 0.130565 0)
(0.0590595 0.116172 0)
(0.0678083 0.0965447 0)
(0.0728747 0.070876 0)
(0.0732457 0.0384214 0)
(0.067941 -0.00165351 0)
(0.0561295 -0.0504314 0)
(0.0371531 -0.10949 0)
(0.0106971 -0.180899 0)
(-0.0226279 -0.266516 0)
(-0.0598822 -0.36537 0)
(-0.0930407 -0.466426 0)
(-0.10538 -0.533948 0)
(-0.0800044 -0.489651 0)
(-0.0252894 -0.235213 0)
(-0.0054029 0.056832 0)
(-0.0205131 0.127326 0)
(-0.0381628 0.16306 0)
(-0.0497894 0.17693 0)
(-0.0547361 0.178682 0)
(-0.0540172 0.174458 0)
(-0.0487521 0.167848 0)
(-0.0399055 0.160819 0)
(-0.0282167 0.154347 0)
(-0.0142303 0.148788 0)
(0.00162573 0.144103 0)
(0.0189619 0.139964 0)
(0.0373624 0.135825 0)
(0.0563293 0.130969 0)
(0.075244 0.124563 0)
(0.0933427 0.115704 0)
(0.109724 0.10351 0)
(0.123382 0.0871343 0)
(0.133237 0.0657968 0)
(0.13819 0.0387305 0)
(0.137149 0.0050576 0)
(0.129033 -0.0363752 0)
(0.112747 -0.0872495 0)
(0.087263 -0.149969 0)
(0.051826 -0.227652 0)
(0.00696299 -0.322918 0)
(-0.042393 -0.43203 0)
(-0.0791243 -0.528123 0)
(-0.0810436 -0.528386 0)
(-0.0325304 -0.287966 0)
(-0.0102107 0.0725055 0)
(-0.03248 0.147953 0)
(-0.0530069 0.178148 0)
(-0.0625637 0.184139 0)
(-0.0623847 0.17875 0)
(-0.0550699 0.168858 0)
(-0.0426823 0.157931 0)
(-0.0267098 0.147618 0)
(-0.00816189 0.138596 0)
(0.0122981 0.13102 0)
(0.0342073 0.124741 0)
(0.0571907 0.119406 0)
(0.0808805 0.114514 0)
(0.104845 0.109448 0)
(0.12854 0.103506 0)
(0.151284 0.0959332 0)
(0.172247 0.0859722 0)
(0.190471 0.0728816 0)
(0.204894 0.0559468 0)
(0.214377 0.0344418 0)
(0.217686 0.00753738 0)
(0.213533 -0.0259034 0)
(0.200479 -0.0674045 0)
(0.176882 -0.11928 0)
(0.140917 -0.185066 0)
(0.090964 -0.269859 0)
(0.0275622 -0.377271 0)
(-0.0345801 -0.493422 0)
(-0.0719729 -0.54413 0)
(-0.038187 -0.345228 0)
(-0.019455 0.0994217 0)
(-0.0514667 0.174289 0)
(-0.069846 0.19204 0)
(-0.0702177 0.185603 0)
(-0.0581361 0.170813 0)
(-0.0385508 0.154504 0)
(-0.0146119 0.139338 0)
(0.0117592 0.12622 0)
(0.0394403 0.115299 0)
(0.0678105 0.106397 0)
(0.0965213 0.0991833 0)
(0.125346 0.0932407 0)
(0.154079 0.08809 0)
(0.182454 0.0831973 0)
(0.210096 0.0779863 0)
(0.236486 0.071853 0)
(0.26094 0.0641866 0)
(0.282619 0.0543813 0)
(0.300533 0.0418367 0)
(0.313557 0.0259338 0)
(0.320323 0.00598196 0)
(0.319402 -0.0189415 0)
(0.309048 -0.0500791 0)
(0.287141 -0.0893911 0)
(0.25103 -0.140086 0)
(0.197548 -0.208139 0)
(0.123681 -0.302928 0)
(0.0376764 -0.426733 0)
(-0.0452863 -0.527319 0)
(-0.0375796 -0.402206 0)
(-0.0347775 0.143508 0)
(-0.0741262 0.199092 0)
(-0.0704114 0.193574 0)
(-0.0449238 0.1704 0)
(-0.00907313 0.145826 0)
(0.0305877 0.124482 0)
(0.0707879 0.107069 0)
(0.110044 0.0931971 0)
(0.147772 0.0822665 0)
(0.18386 0.0736951 0)
(0.218397 0.066959 0)
(0.251533 0.0615828 0)
(0.28338 0.0571176 0)
(0.313952 0.0531245 0)
(0.343125 0.0491662 0)
(0.370602 0.0448054 0)
(0.3959 0.0396096 0)
(0.418343 0.0331534 0)
(0.437062 0.0250129 0)
(0.451027 0.0147419 0)
(0.458842 0.00180303 0)
(0.459077 -0.0142551 0)
(0.449744 -0.0343218 0)
(0.428466 -0.0598374 0)
(0.392033 -0.0931986 0)
(0.336606 -0.139626 0)
(0.255871 -0.21045 0)
(0.151794 -0.324971 0)
(0.0146835 -0.465872 0)
(-0.0173241 -0.441572 0)
(-0.0376274 0.235816 0)
(-0.048065 0.203284 0)
(0.0269026 0.15271 0)
(0.0986351 0.116965 0)
(0.165616 0.0905039 0)
(0.225879 0.0711356 0)
(0.279128 0.0572131 0)
(0.3261 0.0471624 0)
(0.367813 0.0398049 0)
(0.405247 0.0343505 0)
(0.439241 0.0302566 0)
(0.470465 0.0271196 0)
(0.499412 0.0246141 0)
(0.526391 0.0224602 0)
(0.551518 0.0204041 0)
(0.57471 0.0182082 0)
(0.595681 0.0156483 0)
(0.613939 0.0125124 0)
(0.628783 0.00860155 0)
(0.639279 0.00372401 0)
(0.644384 -0.0023222 0)
(0.642852 -0.00981144 0)
(0.632667 -0.0191855 0)
(0.611715 -0.0311073 0)
(0.576597 -0.0468048 0)
(0.523672 -0.0696197 0)
(0.443147 -0.107755 0)
(0.333633 -0.188266 0)
(0.143277 -0.335928 0)
(0.0605706 -0.412792 0)
(0.231271 0.1586 0)
(0.291265 0.117002 0)
(0.440487 0.0757976 0)
(0.539041 0.0504732 0)
(0.605829 0.0341757 0)
(0.655187 0.0234698 0)
(0.693277 0.0165374 0)
(0.723446 0.012068 0)
(0.748019 0.00915283 0)
(0.768632 0.0072194 0)
(0.786392 0.00591392 0)
(0.802046 0.00500873 0)
(0.816089 0.00434825 0)
(0.828816 0.00381922 0)
(0.840357 0.00333352 0)
(0.850694 0.00281833 0)
(0.859668 0.00221147 0)
(0.867 0.00145785 0)
(0.872291 0.00051613 0)
(0.875045 -0.000653334 0)
(0.874616 -0.00199846 0)
(0.870214 -0.00369671 0)
(0.860861 -0.00585465 0)
(0.845554 -0.00858256 0)
(0.821891 -0.0121213 0)
(0.788162 -0.0175059 0)
(0.732713 -0.0269177 0)
(0.65577 -0.0489129 0)
(0.454063 -0.109985 0)
(0.313163 -0.177452 0)
)
;

boundaryField
{
    movingWall
    {
        type            fixedValue;
        value           uniform (1 0 0);
    }
    fixedWalls
    {
        type            noSlip;
    }
    frontAndBack
    {
        type            empty;
    }
}


// ************************************************************************* //
