/*--------------------------------*- C++ -*----------------------------------*\
  =========                 |
  \\      /  F ield         | OpenFOAM: The Open Source CFD Toolbox
   \\    /   O peration     | Website:  https://openfoam.org
    \\  /    A nd           | Version:  7
     \\/     M anipulation  |
\*---------------------------------------------------------------------------*/
FoamFile
{
    version     2.0;
    format      ascii;
    class       volScalarField;
    location    "1.8";
    object      p;
}
// * * * * * * * * * * * * * * * * * * * * * * * * * * * * * * * * * * * * * //

dimensions      [0 2 -2 0 0 0 0];

internalField   nonuniform List<scalar> 
900
(
-1.54721e-08
-0.000130398
-0.000233669
-0.000292073
-0.000281126
-0.00019303
-2.90215e-05
0.000206843
0.000510043
0.000876054
0.00130019
0.00177732
0.0023015
0.00286583
0.00346225
0.00408146
0.00471294
0.00534497
0.00596476
0.00655867
0.00711247
0.00761168
0.00804199
0.00838984
0.0086433
0.00879371
0.0088391
0.00879128
0.00868379
0.00853597
0.000129122
-2.46349e-06
-7.44384e-05
-0.000100723
-7.08372e-05
2.3341e-05
0.000183363
0.000408039
0.000695034
0.00104121
0.0014427
0.00189482
0.00239197
0.00292751
0.00349366
0.00408145
0.00468067
0.00528008
0.0058674
0.00642959
0.00695322
0.00742482
0.00783157
0.00816198
0.00840699
0.0085613
0.00862594
0.00861274
0.00853851
0.00839049
0.000235158
6.65265e-05
-7.53745e-06
-2.77694e-05
6.52782e-06
0.000101689
0.000259107
0.000478089
0.000757045
0.00109352
0.00148419
0.00192479
0.00241008
0.00293369
0.00348807
0.00406444
0.00465288
0.00524217
0.00582017
0.00637396
0.00689017
0.00735549
0.00775729
0.00808449
0.00832846
0.00848422
0.00855263
0.00854404
0.00846551
0.00827901
0.00029782
8.65728e-05
7.06132e-07
-2.23034e-05
1.10374e-05
0.000105024
0.000260124
0.000475471
0.000749761
0.00108098
0.00146627
0.00190177
0.00238259
0.00290269
0.00345474
0.00403015
0.00461902
0.00521015
0.00579127
0.00634921
0.00687029
0.00734081
0.00774773
0.00807953
0.00832711
0.00848479
0.00855238
0.00853875
0.00844483
0.00821233
0.000288651
4.23714e-05
-5.61472e-05
-8.47481e-05
-5.45106e-05
3.74439e-05
0.000190731
0.000404202
0.000676692
0.00100652
0.00139121
0.00182731
0.0023103
0.00283441
0.00339257
0.00397626
0.0045756
0.00517921
0.00577448
0.00634771
0.00688452
0.00737036
0.00779124
0.00813466
0.00839055
0.00855214
0.00861827
0.00859709
0.00848655
0.00821502
0.000194502
-7.99864e-05
-0.00019059
-0.000225771
-0.000199372
-0.00010935
4.32755e-05
0.000257112
0.00053109
0.000863807
0.00125314
0.00169603
0.0021883
0.00272451
0.00329777
0.00389964
0.00452015
0.0051476
0.0057688
0.00636924
0.00693344
0.00744553
0.00789003
0.00825293
0.00852271
0.00869135
0.00875688
0.00872759
0.00860058
0.00829555
1.04276e-05
-0.000288411
-0.00041046
-0.000452291
-0.000429555
-0.000340671
-0.000187103
2.95885e-05
0.000308447
0.000648349
0.00104754
0.00150336
0.00201203
0.00256842
0.00316586
0.00379597
0.00444861
0.00511166
0.00577115
0.00641145
0.00701557
0.00756581
0.00804463
0.00843589
0.00872617
0.00890597
0.00897267
0.00893541
0.00879174
0.00845478
-0.000266419
-0.000588759
-0.000722047
-0.000770284
-0.00075061
-0.000661722
-0.000505417
-0.000283357
3.6607e-06
0.000354838
0.000768837
0.00124346
0.00177537
0.00235982
0.00299041
0.00365887
0.00435485
0.00506573
0.00577663
0.00647047
0.00712834
0.00773012
0.00825551
0.00868554
0.00900426
0.00920032
0.00927055
0.0092255
0.00906396
0.00869271
-0.000639451
-0.000986869
-0.00113183
-0.00118633
-0.00116906
-0.00107897
-0.000918179
-0.000688397
-0.000390215
-2.40358e-05
0.000409304
0.000908158
0.00146974
0.00208981
0.00276235
0.00347926
0.00423008
0.0050017
0.00577815
0.00654069
0.00726799
0.00793685
0.00852337
0.00900481
0.00936177
0.00958046
0.00965706
0.00960407
0.00942211
0.00901083
-0.00111362
-0.00148942
-0.00164711
-0.00170796
-0.00169259
-0.00160026
-0.00143344
-0.00119391
-0.000881998
-0.000497626
-4.10175e-05
0.000486868
0.00108395
0.00174667
0.00246957
0.00324494
0.00406233
0.00490825
0.00576562
0.0066138
0.0074286
0.00818298
0.00884835
0.00939691
0.00980454
0.010054
0.0101405
0.0100789
0.00987253
0.00941243
-0.00169575
-0.00210446
-0.00227643
-0.00234403
-0.00233028
-0.00223491
-0.00206086
-0.00181003
-0.00148242
-0.00107737
-0.000594371
-3.3518e-05
0.000604025
0.00131561
0.00209663
0.00294003
0.0038357
0.00477001
0.00572489
0.00667771
0.00760099
0.00846296
0.00922906
0.00986467
0.0103391
0.0106301
0.010731
0.0106599
0.0104233
0.00990238
-0.00239464
-0.00284184
-0.00303007
-0.00310507
-0.00309287
-0.00299394
-0.00281188
-0.00254874
-0.00220418
-0.00177686
-0.00126536
-0.00066874
1.30141e-05
0.000778475
0.00162426
0.00254441
0.00352961
0.00456656
0.00563656
0.00671508
0.00777109
0.00876725
0.00966136
0.0104097
0.0109724
0.0113195
0.0114412
0.0113591
0.0110845
0.0104866
-0.0032212
-0.00371346
-0.00392034
-0.00400356
-0.00399303
-0.00389027
-0.00369981
-0.00342396
-0.003062
-0.00261184
-0.00207099
-0.00143722
-0.000709094
0.000113565
0.00102907
0.00203312
0.00311784
0.00427112
0.00547424
0.00670131
0.00791779
0.00907998
0.0101363
0.011031
0.011711
0.0121349
0.0122869
0.0121922
0.0118687
0.0111715
-0.00418859
-0.00473373
-0.00496197
-0.00505433
-0.0050456
-0.00493887
-0.00473993
-0.00445154
-0.00407262
-0.00360018
-0.00303055
-0.00236001
-0.00158539
-0.000704518
0.000283153
0.00137569
0.00256749
0.00384906
0.00520253
0.00660184
0.00800956
0.00937541
0.0106366
0.0117217
0.0125591
0.0130898
0.0132872
0.013179
0.0127916
0.0119627
-0.00531256
-0.00592005
-0.00617269
-0.00627495
-0.00626791
-0.00615694
-0.00594961
-0.00564931
-0.00525464
-0.00476168
-0.00416543
-0.00346053
-0.0026418
-0.0017047
-0.000645883
0.000535868
0.00183809
0.00325632
0.0047745
0.00636857
0.008
0.0096126
0.0111312
0.0124647
0.0135157
0.014198
0.0144657
0.0143455
0.0138737
0.0128642
-0.00661211
-0.00729362
-0.00757392
-0.00768633
-0.00768021
-0.0075642
-0.00734833
-0.00703694
-0.00662837
-0.00611775
-0.00549867
-0.00476403
-0.00390648
-0.00291886
-0.00179451
-0.000527963
0.000884089
0.00243853
0.0041291
0.00593563
0.00782152
0.00972734
0.011566
0.0132232
0.0145668
0.0154696
0.0158508
0.0157273
0.0151434
0.0138769
-0.00811039
-0.00888074
-0.00919191
-0.00931357
-0.00930616
-0.00918308
-0.00895774
-0.00863582
-0.00821547
-0.00769085
-0.00705418
-0.00629661
-0.00540869
-0.00438054
-0.00320206
-0.00186309
-0.000354454
0.00132895
0.00318892
0.00521472
0.00737758
0.0096207
0.0118493
0.0139251
0.0156722
0.0169023
0.0174739
0.0173739
0.0166442
0.0149992
-0.00983634
-0.0107147
-0.0110594
-0.0111871
-0.0111735
-0.011039
-0.0108016
-0.0104687
-0.0100383
-0.00950365
-0.00885557
-0.00808372
-0.00717679
-0.00612255
-0.00490757
-0.00351706
-0.00193522
-0.000147196
0.00186044
0.0040918
0.00653416
0.00914403
0.0118299
0.0144362
0.0167378
0.0184613
0.0193619
0.0193546
0.0184471
0.0162315
-0.0118273
-0.0128391
-0.0132181
-0.0133442
-0.013315
-0.0131608
-0.0129057
-0.0125593
-0.0121192
-0.0115778
-0.0109245
-0.0101479
-0.00923543
-0.0081733
-0.00694575
-0.00553422
-0.00391676
-0.00206819
3.83122e-05
0.00242822
0.00511452
0.00808325
0.0112679
0.0145175
0.0175668
0.020035
0.021512
0.0217594
0.0206719
0.0175942
-0.0141338
-0.0153127
-0.0157225
-0.0158313
-0.015769
-0.0155804
-0.0152972
-0.014931
-0.014479
-0.0139319
-0.0132781
-0.0125055
-0.0116012
-0.0105513
-0.00933968
-0.00794632
-0.00634549
-0.00450385
-0.00238025
7.35124e-05
0.00290593
0.006153
0.00980798
0.0137715
0.017781
0.02135
0.0238279
0.0246805
0.0235148
0.019171
-0.0168278
-0.0182178
-0.0186449
-0.0187061
-0.0185802
-0.0183324
-0.0180032
-0.0176055
-0.0171345
-0.0165787
-0.0159252
-0.0151616
-0.0142762
-0.0132569
-0.0120899
-0.0107577
-0.00923557
-0.007488
-0.00546431
-0.00309742
-0.000302982
0.00302644
0.0069868
0.0116091
0.0167356
0.0218447
0.0259956
0.0281461
0.0272694
0.0212061
-0.0200188
-0.0216743
-0.0220833
-0.0220401
-0.0217985
-0.0214511
-0.0210471
-0.0205976
-0.0200932
-0.0195187
-0.0188591
-0.0181023
-0.0172387
-0.0162605
-0.0151599
-0.0139267
-0.0125445
-0.0109858
-0.0092029
-0.00711285
-0.00462833
-0.00155242
0.00235008
0.0073404
0.013541
0.0205944
0.0273457
0.0320115
0.0323235
0.0243081
-0.0238866
-0.0258619
-0.0261706
-0.0259178
-0.0254732
-0.0249627
-0.0244388
-0.0239046
-0.0233416
-0.0227276
-0.0220444
-0.02128
-0.0204278
-0.0194864
-0.0184575
-0.0173434
-0.0161441
-0.0148523
-0.0134444
-0.0118626
-0.00995523
-0.00754996
-0.00423879
0.000555115
0.00744816
0.0165938
0.0269584
0.0359476
0.0391779
0.0298563
-0.0287505
-0.0310573
-0.0310828
-0.0304281
-0.0296362
-0.0288635
-0.0281509
-0.0274813
-0.0268186
-0.0261296
-0.0253905
-0.0245882
-0.0237199
-0.0227914
-0.0218157
-0.0208114
-0.0198003
-0.0188039
-0.0178349
-0.0168737
-0.0158147
-0.014414
-0.0122048
-0.00825572
-0.00130125
0.00970986
0.024443
0.0398784
0.0487249
0.0406619
-0.0352191
-0.0376886
-0.0370333
-0.0356306
-0.0342567
-0.0330698
-0.0320654
-0.0311844
-0.0303615
-0.0295455
-0.0287037
-0.0278204
-0.026895
-0.0259397
-0.0249786
-0.0240461
-0.0231862
-0.0224495
-0.0218864
-0.0215259
-0.0213161
-0.0209944
-0.0200371
-0.0172195
-0.0106395
0.00188088
0.0212826
0.0450831
0.0630908
0.061566
-0.0445426
-0.0463992
-0.0442035
-0.0414512
-0.0391257
-0.0372979
-0.0358542
-0.0346598
-0.0336021
-0.0326023
-0.0316125
-0.0306103
-0.0295938
-0.0285788
-0.0275966
-0.0266927
-0.0259258
-0.0253658
-0.0250848
-0.0251318
-0.0254762
-0.0258946
-0.0256426
-0.0233877
-0.0167177
-0.00246291
0.0218422
0.0555675
0.0867249
0.0991963
-0.0596574
-0.0581049
-0.0525439
-0.0474469
-0.0436211
-0.0408443
-0.0387835
-0.0371802
-0.0358434
-0.0346468
-0.0335137
-0.0324075
-0.0313186
-0.0302607
-0.0292662
-0.0283838
-0.0276751
-0.0272101
-0.0270533
-0.0272306
-0.0276614
-0.0280241
-0.0274313
-0.0242503
-0.0157289
0.00188963
0.0323035
0.0779032
0.126011
0.162267
-0.0880234
-0.0735872
-0.0615979
-0.0526114
-0.0465326
-0.042498
-0.0397209
-0.0377351
-0.0362093
-0.0349324
-0.0337816
-0.0326932
-0.0316443
-0.0306419
-0.0297152
-0.0289089
-0.0282767
-0.0278696
-0.0277129
-0.0277616
-0.0278178
-0.0273851
-0.0253075
-0.019601
-0.00705269
0.0168074
0.0568333
0.116862
0.187081
0.268387
-0.140573
-0.0886523
-0.068745
-0.0540745
-0.0451829
-0.0400713
-0.0370479
-0.0351558
-0.0338643
-0.0328728
-0.0320136
-0.0312021
-0.0304077
-0.029636
-0.0289158
-0.0282891
-0.0277998
-0.0274763
-0.0272971
-0.0271262
-0.0266015
-0.0249755
-0.0209533
-0.0120786
0.00543751
0.0372169
0.0898827
0.171187
0.278494
0.450328
-0.31207
-0.0977749
-0.0505253
-0.034771
-0.0275239
-0.0248592
-0.0245337
-0.0250409
-0.0256902
-0.0262355
-0.0265966
-0.0267593
-0.0267469
-0.0266059
-0.0263952
-0.026176
-0.0260008
-0.0258935
-0.0258148
-0.0256016
-0.0248697
-0.0228512
-0.0180899
-0.00792701
0.011622
0.0471691
0.108403
0.216209
0.390069
0.735502
)
;

boundaryField
{
    movingWall
    {
        type            zeroGradient;
    }
    fixedWalls
    {
        type            zeroGradient;
    }
    frontAndBack
    {
        type            empty;
    }
}


// ************************************************************************* //
