/*--------------------------------*- C++ -*----------------------------------*\
  =========                 |
  \\      /  F ield         | OpenFOAM: The Open Source CFD Toolbox
   \\    /   O peration     | Website:  https://openfoam.org
    \\  /    A nd           | Version:  7
     \\/     M anipulation  |
\*---------------------------------------------------------------------------*/
FoamFile
{
    version     2.0;
    format      ascii;
    class       volVectorField;
    location    "0.11";
    object      U;
}
// * * * * * * * * * * * * * * * * * * * * * * * * * * * * * * * * * * * * * //

dimensions      [0 1 -1 0 0 0 0];

internalField   nonuniform List<vector> 
1936
(
(-5.70756 2.66645 0)
(-55.2422 153.47 0)
(-51.2909 411.641 0)
(-1.30384 466.837 0)
(9.35066 377.898 0)
(9.64904 326.22 0)
(9.90131 301.117 0)
(4.55585 283.958 0)
(-4.08512 282.279 0)
(-10.05 299.655 0)
(-16.4223 354.291 0)
(-12.7389 436.642 0)
(15.3439 435.519 0)
(28.4377 320.084 0)
(9.94976 230.569 0)
(-9.48262 218.54 0)
(-25.5567 252.181 0)
(-35.7622 395.021 0)
(15.4085 489.294 0)
(43.1479 369.09 0)
(26.8968 241.51 0)
(18.1018 215.397 0)
(0.603717 221.673 0)
(-18.8007 291.211 0)
(-24.8755 425.464 0)
(8.64413 459.114 0)
(34.1732 325.35 0)
(12.6126 217.471 0)
(-6.74115 208.675 0)
(-18.6909 234.517 0)
(-36.8634 361.826 0)
(-7.45033 487.779 0)
(35.0943 397.073 0)
(20.3868 243.052 0)
(-0.638775 206.361 0)
(-12.5484 215.275 0)
(-36.6165 316.443 0)
(-19.3282 475.097 0)
(33.042 432.06 0)
(29.7061 263.563 0)
(7.19338 205.909 0)
(-3.95216 207.965 0)
(-29.5813 285.524 0)
(-27.4323 452.541 0)
(-10.102 6.51611 0)
(-62.3044 2.56775 0)
(-54.6638 -3.20016 0)
(-2.06705 -5.39059 0)
(6.59419 -2.35655 0)
(6.82323 -0.139621 0)
(7.92404 0.629946 0)
(3.5676 1.29987 0)
(-3.1291 1.50303 0)
(-8.1482 1.1076 0)
(-16.1884 -0.353528 0)
(-13.5704 -2.71041 0)
(15.7779 -3.01846 0)
(27.542 0.0208089 0)
(6.45017 3.20828 0)
(-8.11281 3.95313 0)
(-19.5625 1.22905 0)
(-34.9554 -4.1094 0)
(16.0823 -5.467 0)
(43.6403 -1.67559 0)
(21.2278 1.5425 0)
(14.119 3.11727 0)
(3.21268 3.43936 0)
(-18.993 1.54262 0)
(-27.0076 -2.12517 0)
(8.93606 -4.27723 0)
(32.7446 -1.14248 0)
(8.42126 3.11823 0)
(-4.56405 3.78693 0)
(-13.1974 2.01124 0)
(-37.0272 -1.77895 0)
(-7.89224 -4.81891 0)
(35.7746 -2.58604 0)
(16.4376 1.9757 0)
(-2.25756 3.86043 0)
(-6.90934 3.05067 0)
(-34.912 -0.695908 0)
(-20.3643 -4.77043 0)
(34.2046 -3.8252 0)
(25.7613 0.809744 0)
(3.12703 3.63778 0)
(0.509498 3.62314 0)
(-27.2667 0.510696 0)
(-29.2632 -3.94629 0)
(-7.10445 13.9804 0)
(-60.5142 5.50876 0)
(-50.6651 -7.45284 0)
(3.08749 -11.2604 0)
(8.28305 -4.3462 0)
(7.51446 -0.193842 0)
(7.19947 1.261 0)
(2.21424 2.58971 0)
(-4.88608 2.9779 0)
(-10.299 2.35338 0)
(-17.8019 -0.558949 0)
(-13.5999 -5.85291 0)
(17.5552 -6.54631 0)
(29.9354 0.273374 0)
(9.90188 6.47655 0)
(-2.88621 7.59005 0)
(-14.6947 3.17034 0)
(-38.0326 -7.78507 0)
(10.6701 -11.7608 0)
(42.4365 -3.0771 0)
(18.2332 3.9041 0)
(5.20594 6.17406 0)
(-4.6288 6.77108 0)
(-23.6671 3.22979 0)
(-25.8928 -4.94795 0)
(13.9892 -9.26352 0)
(35.5703 -1.85762 0)
(10.0768 6.43503 0)
(-1.7829 7.27714 0)
(-12.4294 4.6331 0)
(-38.5549 -3.21055 0)
(-7.38006 -10.5869 0)
(38.1365 -5.27463 0)
(18.8426 4.47954 0)
(-0.154906 7.47477 0)
(-5.68229 6.37257 0)
(-36.2265 -0.758053 0)
(-20.9971 -10.3347 0)
(35.9766 -7.99215 0)
(26.6165 2.38507 0)
(1.70965 7.18608 0)
(-1.51834 7.23926 0)
(-29.9326 1.67686 0)
(-30.8158 -8.59783 0)
(-0.172247 20.3968 0)
(-51.707 7.9308 0)
(-37.0917 -11.2443 0)
(3.41474 -15.9926 0)
(1.40583 -5.82499 0)
(2.66339 -0.211328 0)
(2.916 1.88612 0)
(-0.630672 3.70062 0)
(-5.1797 4.19564 0)
(-7.73085 3.29159 0)
(-12.5257 -0.956708 0)
(-10.0611 -8.70224 0)
(13.9497 -9.57186 0)
(22.3408 0.35834 0)
(7.04436 8.83783 0)
(2.32782 10.3324 0)
(-1.48789 5.35473 0)
(-28.869 -9.86452 0)
(4.49943 -16.8395 0)
(30.3498 -4.28807 0)
(8.11031 6.44128 0)
(-3.20597 9.0578 0)
(-6.15713 9.09376 0)
(-18.415 3.81249 0)
(-18.0988 -7.99088 0)
(13.7493 -13.3897 0)
(26.1611 -2.1748 0)
(5.06876 9.07177 0)
(1.63537 10.1304 0)
(-4.06045 7.07126 0)
(-28.4482 -4.26579 0)
(-5.34012 -15.4306 0)
(29.426 -7.56088 0)
(11.5897 6.46576 0)
(-0.400164 10.4187 0)
(1.37293 9.2595 0)
(-25.3774 -0.630995 0)
(-16.3637 -14.9178 0)
(28.1065 -11.3578 0)
(16.3967 3.89368 0)
(-2.99631 10.2006 0)
(1.57432 10.162 0)
(-20.4484 2.55541 0)
(-24.7534 -12.5544 0)
(9.23439 25.5275 0)
(-43.5068 9.86675 0)
(-23.1372 -14.1334 0)
(3.03732 -19.0063 0)
(-4.38519 -6.97803 0)
(-1.78179 -0.479194 0)
(-1.15169 2.34639 0)
(-3.22937 4.48916 0)
(-5.47888 4.96791 0)
(-5.86123 3.68137 0)
(-8.14387 -1.59212 0)
(-6.82827 -10.8497 0)
(10.3592 -11.6377 0)
(15.6285 0.262134 0)
(4.59276 10.1045 0)
(4.9597 11.8108 0)
(7.294 7.15631 0)
(-20.0003 -10.2694 0)
(-0.984487 -19.8671 0)
(19.6253 -5.1894 0)
(1.13771 8.49596 0)
(-6.97443 11.2846 0)
(-5.11268 10.2965 0)
(-13.5885 3.45518 0)
(-11.0403 -10.6041 0)
(12.7457 -15.9845 0)
(17.5005 -2.15679 0)
(0.758194 10.6518 0)
(3.23268 11.9683 0)
(1.34748 8.85506 0)
(-19.7071 -4.85192 0)
(-3.34361 -18.5653 0)
(21.4725 -9.10312 0)
(5.99627 7.66754 0)
(-1.4644 12.2399 0)
(6.26064 11.1405 0)
(-16.4256 -0.377497 0)
(-11.855 -17.7719 0)
(20.7595 -13.4055 0)
(8.57463 5.04345 0)
(-6.42564 12.1213 0)
(4.58364 11.8792 0)
(-12.9652 3.06451 0)
(-19.0535 -15.1093 0)
(17.0151 28.8897 0)
(-34.9358 11.2783 0)
(-10.7643 -15.7819 0)
(1.77176 -20.0531 0)
(-8.53809 -7.71172 0)
(-5.75552 -0.937055 0)
(-4.71681 2.5365 0)
(-5.14576 4.85634 0)
(-5.1858 5.22245 0)
(-4.01966 3.48862 0)
(-4.57208 -2.41234 0)
(-4.11466 -12.1935 0)
(6.81951 -12.6721 0)
(9.54187 0.0724434 0)
(1.27302 10.3767 0)
(5.19985 12.136 0)
(11.4933 8.25653 0)
(-12.0393 -9.23228 0)
(-4.59552 -20.6682 0)
(10.6884 -5.84815 0)
(-3.48335 9.61959 0)
(-7.1277 12.5255 0)
(-0.893962 10.5736 0)
(-8.60712 2.56283 0)
(-5.27069 -12.5234 0)
(10.7043 -16.9264 0)
(9.72281 -1.76442 0)
(-3.60694 11.1999 0)
(3.36747 12.7286 0)
(4.76068 9.77582 0)
(-12.3603 -5.03331 0)
(-1.56753 -19.9118 0)
(14.4153 -9.79672 0)
(0.953525 8.11767 0)
(-2.72951 12.936 0)
(9.13323 11.8703 0)
(-9.25205 -0.0615429 0)
(-7.7162 -18.8509 0)
(14.1398 -14.1086 0)
(2.49887 5.74337 0)
(-8.15797 12.8611 0)
(7.08087 12.4161 0)
(-6.90569 3.29145 0)
(-13.8338 -16.2414 0)
(21.4066 30.2319 0)
(-25.7886 12.1487 0)
(-1.73118 -15.893 0)
(0.109897 -19.1925 0)
(-10.8353 -7.95751 0)
(-8.81485 -1.48496 0)
(-7.36123 2.33947 0)
(-6.15752 4.67658 0)
(-4.31359 4.88045 0)
(-2.15015 2.81139 0)
(-1.80918 -3.29456 0)
(-2.05877 -12.6438 0)
(3.34361 -12.6653 0)
(4.15272 -0.0334149 0)
(-2.33438 9.78894 0)
(3.94795 11.428 0)
(12.074 8.44384 0)
(-5.63425 -7.27398 0)
(-5.71743 -19.4054 0)
(3.89478 -6.16942 0)
(-6.18793 9.57731 0)
(-5.2441 12.4991 0)
(3.62802 10.0742 0)
(-3.90773 1.57786 0)
(-1.06895 -13.3831 0)
(7.71274 -16.2736 0)
(3.33807 -1.02054 0)
(-6.86352 10.8049 0)
(2.53706 12.362 0)
(6.66606 9.69746 0)
(-6.29643 -4.89032 0)
(-0.138494 -19.4868 0)
(8.41667 -9.55201 0)
(-3.39644 7.85885 0)
(-3.2626 12.514 0)
(9.78851 11.4812 0)
(-3.7779 0.17864 0)
(-4.09288 -18.2182 0)
(8.37663 -13.515 0)
(-2.0301 5.87599 0)
(-7.88181 12.4515 0)
(7.86143 11.9227 0)
(-2.16312 3.22761 0)
(-9.12811 -15.9744 0)
(22.236 29.4917 0)
(-15.6577 12.5712 0)
(3.26681 -14.3136 0)
(-1.26616 -16.8019 0)
(-11.2649 -7.69741 0)
(-10.2987 -2.02904 0)
(-8.58527 1.71902 0)
(-6.149 3.89699 0)
(-3.10289 3.98388 0)
(-0.514892 1.80255 0)
(0.107265 -4.09478 0)
(-0.760037 -12.1649 0)
(0.144728 -11.6846 0)
(-0.285471 -0.0637449 0)
(-4.95482 8.56152 0)
(2.14494 9.88913 0)
(10.5978 7.75514 0)
(-1.01081 -5.08431 0)
(-4.66434 -16.5342 0)
(-0.579494 -5.94465 0)
(-7.30964 8.42737 0)
(-3.0257 11.2424 0)
(6.06999 8.98642 0)
(0.0634092 0.704669 0)
(1.50193 -12.9458 0)
(4.2276 -14.273 0)
(-1.30418 -0.202068 0)
(-7.92411 9.65565 0)
(1.57931 10.9914 0)
(7.48436 8.70953 0)
(-1.48531 -4.53243 0)
(0.81994 -17.4708 0)
(3.6537 -8.43861 0)
(-6.38118 7.03859 0)
(-2.99629 11.0806 0)
(8.83925 10.1712 0)
(0.125617 0.212467 0)
(-1.14415 -16.0912 0)
(3.63934 -11.7869 0)
(-5.08618 5.42617 0)
(-6.39729 11.0611 0)
(7.1187 10.5834 0)
(1.37286 2.85328 0)
(-5.01954 -14.4354 0)
(19.408 26.7154 0)
(-4.85164 12.6129 0)
(5.62795 -11.0773 0)
(-1.44314 -13.4275 0)
(-9.7088 -6.98573 0)
(-9.77318 -2.49454 0)
(-8.11541 0.761465 0)
(-5.17481 2.64133 0)
(-1.81759 2.70451 0)
(0.641827 0.605471 0)
(1.16804 -4.59728 0)
(-0.292526 -10.8455 0)
(-2.39207 -9.90305 0)
(-3.53193 -0.166282 0)
(-5.98436 6.8605 0)
(0.626891 7.82922 0)
(8.2961 6.39998 0)
(1.80046 -3.22767 0)
(-2.66001 -12.6825 0)
(-2.94531 -5.06398 0)
(-7.16297 6.57574 0)
(-1.57236 9.0859 0)
(6.31956 7.44373 0)
(3.00933 0.00296151 0)
(2.5709 -11.2359 0)
(1.09168 -11.3528 0)
(-4.09322 0.332834 0)
(-7.12382 7.97306 0)
(1.09503 8.91627 0)
(7.35985 7.03409 0)
(1.83336 -3.9609 0)
(1.24257 -14.2254 0)
(0.330515 -6.70072 0)
(-7.39181 5.7653 0)
(-2.30495 8.94341 0)
(7.2784 8.26442 0)
(2.68944 0.0266945 0)
(0.882133 -12.8731 0)
(0.266859 -9.23216 0)
(-6.56491 4.47115 0)
(-4.69576 9.01076 0)
(5.78359 8.66973 0)
(3.75273 2.16998 0)
(-1.75776 -11.9087 0)
(13.8302 22.2613 0)
(4.18234 12.0668 0)
(7.22891 -6.70888 0)
(0.0933048 -9.56168 0)
(-6.37839 -5.8597 0)
(-7.4244 -2.76125 0)
(-6.24477 -0.295637 0)
(-3.59551 1.1894 0)
(-0.661705 1.27335 0)
(1.29945 -0.52991 0)
(1.5095 -4.64798 0)
(-0.458722 -8.91278 0)
(-3.88018 -7.68441 0)
(-5.31886 -0.414032 0)
(-5.71532 4.8669 0)
(-0.308058 5.55966 0)
(5.7749 4.67307 0)
(2.90889 -1.90284 0)
(-0.989547 -8.59124 0)
(-3.58288 -3.69608 0)
(-5.95166 4.52301 0)
(-0.840769 6.56858 0)
(5.35543 5.51016 0)
(4.46521 -0.423901 0)
(2.48455 -8.58042 0)
(-1.02125 -8.08614 0)
(-5.12032 0.481293 0)
(-5.52179 5.96377 0)
(0.92726 6.56013 0)
(6.32843 4.99327 0)
(3.44074 -3.15553 0)
(1.14604 -10.3526 0)
(-1.61339 -4.72746 0)
(-6.60003 4.20329 0)
(-1.62109 6.51961 0)
(5.55071 6.07578 0)
(3.9337 -0.199681 0)
(1.73912 -9.14483 0)
(-1.47722 -6.34428 0)
(-6.2964 3.22818 0)
(-3.21995 6.67005 0)
(4.48894 6.45754 0)
(4.79699 1.32154 0)
(0.326862 -8.80495 0)
(7.97735 16.9618 0)
(8.47188 10.6695 0)
(8.27277 -2.36019 0)
(2.67583 -5.66467 0)
(-2.26593 -4.33338 0)
(-4.03532 -2.67144 0)
(-3.6636 -1.13832 0)
(-1.84528 -0.128784 0)
(0.284234 -0.0386604 0)
(1.6122 -1.38766 0)
(1.44662 -4.22243 0)
(-0.718604 -6.70235 0)
(-4.08725 -5.50647 0)
(-5.4498 -0.731545 0)
(-4.72253 2.85486 0)
(-0.798649 3.42329 0)
(3.36248 2.90172 0)
(2.58535 -1.04489 0)
(-0.263579 -5.01035 0)
(-3.12302 -2.24589 0)
(-4.15926 2.69151 0)
(-0.415117 4.19634 0)
(3.89868 3.51544 0)
(4.23179 -0.54416 0)
(1.84349 -5.61835 0)
(-1.84441 -5.03949 0)
(-4.64551 0.380779 0)
(-3.82978 3.91376 0)
(0.716359 4.29363 0)
(4.63402 3.01656 0)
(3.48766 -2.2321 0)
(0.777334 -6.568 0)
(-2.30116 -2.91369 0)
(-4.83527 2.67687 0)
(-1.10226 4.21606 0)
(3.76872 3.89934 0)
(3.7939 -0.295135 0)
(1.61175 -5.58516 0)
(-1.89415 -3.69323 0)
(-4.75053 2.07018 0)
(-1.9933 4.38419 0)
(3.25449 4.21938 0)
(4.44565 0.612548 0)
(1.20647 -5.6769 0)
(4.115 11.8682 0)
(7.88273 8.623 0)
(7.73677 0.795948 0)
(4.42885 -2.32592 0)
(1.10519 -2.59552 0)
(-0.736545 -2.17181 0)
(-1.05469 -1.54487 0)
(-0.181231 -1.03305 0)
(1.06649 -1.01108 0)
(1.76044 -1.8595 0)
(1.27854 -3.46431 0)
(-0.673252 -4.61373 0)
(-3.26081 -3.7101 0)
(-4.32401 -0.987388 0)
(-3.48451 1.17953 0)
(-1.02628 1.6944 0)
(1.42988 1.41955 0)
(1.51347 -0.548485 0)
(-0.203659 -2.44409 0)
(-2.1868 -1.10906 0)
(-2.45315 1.35504 0)
(-0.174449 2.2849 0)
(2.39604 1.8768 0)
(2.91336 -0.43529 0)
(1.07486 -3.0588 0)
(-1.68744 -2.65688 0)
(-3.30207 0.212497 0)
(-2.36017 2.18223 0)
(0.419173 2.39733 0)
(2.81274 1.48664 0)
(2.50711 -1.36669 0)
(0.335937 -3.50872 0)
(-2.044 -1.52879 0)
(-3.00071 1.45696 0)
(-0.727893 2.36896 0)
(2.13548 2.09403 0)
(2.64474 -0.241732 0)
(1.0173 -2.79508 0)
(-1.51922 -1.71173 0)
(-2.88472 1.21984 0)
(-1.0614 2.50416 0)
(2.07611 2.33842 0)
(3.17017 0.185725 0)
(1.19672 -3.08527 0)
(2.16772 7.91262 0)
(5.0585 6.46915 0)
(5.72066 2.33097 0)
(4.42237 -0.0994784 0)
(2.65434 -1.07367 0)
(1.37908 -1.45976 0)
(0.89286 -1.54502 0)
(1.10956 -1.48527 0)
(1.58134 -1.54281 0)
(1.72305 -1.94345 0)
(1.10131 -2.60794 0)
(-0.348123 -2.95941 0)
(-2.01596 -2.40042 0)
(-2.77183 -1.07055 0)
(-2.3029 0.0789631 0)
(-1.00408 0.494165 0)
(0.260921 0.426079 0)
(0.50378 -0.31141 0)
(-0.301426 -0.979972 0)
(-1.27931 -0.454928 0)
(-1.27233 0.53398 0)
(-0.115578 1.00259 0)
(1.16798 0.813597 0)
(1.47888 -0.234411 0)
(0.437304 -1.32023 0)
(-1.1327 -1.11975 0)
(-1.90426 0.098918 0)
(-1.27834 0.990333 0)
(0.165905 1.07337 0)
(1.37196 0.544113 0)
(1.29092 -0.702409 0)
(0.00281234 -1.51212 0)
(-1.35832 -0.64685 0)
(-1.63867 0.661468 0)
(-0.487676 1.11347 0)
(0.932902 0.911499 0)
(1.31523 -0.116742 0)
(0.417742 -1.0487 0)
(-0.923589 -0.529895 0)
(-1.44482 0.675079 0)
(-0.473311 1.2221 0)
(1.12212 1.06432 0)
(1.76458 0.0167403 0)
(0.779821 -1.34719 0)
(1.18543 5.36297 0)
(2.67351 4.69045 0)
(3.46764 2.61763 0)
(3.25418 0.954347 0)
(2.59925 -0.103715 0)
(1.99766 -0.844805 0)
(1.66398 -1.3217 0)
(1.59948 -1.55904 0)
(1.60639 -1.64352 0)
(1.4182 -1.73494 0)
(0.861156 -1.85296 0)
(-0.0281124 -1.83827 0)
(-0.948182 -1.54102 0)
(-1.43444 -0.994856 0)
(-1.30677 -0.477145 0)
(-0.762361 -0.197294 0)
(-0.21005 -0.121929 0)
(-0.0445904 -0.245179 0)
(-0.31816 -0.355801 0)
(-0.658553 -0.187527 0)
(-0.611829 0.117056 0)
(-0.138129 0.306189 0)
(0.383153 0.270042 0)
(0.505279 -0.0579245 0)
(0.0499833 -0.398287 0)
(-0.625761 -0.332436 0)
(-0.925665 0.0494746 0)
(-0.626167 0.328996 0)
(-0.00323531 0.331903 0)
(0.481026 0.105562 0)
(0.421839 -0.288397 0)
(-0.160881 -0.486433 0)
(-0.747711 -0.188509 0)
(-0.823058 0.249264 0)
(-0.340942 0.413797 0)
(0.243163 0.313875 0)
(0.4162 -0.00708503 0)
(0.055228 -0.21445 0)
(-0.458759 0.000136033 0)
(-0.603416 0.369059 0)
(-0.170939 0.503492 0)
(0.503685 0.387615 0)
(0.765554 -0.00211883 0)
(0.369876 -0.422322 0)
(0.673743 3.78119 0)
(1.48018 3.48114 0)
(2.0198 2.33959 0)
(2.13944 1.25073 0)
(1.97917 0.325368 0)
(1.72734 -0.444973 0)
(1.51962 -1.01922 0)
(1.35764 -1.34187 0)
(1.17952 -1.43497 0)
(0.91626 -1.39327 0)
(0.541851 -1.30025 0)
(0.0925319 -1.18309 0)
(-0.332742 -1.03927 0)
(-0.592354 -0.8586 0)
(-0.609532 -0.671655 0)
(-0.452957 -0.50882 0)
(-0.277628 -0.370928 0)
(-0.206646 -0.268407 0)
(-0.256196 -0.193519 0)
(-0.322374 -0.124583 0)
(-0.28804 -0.0522327 0)
(-0.138492 0.0169198 0)
(0.0217446 0.0571836 0)
(0.0489469 0.0359083 0)
(-0.0990911 -0.0188803 0)
(-0.302596 -0.0186026 0)
(-0.387004 0.0258512 0)
(-0.281963 0.0460464 0)
(-0.0827617 0.0195127 0)
(0.0513228 -0.033667 0)
(0.00674792 -0.0863592 0)
(-0.192978 -0.0854212 0)
(-0.37796 -0.00535637 0)
(-0.387952 0.0838992 0)
(-0.225171 0.107853 0)
(-0.0438067 0.0806578 0)
(0.010674 0.0453845 0)
(-0.0792825 0.0679994 0)
(-0.193538 0.152155 0)
(-0.194979 0.20849 0)
(-0.0360601 0.180733 0)
(0.183154 0.114448 0)
(0.250574 0.0226734 0)
(0.131172 -0.0480007 0)
(0.411873 2.71628 0)
(0.977764 2.63681 0)
(1.35739 1.95715 0)
(1.50002 1.21637 0)
(1.47582 0.478772 0)
(1.33142 -0.185015 0)
(1.13004 -0.699721 0)
(0.920786 -1.00728 0)
(0.703191 -1.10432 0)
(0.478788 -1.05485 0)
(0.259247 -0.946159 0)
(0.0584186 -0.845773 0)
(-0.108145 -0.781583 0)
(-0.219021 -0.734614 0)
(-0.262339 -0.675596 0)
(-0.252069 -0.583452 0)
(-0.223781 -0.452211 0)
(-0.202803 -0.313246 0)
(-0.191146 -0.204229 0)
(-0.17846 -0.142635 0)
(-0.154886 -0.108924 0)
(-0.117743 -0.0650141 0)
(-0.0797813 -0.00190627 0)
(-0.0722397 0.0560308 0)
(-0.0996184 0.0827002 0)
(-0.13168 0.0646894 0)
(-0.139615 0.0157832 0)
(-0.116369 -0.0343962 0)
(-0.0863093 -0.0609048 0)
(-0.077655 -0.0479257 0)
(-0.102505 -0.00966091 0)
(-0.146618 0.0265377 0)
(-0.17708 0.0404029 0)
(-0.170756 0.0293128 0)
(-0.134269 0.00923741 0)
(-0.097087 0.0114314 0)
(-0.0799745 0.0519941 0)
(-0.0769076 0.111965 0)
(-0.0673053 0.146848 0)
(-0.0383531 0.125621 0)
(0.00748907 0.0734009 0)
(0.0509746 0.0414395 0)
(0.0541136 0.0466023 0)
(0.0328234 0.0606521 0)
(0.257724 1.93669 0)
(0.676467 1.97382 0)
(0.987642 1.57072 0)
(1.136 1.07741 0)
(1.1469 0.545676 0)
(1.05411 0.0310571 0)
(0.884367 -0.38156 0)
(0.67528 -0.648619 0)
(0.467816 -0.763207 0)
(0.284465 -0.765448 0)
(0.137887 -0.716399 0)
(0.0271984 -0.669239 0)
(-0.0514438 -0.646748 0)
(-0.106662 -0.637825 0)
(-0.147164 -0.614682 0)
(-0.172512 -0.55462 0)
(-0.183764 -0.45666 0)
(-0.180693 -0.344054 0)
(-0.16403 -0.247009 0)
(-0.140888 -0.180356 0)
(-0.120416 -0.133423 0)
(-0.105646 -0.0833834 0)
(-0.0928449 -0.0210757 0)
(-0.0789487 0.0353179 0)
(-0.064414 0.0642135 0)
(-0.049997 0.0510532 0)
(-0.039058 0.008345 0)
(-0.0375357 -0.0347787 0)
(-0.0469444 -0.0490063 0)
(-0.0620752 -0.0270298 0)
(-0.0746605 0.0111796 0)
(-0.0779397 0.0370748 0)
(-0.0726747 0.034853 0)
(-0.0654389 0.0129661 0)
(-0.0609808 -0.00425068 0)
(-0.0592492 0.00524774 0)
(-0.0546032 0.0413579 0)
(-0.0401439 0.0819192 0)
(-0.0169224 0.0992855 0)
(0.00431959 0.0832763 0)
(0.0143384 0.054257 0)
(0.0139568 0.0448743 0)
(0.0071164 0.063773 0)
(0.0071678 0.0774421 0)
(0.15843 1.35564 0)
(0.445047 1.43295 0)
(0.686676 1.20376 0)
(0.833895 0.897186 0)
(0.883866 0.546444 0)
(0.846122 0.194739 0)
(0.741453 -0.112544 0)
(0.594971 -0.333631 0)
(0.436982 -0.462663 0)
(0.292154 -0.517792 0)
(0.173458 -0.532413 0)
(0.0820337 -0.536361 0)
(0.0125562 -0.541675 0)
(-0.0426442 -0.54587 0)
(-0.0886191 -0.533688 0)
(-0.124917 -0.494136 0)
(-0.148953 -0.42851 0)
(-0.158053 -0.34997 0)
(-0.15297 -0.274291 0)
(-0.139153 -0.209956 0)
(-0.123231 -0.154588 0)
(-0.10808 -0.101013 0)
(-0.091806 -0.0475711 0)
(-0.071964 -0.00313951 0)
(-0.0485712 0.0201042 0)
(-0.0264898 0.0181688 0)
(-0.0132273 -0.000452169 0)
(-0.0107181 -0.0189622 0)
(-0.0161976 -0.0225769 0)
(-0.0244414 -0.00945154 0)
(-0.0291331 0.0100736 0)
(-0.0264294 0.0222155 0)
(-0.0194647 0.0205205 0)
(-0.0158231 0.0105275 0)
(-0.0176893 0.0044803 0)
(-0.0212311 0.0118148 0)
(-0.0210827 0.0315217 0)
(-0.0137182 0.0532341 0)
(-0.00168585 0.0652825 0)
(0.00764927 0.0637928 0)
(0.00940273 0.0574335 0)
(0.00556027 0.0588754 0)
(0.000243351 0.0702647 0)
(0.00210805 0.0711957 0)
(0.0961425 0.930204 0)
(0.280667 1.00759 0)
(0.449575 0.881713 0)
(0.570826 0.703588 0)
(0.637372 0.490426 0)
(0.646023 0.266837 0)
(0.606044 0.059165 0)
(0.530704 -0.110105 0)
(0.43741 -0.231719 0)
(0.34215 -0.312308 0)
(0.253609 -0.364291 0)
(0.175541 -0.400228 0)
(0.107509 -0.42607 0)
(0.0475461 -0.440557 0)
(-0.00520885 -0.438643 0)
(-0.0496175 -0.417172 0)
(-0.0837571 -0.37808 0)
(-0.106039 -0.327872 0)
(-0.116513 -0.274077 0)
(-0.117496 -0.221458 0)
(-0.11197 -0.171306 0)
(-0.101865 -0.123629 0)
(-0.0877013 -0.0802142 0)
(-0.0699664 -0.0454943 0)
(-0.0505239 -0.0235255 0)
(-0.032767 -0.0151657 0)
(-0.0201044 -0.0152636 0)
(-0.0138115 -0.0159968 0)
(-0.0124927 -0.012374 0)
(-0.0129387 -0.00390786 0)
(-0.0121608 0.00552985 0)
(-0.00907281 0.0116241 0)
(-0.00550522 0.0125034 0)
(-0.00436334 0.0109066 0)
(-0.0059368 0.0114126 0)
(-0.00846685 0.0173596 0)
(-0.00967376 0.0279497 0)
(-0.00784218 0.0399056 0)
(-0.00381556 0.0493681 0)
(-0.000393618 0.0550471 0)
(0.000491715 0.0589743 0)
(-0.000410105 0.0642631 0)
(-0.00235189 0.0707738 0)
(0.000791964 0.0659999 0)
(0.0579061 0.625541 0)
(0.173531 0.688771 0)
(0.283687 0.620865 0)
(0.370667 0.521943 0)
(0.430518 0.399783 0)
(0.458376 0.26637 0)
(0.456382 0.134861 0)
(0.431343 0.0156935 0)
(0.389713 -0.0829159 0)
(0.33839 -0.161153 0)
(0.283972 -0.22216 0)
(0.229239 -0.269261 0)
(0.17568 -0.304133 0)
(0.124238 -0.326294 0)
(0.0760053 -0.334414 0)
(0.0326025 -0.328167 0)
(-0.00402195 -0.309296 0)
(-0.032862 -0.281032 0)
(-0.053579 -0.247097 0)
(-0.0663187 -0.210457 0)
(-0.0721661 -0.173133 0)
(-0.072227 -0.136841 0)
(-0.0675172 -0.10365 0)
(-0.0592782 -0.0758582 0)
(-0.0492292 -0.0549853 0)
(-0.0393592 -0.0407763 0)
(-0.031288 -0.0311228 0)
(-0.0256857 -0.023268 0)
(-0.0221404 -0.0153548 0)
(-0.0196076 -0.00722786 0)
(-0.0172151 1.02516e-05 0)
(-0.0148201 0.00528787 0)
(-0.0129813 0.00866215 0)
(-0.012289 0.0113734 0)
(-0.0127319 0.0149869 0)
(-0.0136844 0.0203645 0)
(-0.0142258 0.0274394 0)
(-0.0136801 0.0353197 0)
(-0.0120966 0.0429674 0)
(-0.0101098 0.0498203 0)
(-0.00823939 0.0559548 0)
(-0.00617695 0.0615588 0)
(-0.00472354 0.066208 0)
(-0.000158869 0.0600469 0)
(0.0344719 0.410837 0)
(0.106041 0.457477 0)
(0.175377 0.421168 0)
(0.233693 0.367473 0)
(0.279095 0.299691 0)
(0.308397 0.223095 0)
(0.321503 0.143624 0)
(0.319968 0.0667666 0)
(0.306774 -0.004449 0)
(0.284681 -0.0664199 0)
(0.256253 -0.119263 0)
(0.223769 -0.162785 0)
(0.188775 -0.196796 0)
(0.152637 -0.220852 0)
(0.116776 -0.234585 0)
(0.0826652 -0.238211 0)
(0.0517204 -0.232787 0)
(0.0250094 -0.220046 0)
(0.00304759 -0.201841 0)
(-0.0139248 -0.180026 0)
(-0.0259592 -0.15621 0)
(-0.0335216 -0.13188 0)
(-0.0372496 -0.108516 0)
(-0.0379667 -0.0873989 0)
(-0.0366845 -0.0693119 0)
(-0.0344247 -0.0543118 0)
(-0.0319883 -0.0418118 0)
(-0.0298037 -0.0310045 0)
(-0.0279371 -0.0213312 0)
(-0.0262621 -0.0126898 0)
(-0.0246887 -0.00525686 0)
(-0.0232854 0.000907892 0)
(-0.022203 0.0060498 0)
(-0.0215424 0.0107259 0)
(-0.0212347 0.0155088 0)
(-0.0210103 0.0207333 0)
(-0.020521 0.0264238 0)
(-0.0194976 0.032391 0)
(-0.0178376 0.03837 0)
(-0.0155786 0.0441071 0)
(-0.0127849 0.0493732 0)
(-0.009282 0.0539084 0)
(-0.00598623 0.0573167 0)
(-0.000988251 0.0514018 0)
(0.0204952 0.260528 0)
(0.0648448 0.292209 0)
(0.107989 0.272835 0)
(0.146057 0.243982 0)
(0.178092 0.207001 0)
(0.202097 0.164113 0)
(0.21766 0.11785 0)
(0.224905 0.0707634 0)
(0.224516 0.0250547 0)
(0.21723 -0.0178526 0)
(0.204422 -0.0562166 0)
(0.187507 -0.089363 0)
(0.167314 -0.116627 0)
(0.14492 -0.137505 0)
(0.121443 -0.151746 0)
(0.0979528 -0.159451 0)
(0.0754256 -0.16111 0)
(0.0546582 -0.15753 0)
(0.0362134 -0.149692 0)
(0.0204384 -0.138608 0)
(0.00748224 -0.125271 0)
(-0.00281235 -0.110646 0)
(-0.0105732 -0.0956261 0)
(-0.0160788 -0.0809735 0)
(-0.0198741 -0.0672172 0)
(-0.0223801 -0.0546379 0)
(-0.0239666 -0.0432496 0)
(-0.0249107 -0.0329542 0)
(-0.0253841 -0.0236624 0)
(-0.0254907 -0.015347 0)
(-0.0253241 -0.00800437 0)
(-0.0249882 -0.00157307 0)
(-0.0245622 0.00411167 0)
(-0.024081 0.00928466 0)
(-0.0235083 0.0141781 0)
(-0.0227465 0.0189491 0)
(-0.0216816 0.0236532 0)
(-0.0202092 0.0282676 0)
(-0.0182615 0.032721 0)
(-0.0158102 0.0369017 0)
(-0.0128457 0.040658 0)
(-0.00928452 0.0438083 0)
(-0.00568023 0.0461108 0)
(-0.00135133 0.0410276 0)
(0.0129643 0.158483 0)
(0.0422042 0.178335 0)
(0.0704715 0.167864 0)
(0.0962687 0.152261 0)
(0.119059 0.132103 0)
(0.137547 0.108343 0)
(0.15134 0.0820943 0)
(0.160219 0.0545546 0)
(0.164271 0.0268822 0)
(0.164024 8.78698e-05 0)
(0.159698 -0.0247499 0)
(0.151631 -0.046983 0)
(0.140692 -0.0660138 0)
(0.12758 -0.081407 0)
(0.112988 -0.092918 0)
(0.0976149 -0.100508 0)
(0.0821083 -0.104341 0)
(0.0670297 -0.104752 0)
(0.0528292 -0.102195 0)
(0.0398344 -0.0971919 0)
(0.0282545 -0.0902919 0)
(0.0181864 -0.0820493 0)
(0.00964335 -0.0729696 0)
(0.00256468 -0.0635152 0)
(-0.00325247 -0.0540637 0)
(-0.00793627 -0.0448734 0)
(-0.0116054 -0.0361351 0)
(-0.014461 -0.0279413 0)
(-0.016617 -0.0203532 0)
(-0.0181739 -0.0134084 0)
(-0.019228 -0.00711956 0)
(-0.0198719 -0.00146147 0)
(-0.0201751 0.003631 0)
(-0.020162 0.00824727 0)
(-0.0198313 0.0124821 0)
(-0.0191771 0.0164113 0)
(-0.018181 0.0200789 0)
(-0.0168178 0.0234964 0)
(-0.0150711 0.0266475 0)
(-0.0129396 0.02949 0)
(-0.0104284 0.0319571 0)
(-0.0075172 0.033965 0)
(-0.00448056 0.0353972 0)
(-0.00126148 0.0312951 0)
(0.00918956 0.0934679 0)
(0.030769 0.10515 0)
(0.0513493 0.099247 0)
(0.0705782 0.0904856 0)
(0.0880906 0.0791446 0)
(0.102974 0.0656745 0)
(0.114927 0.0506176 0)
(0.123732 0.0345864 0)
(0.129314 0.01822 0)
(0.131744 0.00214037 0)
(0.131176 -0.0132375 0)
(0.127881 -0.0272619 0)
(0.122241 -0.0395334 0)
(0.114662 -0.0497505 0)
(0.105584 -0.0577184 0)
(0.09546 -0.0633588 0)
(0.0847252 -0.0667061 0)
(0.0737779 -0.0678937 0)
(0.0629622 -0.0671335 0)
(0.0525585 -0.0646918 0)
(0.0427823 -0.0608661 0)
(0.0337867 -0.0559673 0)
(0.0256616 -0.0503007 0)
(0.0184491 -0.0441522 0)
(0.0121625 -0.0377833 0)
(0.0067128 -0.0313784 0)
(0.00203707 -0.0251117 0)
(-0.00186691 -0.0191038 0)
(-0.00505902 -0.0134399 0)
(-0.0076198 -0.00817654 0)
(-0.00962628 -0.00334485 0)
(-0.0111309 0.00104902 0)
(-0.0121873 0.00502444 0)
(-0.0128232 0.00861432 0)
(-0.0130679 0.0118571 0)
(-0.0129553 0.0147919 0)
(-0.0124908 0.0174492 0)
(-0.0116809 0.0198453 0)
(-0.0105377 0.0219828 0)
(-0.00908086 0.0238503 0)
(-0.00733179 0.0254243 0)
(-0.00530373 0.0266713 0)
(-0.00312961 0.0275405 0)
(-0.000971006 0.02424 0)
(0.00712678 0.0513667 0)
(0.0245041 0.0575867 0)
(0.0407534 0.0541686 0)
(0.0562021 0.049148 0)
(0.0705709 0.0426622 0)
(0.0831269 0.0349319 0)
(0.0936342 0.0262434 0)
(0.101905 0.0169348 0)
(0.107843 0.00736747 0)
(0.111417 -0.00211161 0)
(0.112701 -0.0111916 0)
(0.111876 -0.0195392 0)
(0.109143 -0.0268895 0)
(0.104733 -0.0330403 0)
(0.0989249 -0.0378543 0)
(0.0920225 -0.0412627 0)
(0.0843294 -0.0432626 0)
(0.0761365 -0.0439114 0)
(0.0677088 -0.0433166 0)
(0.0592782 -0.0416249 0)
(0.0510411 -0.0390083 0)
(0.043157 -0.0356524 0)
(0.035746 -0.0317462 0)
(0.0288939 -0.027471 0)
(0.0226608 -0.0229936 0)
(0.0170463 -0.0184694 0)
(0.012054 -0.0139981 0)
(0.00770641 -0.00969243 0)
(0.00397627 -0.00562789 0)
(0.00081965 -0.00183941 0)
(-0.00179319 0.00165227 0)
(-0.00388014 0.00481702 0)
(-0.00548092 0.00765838 0)
(-0.00665914 0.0101953 0)
(-0.00744851 0.0124514 0)
(-0.00785678 0.0144524 0)
(-0.00790391 0.0162227 0)
(-0.00761422 0.0177808 0)
(-0.0070141 0.0191378 0)
(-0.00613381 0.0202964 0)
(-0.00500452 0.0212524 0)
(-0.00365734 0.0219948 0)
(-0.00215636 0.0225038 0)
(-0.000719003 0.0197405 0)
(0.00564214 0.0222899 0)
(0.0199017 0.0247309 0)
(0.0328159 0.0228379 0)
(0.0452603 0.0201235 0)
(0.0570367 0.0166252 0)
(0.067479 0.0124432 0)
(0.0764025 0.00772382 0)
(0.0836262 0.00267769 0)
(0.089066 -0.00249273 0)
(0.0926971 -0.00758152 0)
(0.0945678 -0.0123738 0)
(0.094769 -0.0167217 0)
(0.0933679 -0.0204736 0)
(0.0905138 -0.0235097 0)
(0.0864021 -0.0257492 0)
(0.0812505 -0.02715 0)
(0.0752867 -0.0277088 0)
(0.0687361 -0.0274575 0)
(0.0618115 -0.0264591 0)
(0.0547078 -0.0248023 0)
(0.0476012 -0.0225963 0)
(0.0406449 -0.0199539 0)
(0.0339651 -0.0169941 0)
(0.0276615 -0.0138347 0)
(0.0218072 -0.0105872 0)
(0.0164536 -0.00733865 0)
(0.0116271 -0.00417096 0)
(0.00736931 -0.00115068 0)
(0.00370526 0.00167973 0)
(0.000604091 0.00426663 0)
(-0.0020113 0.00657671 0)
(-0.00416247 0.00863167 0)
(-0.00582309 0.0104404 0)
(-0.0070235 0.0120064 0)
(-0.00779534 0.0133569 0)
(-0.0081626 0.014515 0)
(-0.0081536 0.0155049 0)
(-0.00780002 0.0163485 0)
(-0.00713584 0.0170629 0)
(-0.00619861 0.0176591 0)
(-0.00502589 0.018142 0)
(-0.0036545 0.0185106 0)
(-0.00213137 0.018761 0)
(-0.000714323 0.0164186 0)
(0.00412039 0.00250042 0)
(0.0151474 0.00241489 0)
(0.0245014 0.00144828 0)
(0.0336481 0.000130341 0)
(0.042372 -0.00149542 0)
(0.0500681 -0.00336856 0)
(0.0566572 -0.00539365 0)
(0.0620666 -0.00751121 0)
(0.0661207 -0.00963466 0)
(0.068722 -0.0116494 0)
(0.0698308 -0.0134426 0)
(0.0694615 -0.0149481 0)
(0.0677583 -0.016093 0)
(0.0648599 -0.0168219 0)
(0.0609167 -0.017101 0)
(0.0560987 -0.0169185 0)
(0.0505881 -0.0162827 0)
(0.0445754 -0.0152189 0)
(0.0382513 -0.0137667 0)
(0.031792 -0.011988 0)
(0.0253687 -0.00998368 0)
(0.0191257 -0.00778841 0)
(0.0131728 -0.00547897 0)
(0.00762343 -0.00312941 0)
(0.0025583 -0.000803318 0)
(-0.00199707 0.00142238 0)
(-0.00602016 0.00351104 0)
(-0.00950209 0.00543255 0)
(-0.0124413 0.00716603 0)
(-0.0148212 0.00868024 0)
(-0.0165879 0.00995887 0)
(-0.0177399 0.0110273 0)
(-0.0183793 0.0119015 0)
(-0.0185436 0.0125995 0)
(-0.0182359 0.013143 0)
(-0.0174996 0.013557 0)
(-0.0163742 0.0138674 0)
(-0.0148961 0.0140989 0)
(-0.0131038 0.0142731 0)
(-0.0110392 0.0144062 0)
(-0.00874203 0.0145088 0)
(-0.0062431 0.0145843 0)
(-0.00359868 0.0146366 0)
(-0.00115629 0.01279 0)
(0.00227869 -0.00921029 0)
(0.00943061 -0.010686 0)
(0.0145632 -0.0110436 0)
(0.0197973 -0.0113992 0)
(0.0248487 -0.0117482 0)
(0.0290903 -0.0120623 0)
(0.0323475 -0.0122972 0)
(0.0344988 -0.0124439 0)
(0.0355116 -0.0124735 0)
(0.0353639 -0.0123643 0)
(0.0340489 -0.012113 0)
(0.0316043 -0.0116754 0)
(0.0281429 -0.0110408 0)
(0.0238049 -0.010204 0)
(0.0187313 -0.00916762 0)
(0.0130643 -0.0079434 0)
(0.00695353 -0.0065523 0)
(0.000572408 -0.00502623 0)
(-0.00588961 -0.00340431 0)
(-0.0122825 -0.00174715 0)
(-0.0184029 -1.72346e-05 0)
(-0.0240959 0.00167764 0)
(-0.0293193 0.00329555 0)
(-0.0340119 0.00480516 0)
(-0.0380956 0.00617896 0)
(-0.0414774 0.00737678 0)
(-0.0441179 0.00838817 0)
(-0.0460243 0.00920261 0)
(-0.0472027 0.00981302 0)
(-0.0476604 0.0102441 0)
(-0.0474048 0.0105224 0)
(-0.0464603 0.0106389 0)
(-0.0448757 0.0106147 0)
(-0.0427094 0.0104912 0)
(-0.0400267 0.0102889 0)
(-0.0369007 0.0100334 0)
(-0.0333934 0.00975033 0)
(-0.0295492 0.00946182 0)
(-0.0254115 0.00918782 0)
(-0.0210257 0.00894439 0)
(-0.0164282 0.00874273 0)
(-0.0116312 0.00858743 0)
(-0.00669905 0.00848531 0)
(-0.0021139 0.00739646 0)
(0.000113662 -0.0136326 0)
(0.00252229 -0.0155062 0)
(0.00252566 -0.0154651 0)
(0.00289089 -0.015123 0)
(0.00314706 -0.014556 0)
(0.00269497 -0.0137851 0)
(0.00141785 -0.0128374 0)
(-0.000738423 -0.0116979 0)
(-0.00379801 -0.0103826 0)
(-0.00772799 -0.00892289 0)
(-0.0124727 -0.00735207 0)
(-0.0179866 -0.00569971 0)
(-0.0241305 -0.00399767 0)
(-0.0307342 -0.00227598 0)
(-0.0376605 -0.000559427 0)
(-0.044785 0.0011275 0)
(-0.0519537 0.00275648 0)
(-0.0590311 0.00429337 0)
(-0.0658953 0.00570008 0)
(-0.0723254 0.00698712 0)
(-0.0782335 0.00813407 0)
(-0.0835687 0.00907918 0)
(-0.0881588 0.00980547 0)
(-0.0919132 0.0103026 0)
(-0.094773 0.0105631 0)
(-0.0966831 0.0106048 0)
(-0.0976112 0.0104232 0)
(-0.0975508 0.0100322 0)
(-0.0965089 0.00945373 0)
(-0.0944995 0.00871882 0)
(-0.0915631 0.00786348 0)
(-0.0877478 0.00691876 0)
(-0.0830856 0.00592063 0)
(-0.0776626 0.00490856 0)
(-0.0715941 0.00391958 0)
(-0.0650093 0.00298579 0)
(-0.0580224 0.00213218 0)
(-0.0507007 0.00137678 0)
(-0.0431195 0.000728846 0)
(-0.0353479 0.000191791 0)
(-0.0274305 -0.000234637 0)
(-0.0193576 -0.00055595 0)
(-0.0111818 -0.000770657 0)
(-0.00352218 -0.000751921 0)
(-0.0023049 -0.0118548 0)
(-0.00533008 -0.0133981 0)