/*--------------------------------*- C++ -*----------------------------------*\
  =========                 |
  \\      /  F ield         | OpenFOAM: The Open Source CFD Toolbox
   \\    /   O peration     | Website:  https://openfoam.org
    \\  /    A nd           | Version:  7
     \\/     M anipulation  |
\*---------------------------------------------------------------------------*/
FoamFile
{
    version     2.0;
    format      ascii;
    class       surfaceScalarField;
    location    "6.5";
    object      phi;
}
// * * * * * * * * * * * * * * * * * * * * * * * * * * * * * * * * * * * * * //

dimensions      [0 3 -1 0 0 0 0];

internalField   nonuniform List<scalar> 
1740
(
4.54542e-07
-4.5453e-07
-6.05962e-07
1.0605e-06
-3.27463e-06
2.66867e-06
-7.19582e-06
3.92119e-06
-1.19576e-05
4.76174e-06
-1.7207e-05
5.24948e-06
-2.26745e-05
5.46743e-06
-2.81583e-05
5.48381e-06
-3.34992e-05
5.34092e-06
-3.85564e-05
5.05717e-06
-4.31892e-05
4.6328e-06
-4.7246e-05
4.05684e-06
-5.05605e-05
3.31451e-06
-5.29552e-05
2.39467e-06
-5.42527e-05
1.29748e-06
-5.42937e-05
4.10738e-08
-5.2956e-05
-1.33778e-06
-5.01867e-05
-2.76924e-06
-4.60242e-05
-4.16255e-06
-4.06166e-05
-5.40758e-06
-3.42308e-05
-6.38583e-06
-2.72447e-05
-6.98605e-06
-2.0123e-05
-7.12169e-06
-1.3376e-05
-6.74698e-06
-7.5077e-06
-5.86833e-06
-2.95895e-06
-4.54875e-06
-4.10727e-08
-2.91788e-06
1.19241e-06
-1.23348e-06
9.0906e-07
2.83347e-07
9.09058e-07
-1.06117e-06
6.06644e-07
-5.46318e-06
5.46251e-06
-1.31517e-05
1.03572e-05
-2.34714e-05
1.42409e-05
-3.56661e-05
1.69565e-05
-4.90232e-05
1.86065e-05
-6.2932e-05
1.93763e-05
-7.68852e-05
1.94369e-05
-9.04497e-05
1.89055e-05
-0.000103232
1.78398e-05
-0.000114849
1.62493e-05
-0.000124905
1.41128e-05
-0.00013299
1.14e-05
-0.00013869
8.09412e-06
-0.000141606
4.21353e-06
-0.000141413
-1.5215e-07
-0.000137858
-4.89252e-06
-0.000130877
-9.74981e-06
-0.000120604
-1.44364e-05
-0.000107411
-1.85998e-05
-9.19294e-05
-2.18677e-05
-7.50209e-05
-2.38946e-05
-5.77273e-05
-2.44153e-05
-4.1179e-05
-2.32953e-05
-2.64784e-05
-2.0569e-05
-1.45667e-05
-1.64604e-05
-6.08341e-06
-1.14012e-05
-1.2604e-06
-6.05649e-06
3.56664e-07
-1.33373e-06
1.26572e-06
-2.82951e-06
3.43615e-06
-1.08755e-05
1.35085e-05
-2.33696e-05
2.28513e-05
-3.93628e-05
3.0234e-05
-5.78499e-05
3.54436e-05
-7.78901e-05
3.86467e-05
-9.86532e-05
4.01395e-05
-0.00011942
4.02042e-05
-0.000139556
3.90415e-05
-0.000158473
3.67562e-05
-0.000175595
3.33719e-05
-0.000190343
2.88608e-05
-0.000202125
2.3182e-05
-0.000210355
1.6324e-05
-0.000214487
8.34567e-06
-0.000214066
-5.73512e-07
-0.000208782
-1.01766e-05
-0.000198556
-1.99762e-05
-0.00018359
-2.94016e-05
-0.000164419
-3.77708e-05
-0.000141922
-4.43653e-05
-0.000117297
-4.85198e-05
-9.19879e-05
-4.97239e-05
-6.75628e-05
-4.77203e-05
-4.555e-05
-4.25818e-05
-2.72564e-05
-3.4754e-05
-1.35847e-05
-2.50729e-05
-4.87187e-06
-1.47693e-05
-7.37134e-07
-5.46847e-06
5.28587e-07
-4.45332e-06
7.88947e-06
-1.59359e-05
2.49911e-05
-3.29293e-05
3.98447e-05
-5.40622e-05
5.1367e-05
-7.80777e-05
5.94591e-05
-0.000103853
6.44222e-05
-0.000130406
6.66923e-05
-0.000156875
6.66728e-05
-0.000182485
6.46514e-05
-0.000206509
6.07808e-05
-0.000228235
5.5098e-05
-0.000246943
4.75682e-05
-0.000261902
3.81412e-05
-0.000272392
2.68143e-05
-0.000277743
1.3696e-05
-0.000277391
-9.24889e-07
-0.000270948
-1.66199e-05
-0.000258296
-3.26279e-05
-0.000239657
-4.80409e-05
-0.000215651
-6.17764e-05
-0.000187328
-7.26891e-05
-0.000156138
-7.97095e-05
-0.000123855
-8.2007e-05
-9.24232e-05
-7.91522e-05
-6.3759e-05
-7.12459e-05
-3.95212e-05
-5.89918e-05
-2.08881e-05
-4.37059e-05
-8.37921e-06
-2.72783e-05
-1.73987e-06
-1.21078e-05
-1.21129e-06
-5.85761e-06
1.37471e-05
-2.04537e-05
3.95872e-05
-4.15561e-05
6.09471e-05
-6.73503e-05
7.71611e-05
-9.63137e-05
8.84225e-05
-0.000127158
9.52665e-05
-0.000158784
9.83181e-05
-0.000190234
9.8123e-05
-0.000220645
9.50628e-05
-0.000249202
8.9337e-05
-0.000275095
8.09916e-05
-0.000297504
6.99776e-05
-0.00031559
5.62264e-05
-0.000328511
3.97355e-05
-0.000335468
2.0653e-05
-0.000335782
-6.10409e-07
-0.000328923
-2.3479e-05
-0.000314683
-4.68684e-05
-0.00029322
-6.95036e-05
-0.000265162
-8.9834e-05
-0.000231655
-0.000106196
-0.000194356
-0.000117009
-0.000155352
-0.000121011
-0.00011699
-0.000117514
-8.16321e-05
-0.000106603
-5.13674e-05
-8.92565e-05
-2.77297e-05
-6.73436e-05
-1.14858e-05
-4.35222e-05
-2.53615e-06
-2.10574e-05
-3.74744e-06
-7.0591e-06
2.08062e-05
-2.44259e-05
5.6954e-05
-4.92391e-05
8.57603e-05
-7.92622e-05
0.000107184
-0.000112712
0.000121873
-0.000148147
0.000130701
-0.000184376
0.000134547
-0.000220381
0.000134128
-0.000255252
0.000129934
-0.000288125
0.00012221
-0.000318138
0.000111005
-0.000344399
9.62388e-05
-0.000365977
7.78047e-05
-0.000381915
5.56735e-05
-0.000391269
3.00063e-05
-0.000393169
1.28969e-06
-0.000386916
-2.97319e-05
-0.000372089
-6.16954e-05
-0.000348681
-9.29113e-05
-0.00031722
-0.000121295
-0.000278865
-0.000144552
-0.000235436
-0.000160437
-0.000189354
-0.000167093
-0.000143452
-0.000163416
-0.000100674
-0.000149381
-6.36993e-05
-0.000126232
-3.45628e-05
-9.64802e-05
-1.4369e-05
-6.3716e-05
-3.16375e-06
-3.22627e-05
-6.91119e-06
-8.09712e-06
2.89033e-05
-2.79218e-05
7.67787e-05
-5.60765e-05
0.000113915
-8.99463e-05
0.000141054
-0.000127509
0.000159435
-0.000167187
0.000170379
-0.000207722
0.000175081
-0.000248067
0.000174474
-0.000287304
0.00016917
-0.000324561
0.000159467
-0.000358958
0.000145402
-0.000389564
0.000126844
-0.000415372
0.000103613
-0.000435303
7.56052e-05
-0.000448237
4.29404e-05
-0.00045306
6.11273e-06
-0.000448799
-3.39937e-05
-0.000434697
-7.57966e-05
-0.000410438
-0.000117171
-0.000376303
-0.00015543
-0.000333344
-0.000187511
-0.000283483
-0.000210298
-0.000229495
-0.000221082
-0.000174815
-0.000218096
-0.000123174
-0.000201022
-7.80889e-05
-0.000171317
-4.2328e-05
-0.000132241
-1.74817e-05
-8.85622e-05
-3.75771e-06
-4.59868e-05
-1.06689e-05
-9.00696e-06
3.79103e-05
-3.10203e-05
9.8792e-05
-6.21897e-05
0.000145084
-9.95727e-05
0.000178437
-0.00014094
0.000200802
-0.000184602
0.000214042
-0.000229261
0.00021974
-0.000273876
0.000219089
-0.000317556
0.00021285
-0.000359465
0.000201377
-0.000398747
0.000184684
-0.000434462
0.00016256
-0.00046555
0.000134701
-0.00049081
0.000100865
-0.000508908
6.10392e-05
-0.00051843
1.56342e-05
-0.000517998
-3.4426e-05
-0.000506377
-8.74173e-05
-0.000482751
-0.000140796
-0.000446961
-0.00019122
-0.000399773
-0.000234699
-0.000343095
-0.000266975
-0.000280043
-0.000284133
-0.000214781
-0.000283359
-0.000152081
-0.000263722
-9.6647e-05
-0.000226751
-5.23298e-05
-0.000176558
-2.14607e-05
-0.000119431
-4.50127e-06
-6.29462e-05
-1.51702e-05
-9.81248e-06
4.77227e-05
-3.37833e-05
0.000122763
-6.76794e-05
0.00017898
-0.000108281
0.000219038
-0.000153185
0.000245706
-0.000200622
0.000261479
-0.000249285
0.000268402
-0.000298173
0.000267978
-0.000346469
0.000261146
-0.000393415
0.000248323
-0.000438227
0.000229495
-0.00048
0.000204333
-0.000517649
0.00017235
-0.000549857
0.000133073
-0.00057506
8.62421e-05
-0.000591468
3.20422e-05
-0.000597195
-2.86995e-05
-0.00059034
-9.42719e-05
-0.000569374
-0.000161763
-0.00053344
-0.000227154
-0.000482771
-0.000285368
-0.000419058
-0.000330688
-0.000345671
-0.000357521
-0.000267582
-0.000361447
-0.000190893
-0.000340411
-0.000121944
-0.000295699
-6.61788e-05
-0.000232324
-2.70889e-05
-0.000158521
-5.61106e-06
-8.4424e-05
-2.07812e-05
-1.05266e-05
5.82493e-05
-3.62484e-05
0.000148485
-7.26089e-05
0.000215341
-0.000116154
0.000262583
-0.000164343
0.000293895
-0.000215356
0.000312492
-0.000267907
0.000320954
-0.000321078
0.000321149
-0.000374166
0.000314233
-0.000426547
0.000300705
-0.00047756
0.000280508
-0.000526391
0.000253164
-0.000571974
0.000217933
-0.000612902
0.000174001
-0.000647372
0.000120712
-0.000673167
5.78371e-05
-0.000687803
-1.4063e-05
-0.000688523
-9.35525e-05
-0.000672858
-0.000177428
-0.000638959
-0.000261053
-0.000586193
-0.000338133
-0.000515725
-0.000401156
-0.000430958
-0.000442287
-0.000337647
-0.000454758
-0.000243466
-0.000434593
-0.000156923
-0.000382242
-8.57587e-05
-0.000303488
-3.52851e-05
-0.000208995
-7.33596e-06
-0.000112373
-2.81172e-05
-1.11536e-05
6.94028e-05
-3.84318e-05
0.000175763
-7.7004e-05
0.000253913
-0.000123218
0.000308798
-0.000174424
0.000345101
-0.000228777
0.000366845
-0.000285046
0.000377223
-0.000342432
0.000378534
-0.000400391
0.000372193
-0.000458489
0.000358803
-0.000516249
0.000338268
-0.000573009
0.000309923
-0.000627779
0.000272703
-0.000679111
0.000225334
-0.000724986
0.000166586
-0.000762748
9.55992e-05
-0.000789204
1.23932e-05
-0.000800686
-8.20703e-05
-0.00079353
-0.000184584
-0.000764601
-0.000289982
-0.000712022
-0.000390713
-0.000635996
-0.000477183
-0.000539557
-0.000538726
-0.000428999
-0.000565316
-0.000313657
-0.000549935
-0.000204738
-0.000491161
-0.000113178
-0.000395049
-4.70993e-05
-0.000275074
-9.9596e-06
-0.000149513
-3.80768e-05
-1.16924e-05
8.10953e-05
-4.03342e-05
0.000204405
-8.08619e-05
0.000294441
-0.00012945
0.000357386
-0.000183356
0.000399007
-0.000240734
0.000424222
-0.000300431
0.000436921
-0.000361797
0.0004399
-0.000424494
0.00043489
-0.000488324
0.000422633
-0.000553054
0.000402997
-0.000618239
0.000375108
-0.000683037
0.000337501
-0.000746023
0.00028832
-0.000805019
0.000225582
-0.000856982
0.000147563
-0.000897938
5.33485e-05
-0.000923387
-5.66207e-05
-0.000928264
-0.000179708
-0.000907934
-0.000310312
-0.000858904
-0.000439743
-0.000779891
-0.000556196
-0.000672934
-0.000645683
-0.000544296
-0.000693954
-0.000404722
-0.000689509
-0.000268464
-0.00062742
-0.000150682
-0.000512831
-6.37042e-05
-0.000362051
-1.38057e-05
-0.000199411
-5.18824e-05
-1.21411e-05
9.32364e-05
-4.19533e-05
0.000234217
-8.41698e-05
0.000336657
-0.000134802
0.000408018
-0.00019102
0.000455225
-0.000250982
0.000484185
-0.000313632
0.000499571
-0.00037849
0.000504758
-0.000445451
0.000501851
-0.000514591
0.000491773
-0.00058597
0.000474376
-0.000659417
0.000448555
-0.000734307
0.000412392
-0.00080932
0.000363333
-0.00088221
0.000298472
-0.000949636
0.000214988
-0.00100706
0.000110777
-0.00104906
-1.46207e-05
-0.00106932
-0.000159454
-0.00106162
-0.000318006
-0.00102059
-0.000480779
-0.000942902
-0.000633882
-0.000828789
-0.000759796
-0.000683502
-0.000839241
-0.000518386
-0.000854624
-0.000350605
-0.000795201
-0.000200482
-0.000662954
-8.63776e-05
-0.000476156
-1.92477e-05
-0.000266541
-7.11301e-05
-1.2502e-05
0.000105738
-4.32995e-05
0.000265014
-8.69328e-05
0.000380291
-0.000139238
0.000460323
-0.000197289
0.000513275
-0.00025924
0.000546136
-0.000324128
0.000564459
-0.000391648
0.000572278
-0.000461941
0.000572143
-0.000535372
0.000565204
-0.000612314
0.000551318
-0.000692911
0.000529152
-0.000776809
0.00049629
-0.00086288
0.000449404
-0.000948943
0.000384535
-0.00103154
0.000297586
-0.00110584
0.000185073
-0.0011656
4.51385e-05
-0.00120375
-0.000121303
-0.00121256
-0.000309196
-0.00118472
-0.000508615
-0.00111449
-0.000704108
-0.000999385
-0.000874905
-0.000842265
-0.00099636
-0.00065355
-0.00104334
-0.000452315
-0.000996436
-0.000264453
-0.000850815
-0.000116452
-0.000624157
-2.67213e-05
-0.000356272
-9.78514e-05
-1.27895e-05
0.000118528
-4.4418e-05
0.000296643
-8.92119e-05
0.000425085
-0.000142794
0.000513905
-0.000202102
0.000572584
-0.000265268
0.000609301
-0.0003314
0.000630591
-0.000400356
0.000641235
-0.000472502
0.000644289
-0.000548479
0.000641181
-0.000628965
0.000631804
-0.000714418
0.000614604
-0.000804792
0.000586663
-0.00089923
0.000543843
-0.000995771
0.000481075
-0.00109109
0.000392904
-0.00118036
0.000274341
-0.00125721
0.000121996
-0.00131397
-6.45512e-05
-0.00134213
-0.000281033
-0.00133272
-0.000518025
-0.00127744
-0.000759385
-0.00117034
-0.000982007
-0.00101035
-0.00115635
-0.000804729
-0.00124896
-0.000572246
-0.00122892
-0.000343578
-0.00107948
-0.000155184
-0.000812551
-3.67299e-05
-0.000474726
-0.000134581
-1.30398e-05
0.000131568
-4.54171e-05
0.00032902
-9.11713e-05
0.000470839
-0.000145632
0.000568366
-0.000205546
0.000632498
-0.000268974
0.000672729
-0.000335068
0.000696685
-0.000403811
0.000709978
-0.000475753
0.000716232
-0.000551762
0.00071719
-0.000632773
0.000712815
-0.000719526
0.000701358
-0.000812286
0.000679423
-0.000910537
0.000642094
-0.0010127
0.000583234
-0.00111587
0.000496073
-0.00121567
0.000374148
-0.00130626
0.000212579
-0.00137985
9.04351e-06
-0.00142828
-0.000232599
-0.00144141
-0.000504902
-0.00140878
-0.000792009
-0.0013207
-0.00107009
-0.00117082
-0.00130623
-0.000960626
-0.00145916
-0.000705133
-0.00148441
-0.00043708
-0.00134754
-0.000203488
-0.00104614
-4.9827e-05
-0.000628386
-0.000184408
-1.33234e-05
0.000144891
-4.65036e-05
0.0003622
-9.31369e-05
0.000517472
-0.000148128
0.000623357
-0.000207947
0.000692317
-0.000270533
0.000735315
-0.000335039
0.000761191
-0.000401526
0.000776465
-0.000470669
0.000785375
-0.00054349
0.000790011
-0.000621105
0.00079043
-0.000704475
0.000784728
-0.000794149
0.000769097
-0.000890001
0.000737946
-0.000990983
0.000684215
-0.00109491
0.000600003
-0.00119833
0.000477567
-0.00129636
0.000310612
-0.00138288
9.55636e-05
-0.00144946
-0.000166022
-0.00148681
-0.000467555
-0.00148307
-0.000795749
-0.00142517
-0.00112798
-0.00130091
-0.00143049
-0.00110369
-0.00165638
-0.000840546
-0.00174756
-0.000541316
-0.00164677
-0.000261492
-0.00132597
-6.6569e-05
-0.000823309
-0.000250977
-1.37625e-05
0.000158654
-4.80286e-05
0.000396466
-9.56659e-05
0.000565109
-0.000150952
0.000678643
-0.000209974
0.000751339
-0.000270499
0.00079584
-0.000331649
0.00082234
-0.000393523
0.000838339
-0.000456861
0.000848713
-0.000522759
0.000855909
-0.000592427
0.000860098
-0.000666976
0.000859277
-0.000747207
0.000849327
-0.000833416
0.000824155
-0.000925221
0.00077602
-0.00102142
0.000696199
-0.00111986
0.00057601
-0.00121735
0.000408099
-0.00130948
0.000187702
-0.00138942
-8.60828e-05
-0.00144949
-0.000407486
-0.0014777
-0.000767541
-0.00145887
-0.00114682
-0.00137545
-0.00151391
-0.00121168
-0.00182015
-0.000962704
-0.00199653
-0.000648809
-0.00196066
-0.000327952
-0.00164683
-8.74446e-05
-0.00106382
-0.000338422
-1.45575e-05
0.000173211
-5.05508e-05
0.00043246
-9.96318e-05
0.00061419
-0.000155161
0.000734172
-0.000212724
0.000808902
-0.000269897
0.000853013
-0.000325772
0.000878215
-0.000380476
0.000893043
-0.000434778
0.000903015
-0.000489787
0.000910918
-0.000546742
0.000917053
-0.000606842
0.000919377
-0.000671115
0.000913601
-0.000740309
0.000893349
-0.000814804
0.000850515
-0.000894546
0.000775941
-0.000978968
0.000660432
-0.00106687
0.000495999
-0.00115633
0.000277162
-0.00124202
-3.90429e-07
-0.00132005
-0.000329461
-0.00137889
-0.000708697
-0.00140334
-0.00112237
-0.00137235
-0.0015449
-0.00126163
-0.00193087
-0.0010522
-0.00220596
-0.000747997
-0.00226486
-0.000399673
-0.00199515
-0.000112815
-0.00135067
-0.000451237
-1.60316e-05
0.000189243
-5.49289e-05
0.000471357
-0.000106332
0.000665593
-0.000162287
0.000790127
-0.000217786
0.000864401
-0.000270255
0.000905482
-0.000318832
0.000926792
-0.000363722
0.000937934
-0.000405735
0.000945027
-0.000445981
0.000951164
-0.000485698
0.00095677
-0.000526152
0.000959831
-0.000568597
0.000956046
-0.000614255
0.000939007
-0.00066432
0.00090058
-0.00071995
0.000831571
-0.000782229
0.000722711
-0.000852002
0.000565772
-0.000929312
0.000354472
-0.00101468
8.49816e-05
-0.00110209
-0.000242054
-0.00118572
-0.000625069
-0.00125176
-0.00105633
-0.00127829
-0.00151836
-0.00123513
-0.00197403
-0.00108962
-0.00235147
-0.000824471
-0.00253002
-0.00047122
-0.0023484
-0.000142895
-0.001679
-0.000594131
-1.87134e-05
0.000207956
-6.24692e-05
0.000515113
-0.000117625
0.000720749
-0.000174418
0.00084692
-0.000227234
0.000917217
-0.000273523
0.000951771
-0.000312657
0.000965925
-0.000345058
0.000970335
-0.000371662
0.000971631
-0.000393624
0.000973127
-0.000412207
0.000975353
-0.000428767
0.000976391
-0.000444802
0.00097208
-0.00046203
0.000956235
-0.000482466
0.000921016
-0.000508462
0.000857568
-0.000542685
0.000756934
-0.000587971
0.000611057
-0.000646821
0.000413322
-0.000721245
0.000159406
-0.000810195
-0.000153104
-0.000909895
-0.000525369
-0.0010103
-0.000955927
-0.00109184
-0.00143682
-0.00112259
-0.00194328
-0.00105967
-0.00241439
-0.000863332
-0.00272635
-0.000535143
-0.00267659
-0.000177736
-0.00203641
-0.000771867
-2.34988e-05
0.000231455
-7.51663e-05
0.00056678
-0.000136113
0.000781696
-0.000194231
0.000905038
-0.000243496
0.000966482
-0.000281779
0.000990054
-0.000309038
0.000993184
-0.000326164
0.000987462
-0.000334382
0.000979849
-0.000334999
0.000973743
-0.000329373
0.000969728
-0.000318998
0.000966016
-0.000305645
0.000958728
-0.000291523
0.000942112
-0.000279408
0.000908901
-0.000272709
0.000850869
-0.000275381
0.000759606
-0.000292121
0.000627798
-0.000327034
0.000448235
-0.000384214
0.000216586
-0.000465881
-7.14379e-05
-0.000571203
-0.000420047
-0.000694738
-0.000832392
-0.000821924
-0.00130964
-0.000923892
-0.00184131
-0.000953423
-0.00238486
-0.00085145
-0.00282833
-0.000582531
-0.00294551
-0.000217031
-0.00240191
-0.000988899
-3.19693e-05
0.000263424
-9.60899e-05
0.000630901
-0.000165314
0.00085092
-0.000224837
0.000964561
-0.000268865
0.00101051
-0.000296437
0.00101763
-0.000308665
0.00100541
-0.000307284
0.000986081
-0.00029404
0.000966604
-0.000270542
0.000950245
-0.000238341
0.000937527
-0.00019911
0.000926785
-0.000154905
0.000914522
-0.000108358
0.000895565
-6.28958e-05
0.000863439
-2.28495e-05
0.000810822
6.60937e-06
0.000730147
2.06026e-05
0.000613805
1.26412e-05
0.000456196
-2.20482e-05
0.000251276
-8.86372e-05
-4.84891e-06
-0.000189058
-0.000319626
-0.000322794
-0.000698656
-0.00048187
-0.00115056
-0.000644765
-0.00167842
-0.000767196
-0.00226243
-0.000777914
-0.00281761
-0.000603137
-0.00312029
-0.000259403
-0.00274564
-0.0012483
-4.70098e-05
0.000310434
-0.000129932
0.000713823
-0.000209623
0.000930612
-0.000269024
0.00102396
-0.000304067
0.00104555
-0.000316224
0.00102978
-0.000308583
0.000997772
-0.000284209
0.000961706
-0.000245652
0.000928047
-0.000194986
0.000899579
-0.000134054
0.000876594
-6.46798e-05
0.000857411
1.08314e-05
0.000839011
8.9602e-05
0.000816795
0.000167886
0.000785155
0.000240986
0.000737723
0.000303317
0.000667815
0.000348257
0.000568865
0.000369417
0.000435036
0.000359935
0.000260758
0.000314277
4.08088e-05
0.000226854
-0.000232203
9.48145e-05
-0.000566616
-8.11005e-05
-0.000974645
-0.000290012
-0.0014695
-0.000498055
-0.00205438
-0.000631889
-0.00268378
-0.000584099
-0.00316807
-0.000300678
-0.00302906
-0.00154898
-7.39328e-05
0.000384367
-0.000183467
0.000823357
-0.000273195
0.00102034
-0.000326516
0.00107728
-0.000344117
0.00106315
-0.000331876
0.00101754
-0.000295945
0.00096184
-0.000241278
0.000907039
-0.000171514
0.000858283
-8.92988e-05
0.000817365
3.27853e-06
0.000784017
0.000104084
0.000756606
0.000210984
0.000732111
0.000321066
0.000706713
0.000430565
0.000675656
0.000534719
0.000633569
0.000627766
0.000574768
0.000703076
0.000493556
0.000753576
0.000384535
0.000771927
0.000242407
0.000750944
6.17924e-05
0.000683356
-0.000164616
0.000562464
-0.000445724
0.000382562
-0.000794743
0.00014352
-0.00123046
-0.000136772
-0.00177409
-0.00039782
-0.00242273
-0.000506736
-0.00305916
-0.00033107
-0.00320473
-0.00188005
-0.000122293
0.00050666
-0.000264523
0.000965587
-0.000354531
0.00111035
-0.000384839
0.00110759
-0.000366412
0.00104473
-0.00031233
0.000963461
-0.000233032
0.000882542
-0.000135814
0.000809821
-2.54691e-05
0.000747938
9.48643e-05
0.000697031
0.000222999
0.000655882
0.000357169
0.000622436
0.000495369
0.00059391
0.000635139
0.000566943
0.000773184
0.000537611
0.000905199
0.000501554
0.00102582
0.00045415
0.00112868
0.000390695
0.00120665
0.000306561
0.00125195
0.000197109
0.0012562
5.75393e-05
0.00121055
-0.00011896
0.00110519
-0.00034037
0.000929176
-0.000618726
0.000672176
-0.000973463
0.000334606
-0.00143652
-4.23371e-05
-0.00204578
-0.000341053
-0.00276044
-0.000336403
-0.00320938
-0.00221645
-0.000208111
0.000714771
-0.00037207
0.00112955
-0.000424759
0.00116304
-0.000390076
0.00107291
-0.000297848
0.000952498
-0.000171118
0.000836732
-2.4802e-05
0.000736226
0.000132148
0.00065287
0.000294682
0.000585405
0.000460113
0.0005316
0.000627002
0.000488993
0.000794413
0.000455025
0.00096133
0.000426994
0.00112625
0.000402021
0.00128686
0.000377001
0.00143981
0.000348611
0.00158057
0.000313381
0.0017035
0.000267772
0.00180182
0.000208242
0.00186764
0.000131285
0.00189157
3.36127e-05
0.00186367
-9.1059e-05
0.00177153
-0.000248237
0.00160034
-0.000447534
0.00133241
-0.000705534
0.000950798
-0.00105491
0.000460505
-0.00155549
-3.30009e-05
-0.00226694
-0.000275276
-0.0029671
-0.00249173
-0.000342993
0.00105776
-0.000434677
0.00122123
-0.000345608
0.00107397
-0.000161068
0.000888368
6.38998e-05
0.000727531
0.00030098
0.000599651
0.000536112
0.000501094
0.000763193
0.00042579
0.000980296
0.000368302
0.00118753
0.000324369
0.00138583
0.000290691
0.00157628
0.000264579
0.00175959
0.00024368
0.00193581
0.000225801
0.00210402
0.00020879
0.00226215
0.000190481
0.00240684
0.000168692
0.00253338
0.000141237
0.00263573
0.00010589
0.00270662
6.0393e-05
0.00273625
3.98017e-06
0.00271459
-6.93926e-05
0.00262721
-0.000160859
0.00245725
-0.000277578
0.0021825
-0.000430783
0.00177428
-0.00064669
0.00120277
-0.00098398
0.000512724
-0.00157689
-2.58184e-05
-0.00242856
-0.00251755
-0.000302856
0.00136062
-5.04182e-05
0.000968792
0.000378228
0.000645321
0.000798563
0.000468033
0.00117995
0.00034614
0.00151843
0.000261177
0.00181668
0.000202847
0.00208
0.000162463
0.00231436
0.00013394
0.00252528
0.000113454
0.00271743
9.85422e-05
0.00289453
8.74814e-05
0.00305925
7.89547e-05
0.00321318
7.18753e-05
0.00335669
6.52779e-05
0.00348891
5.82601e-05
0.00360764
4.99616e-05
0.00370931
3.95679e-05
0.00378883
2.63645e-05
0.0038394
9.82195e-06
0.00385528
-1.18927e-05
0.00382473
-3.88472e-05
0.00373526
-7.13884e-05
0.00357093
-0.000113252
0.00330853
-0.00016838
0.00291245
-0.000250611
0.00232408
-0.000395603
0.00148809
-0.000740901
0.000505531
-0.001446
-0.00201202
0.00136062
0.00232941
0.00297473
0.00344277
0.00378891
0.00405008
0.00425293
0.00441539
0.00454933
0.00466279
0.00476133
0.00484881
0.00492776
0.00499964
0.00506492
0.00512318
0.00517314
0.00521271
0.00523907
0.00524889
0.005237
0.00519815
0.00512677
0.00501351
0.00484513
0.00459452
0.00419892
0.00345802
0.00201202
)
;

boundaryField
{
    movingWall
    {
        type            calculated;
        value           uniform 0;
    }
    fixedWalls
    {
        type            calculated;
        value           uniform 0;
    }
    frontAndBack
    {
        type            empty;
        value           nonuniform 0();
    }
}


// ************************************************************************* //
