/*--------------------------------*- C++ -*----------------------------------*\
  =========                 |
  \\      /  F ield         | OpenFOAM: The Open Source CFD Toolbox
   \\    /   O peration     | Website:  https://openfoam.org
    \\  /    A nd           | Version:  7
     \\/     M anipulation  |
\*---------------------------------------------------------------------------*/
FoamFile
{
    version     2.0;
    format      ascii;
    class       surfaceScalarField;
    location    "1.2";
    object      phi;
}
// * * * * * * * * * * * * * * * * * * * * * * * * * * * * * * * * * * * * * //

dimensions      [0 3 -1 0 0 0 0];

internalField   nonuniform List<scalar> 
3784
(
-0.00219922
0.00219922
-0.00246357
0.000264358
-0.00140081
-0.00106276
-0.000615249
-0.000785566
-0.000566943
-4.83048e-05
-0.00031389
-0.000253053
0.000304771
-0.00061866
0.0009337
-0.000628928
0.00123233
-0.000298632
0.00101337
0.000218964
0.000318201
0.000695164
-0.000425513
0.000743716
-0.000720304
0.000294791
-0.000289662
-0.000430643
0.000787574
-0.00107724
0.00141842
-0.000630849
0.000623971
0.000794452
-0.000727224
0.00135119
-0.00114149
0.000414266
-0.000132368
-0.00100912
0.0013986
-0.00153096
0.00209766
-0.000699066
0.00132759
0.000770071
-2.69569e-06
0.00133029
-0.00074522
0.000742524
-0.000438936
-0.000306283
0.000668841
-0.00110778
0.00121857
-0.000549728
0.000225344
0.000993224
-0.00115945
0.0013848
-0.00122707
6.76205e-05
0.000132657
-0.00135973
0.00156878
-0.00143612
0.00185257
-0.000283792
0.000791244
0.00106133
-0.00051741
0.00130865
-0.000930825
0.000413416
-0.00021699
-0.000713836
0.000846327
-0.00106332
0.000910851
-6.4524e-05
-0.000322405
0.00123326
-0.00157464
0.00125224
-0.00143394
-0.0001407
-0.00143394
-0.00303386
0.00523308
-0.00350057
0.000731056
-0.0016326
-0.00293073
-0.000743234
-0.00167492
-0.000802318
1.07798e-05
-0.000438905
-0.000616467
0.000324341
-0.00138191
0.00102702
-0.0013316
0.00130628
-0.000577896
0.00104247
0.000482777
0.000368337
0.00136929
-0.000376246
0.0014883
-0.000944107
0.000862651
-0.000544613
-0.000830136
0.000971898
-0.00259375
0.0015805
-0.00123945
0.000603368
0.00177158
-0.000569475
0.00252404
-0.00131558
0.00116037
-0.000381669
-0.00194303
0.00174558
-0.00365822
0.00221517
-0.00116865
0.0012533
0.00173194
0.000139173
0.00244442
-0.00100726
0.00188896
-0.000777997
-0.000535548
0.00090662
-0.00279239
0.00132764
-0.00097075
0.000204833
0.00211603
-0.00101758
0.00260721
-0.00151406
0.000564103
6.98053e-05
-0.0029436
0.00198705
-0.00335337
0.00182077
-0.000117507
0.000758755
0.00212334
-0.000422235
0.00248964
-0.00129315
0.00128434
-0.00036096
-0.00164603
0.0011723
-0.00259657
0.000901278
0.000206496
-0.000319609
0.00245414
-0.00143682
0.00236945
-0.00181872
0.000241202
-0.00325266
-0.00296221
0.00819529
-0.00366865
0.00143751
-0.00193955
-0.00465983
-0.00087383
-0.00274065
-0.000836932
-2.6116e-05
-0.000480942
-0.000972452
0.000349729
-0.00221258
0.00113018
-0.00211206
0.00138877
-0.000836493
0.00099186
0.000879691
0.000162893
0.00219826
-0.000691079
0.00234227
-0.00117552
0.0013471
-0.000435784
-0.00156987
0.00133958
-0.00436911
0.00194383
-0.0018437
0.000857045
0.00285836
-0.000517644
0.00389873
-0.0014764
0.00211913
-0.000514726
-0.00290471
0.0017987
-0.00597164
0.00223203
-0.00160199
0.000927185
0.00303678
-0.000443828
0.00381543
-0.00143689
0.00288202
-0.000761193
-0.00121125
0.00125527
-0.00480886
0.00172981
-0.00144529
0.00050012
0.00334572
-0.000964577
0.00407191
-0.001684
0.00128353
-3.91773e-05
-0.00458842
0.00207424
-0.00546678
0.00181123
0.000145495
0.000388776
0.0035458
-0.000963665
0.00384208
-0.00161951
0.00194018
-0.000298568
-0.00296697
0.00152221
-0.00441736
0.00136701
0.000361702
4.18994e-05
0.00377925
-0.00138649
0.00379784
-0.00193963
0.000794344
-0.00519229
-0.00239837
0.0105937
-0.00326946
0.00230859
-0.0022351
-0.00569418
-0.00130184
-0.00367391
-0.000909744
-0.000418212
-0.000470642
-0.00141155
0.000208128
-0.00289135
0.000782093
-0.00268602
0.000914572
-0.000968973
0.000533328
0.00126093
-7.37745e-05
0.00280536
-0.000624919
0.00289341
-0.00083646
0.00155864
-0.000130467
-0.00227587
0.00115103
-0.00565061
0.00147618
-0.00216885
0.000770678
0.00356387
-5.9829e-05
0.00472923
-0.000814276
0.00287358
-0.000332288
-0.0033867
0.00115206
-0.00745599
0.00128552
-0.00173544
0.000276159
0.00404614
-0.000623764
0.00471535
-0.00111572
0.00337397
-0.000426004
-0.00190096
0.00101325
-0.00624811
0.00129825
-0.00173029
0.000568455
0.00407552
-0.000306448
0.00494681
-0.000962524
0.0019396
-4.48026e-05
-0.00550614
0.00130562
-0.00681721
0.000971018
0.000480099
-8.7155e-05
0.00460397
-0.000915164
0.00467009
-0.00117513
0.00220014
-0.000135368
-0.00400673
0.0011529
-0.00570562
0.00113072
0.000383884
0.000363215
0.00454675
-0.000598899
0.00475995
-0.00115492
0.00135036
-0.00634721
-0.00177008
0.0123637
-0.0027742
0.00331272
-0.00240471
-0.00606367
-0.00168479
-0.00439383
-0.00100426
-0.00109874
-0.000509969
-0.00190585
-3.32414e-05
-0.00336808
0.000292177
-0.00301144
0.000303612
-0.00098041
9.71341e-06
0.00155483
-0.000318815
0.00313389
-0.000535792
0.00311039
-0.000460828
0.00148367
0.000183056
-0.00291975
0.000881194
-0.00634875
0.000894539
-0.00218219
0.000580738
0.00387767
0.000246397
0.00506357
-0.000231219
0.00335119
-0.000172228
-0.00344569
0.0004333
-0.00806152
0.000338778
-0.00164092
-0.000234521
0.00461944
-0.000653121
0.00513395
-0.000741167
0.00346202
-7.59774e-05
-0.00256615
0.00072716
-0.00705125
0.000777833
-0.00178096
0.000534403
0.00431895
0.000220084
0.00526113
-0.00028734
0.00244703
-6.65307e-05
-0.00572695
0.000509432
-0.00739317
0.000194068
0.000795464
-0.000400274
0.00519831
-0.000720754
0.00499057
-0.000693724
0.00217312
3.8061e-05
-0.00473852
0.000752411
-0.00641997
0.000789861
0.000346433
0.000543143
0.00479347
6.98666e-05
0.00523323
-0.000396352
0.00181658
-0.00674356
-0.00100116
0.0133649
-0.00209393
0.00440549
-0.00233859
-0.00581901
-0.00191716
-0.00481526
-0.00110847
-0.00190743
-0.00061247
-0.00240185
-0.000367747
-0.0036128
-0.000294851
-0.00308433
-0.00036809
-0.000907173
-0.000479365
0.0016661
-0.00047887
0.0031334
-0.000341227
0.00297275
-5.0356e-05
0.0011928
0.000439798
-0.00340991
0.00050418
-0.00641314
0.000208898
-0.00188691
0.000251515
0.00383505
0.000385149
0.00492993
0.000257091
0.00347925
-3.57784e-05
-0.00315282
-0.000248998
-0.0078483
-0.000461242
-0.00142868
-0.000516708
0.0046749
-0.000475573
0.00509282
-0.000229278
0.00321572
0.000272328
-0.00306775
0.000390435
-0.00716936
0.000200883
-0.00159141
0.000342234
0.0041776
0.000516981
0.00508638
0.000294036
0.00266997
-8.02086e-05
-0.0053527
-0.000250772
-0.00722261
-0.000412424
0.000957116
-0.000452697
0.00523859
-0.000366191
0.00490406
-0.000156133
0.00196306
0.000188089
-0.00508274
0.000307567
-0.00653945
0.000329262
0.000324738
0.000488786
0.00463395
0.000507953
0.00521406
0.000265088
0.00205944
-0.00647847
-6.57214e-05
0.0134306
-0.00108781
0.00542758
-0.00193099
-0.00497583
-0.00189693
-0.00484931
-0.00116839
-0.00263596
-0.000745932
-0.00282431
-0.000737892
-0.00362084
-0.000880746
-0.00294148
-0.000969096
-0.000818822
-0.000857412
0.00155442
-0.000527875
0.00280386
-0.000132413
0.00257728
0.000345741
0.000714648
0.000565502
-0.00362966
3.66036e-05
-0.00588424
-0.000483567
-0.00136674
-0.000130686
0.00348217
0.000371971
0.00442728
0.000583331
0.00326789
0.000103842
-0.00267333
-0.000776193
-0.00696827
-0.00103335
-0.00117153
-0.000588194
0.00422975
-0.000112419
0.00461704
0.000331486
0.00277182
0.000544496
-0.00328076
1.46658e-05
-0.00663953
-0.000374168
-0.00120258
6.44173e-05
0.00373902
0.000630412
0.00452039
0.000712823
0.00258756
-6.28085e-05
-0.00457707
-0.000854343
-0.00643107
-0.000821069
0.000923843
-0.000340375
0.00475789
9.66197e-05
0.00446707
0.000403648
0.00165603
0.000285498
-0.00496459
-0.000179649
-0.0060743
-0.000204997
0.000350086
0.00025243
0.00417653
0.000738216
0.00472828
0.000782246
0.00201541
-0.00569622
0.0010286
0.012402
0.0003198
0.00613638
-0.00110585
-0.00355018
-0.00152826
-0.0044269
-0.00109527
-0.00306896
-0.000844239
-0.00307534
-0.0010364
-0.00342868
-0.00132896
-0.00264892
-0.0013925
-0.000755276
-0.00107453
0.00123645
-0.00050608
0.00223541
8.72838e-05
0.00198392
0.000645863
0.000156066
0.000508839
-0.00349264
-0.000508575
-0.00486682
-0.00102618
-0.000849142
-0.000464618
0.00292061
0.000311378
0.00365128
0.00081606
0.00276321
0.000274339
-0.00213161
-0.00108516
-0.00560877
-0.0013261
-0.000930588
-0.000548647
0.0034523
0.000254124
0.00381427
0.000864823
0.00216111
0.000676775
-0.00309271
-0.000401373
-0.00556138
-0.000801807
-0.000802145
-0.000174077
0.00311128
0.000649272
0.00369704
0.00101732
0.00221952
2.238e-05
-0.00358214
-0.00123564
-0.00517305
-0.00106085
0.000749059
-0.000201689
0.00389873
0.000497833
0.00376755
0.000904403
0.00124946
0.000310988
-0.00437118
-0.000656668
-0.00510665
-0.000638804
0.000332221
2.03919e-05
0.00351733
0.000842949
0.00390572
0.00113637
0.00172199
-0.00455985
0.00199488
0.0104071
0.00190769
0.00622357
0.000128184
-0.00177068
-0.000763191
-0.00353552
-0.000756489
-0.00307566
-0.000785463
-0.00304637
-0.00115243
-0.00306172
-0.00153321
-0.00226814
-0.00156185
-0.000726635
-0.00112041
0.000795003
-0.000422509
0.00153751
0.000278652
0.00128276
0.000762303
-0.000327585
0.000274029
-0.00300437
-0.000988692
-0.0036041
-0.00136897
-0.000468868
-0.000672561
0.00222421
0.000254574
0.00272414
0.000961651
0.00205613
0.000400999
-0.00157096
-0.00118475
-0.00402302
-0.00140895
-0.000706384
-0.000488048
0.00253139
0.000493922
0.0028323
0.00119525
0.00145979
0.000647303
-0.00254477
-0.000751213
-0.00416286
-0.00103963
-0.000513731
-0.000307556
0.00237921
0.000628391
0.00276109
0.00119112
0.0016568
0.00012187
-0.00251289
-0.00137474
-0.00367644
-0.00110885
0.000483167
-0.000114516
0.00290439
0.000780905
0.00287213
0.00123807
0.000792293
0.000269256
-0.00340236
-0.00102045
-0.00381693
-0.00093096
0.000242725
-0.000117161
0.00270353
0.000842757
0.0029458
0.00131299
0.00125176
-0.00324686
0.0024669
0.00794024
0.00315761
0.00553286
0.00152186
-0.000134934
0.000309798
-0.00232346
-0.000156893
-0.00260897
-0.000520659
-0.0026826
-0.0010395
-0.00254288
-0.00146578
-0.00184186
-0.00148399
-0.000708411
-0.00102917
0.000340173
-0.000327086
0.000835429
0.00035921
0.000596466
0.000656961
-0.000625335
-5.41524e-05
-0.00229325
-0.0012858
-0.00237246
-0.00150877
-0.000245893
-0.000778439
0.00149388
0.000108752
0.00183695
0.000899786
0.00126509
0.000383567
-0.00105474
-0.001127
-0.00251246
-0.00133992
-0.000493469
-0.0004218
0.00161327
0.000566947
0.00184356
0.00121421
0.000812531
0.000486062
-0.00181662
-0.000948068
-0.00272874
-0.00113837
-0.000323428
-0.000376661
0.00161751
0.000509178
0.00187525
0.00112902
0.00103696
0.000157378
-0.00154125
-0.00127401
-0.00224506
-0.00104461
0.000253773
-5.40366e-05
0.00191382
0.000896256
0.00192183
0.00128599
0.000402562
0.000179793
-0.00229617
-0.00115261
-0.00248453
-0.00104527
0.000135386
-0.000173606
0.00183187
0.00078017
0.00199203
0.00126198
0.000769955
-0.00198488
0.0023315
0.00560875
0.00350027
0.00436409
0.00250629
0.000859045
0.00129375
-0.00111091
0.000515717
-0.00183095
-0.000119007
-0.00204788
-0.000744565
-0.00191732
-0.00118475
-0.00140168
-0.00122493
-0.00066823
-0.000847136
-3.76179e-05
-0.0002518
0.000240094
0.000297796
4.68702e-05
0.000379891
-0.000707432
-0.00036722
-0.00154614
-0.00135238
-0.0013873
-0.00145396
-0.000144311
-0.00081707
0.000856989
-3.9966e-05
0.00105985
0.000607685
0.000617443
0.000191936
-0.000638992
-0.000977129
-0.00134339
-0.0011506
-0.000319993
-0.000379162
0.000841829
0.000460593
0.0010038
0.00094461
0.000328513
0.000247245
-0.00111926
-0.000948278
-0.00153321
-0.00107989
-0.000191808
-0.000410262
0.000947876
0.000354823
0.00111017
0.000844537
0.000547248
9.98302e-05
-0.000796544
-0.00100313
-0.0011421
-0.000858956
0.000109602
-2.47303e-05
0.00107959
0.000803221
0.00109388
0.0010578
0.000147982
7.42226e-05
-0.0013126
-0.00103506
-0.00137524
-0.000956544
5.68746e-05
-0.000184915
0.00106024
0.000633516
0.0011736
0.000992157
0.000411313
-0.000992727
0.00182417
0.00378458
0.00303509
0.00315318
0.00263315
0.00126098
0.00177784
-0.000255602
0.000956858
-0.00100997
0.000232334
-0.00132336
-0.00039614
-0.00128885
-0.000804064
-0.000993756
-0.000874466
-0.000597827
-0.000623209
-0.000288876
-0.000201349
-0.000181764
0.000131306
-0.000285781
5.47262e-05
-0.00063085
-0.000575791
-0.000915622
-0.00123721
-0.000725881
-0.00127845
-0.000103067
-0.000816338
0.000394876
-0.000236274
0.000479784
0.000181789
0.00019938
-0.000100843
-0.000356362
-0.000814316
-0.000629922
-0.000920126
-0.00021418
-0.000390656
0.000312358
0.000218156
0.00039499
0.000504782
4.18874e-05
-1.5097e-05
-0.000599381
-0.000818001
-0.000730309
-0.00090804
-0.000101767
-0.000415705
0.00045554
0.000142192
0.00055227
0.000445707
0.000243735
-2.44717e-05
-0.000326363
-0.000694152
-0.000472422
-0.000617795
3.32447e-05
-3.38114e-05
0.000495604
0.000551054
0.000509008
0.000671286
2.77532e-05
-2.51394e-05
-0.000616172
-0.000776005
-0.000624381
-0.00073522
1.60882e-05
-0.000191705
0.000516727
0.000407185
0.000574708
0.000621171
0.000197324
-0.000371556
0.00109037
0.00269421
0.00203069
0.00221285
0.00211729
0.00117438
0.0016169
0.000244777
0.000989832
-0.00038291
0.000375791
-0.000709317
-0.000135514
-0.000777547
-0.000458501
-0.000670774
-0.000536096
-0.000520229
-0.000407014
-0.000417955
-0.000199462
-0.000389315
-7.07514e-05
-0.000414488
-0.000221586
-0.000480012
-0.000647881
-0.000489329
-0.00103104
-0.000342727
-0.00105611
-7.79907e-05
-0.000773348
0.000112112
-0.000414985
0.000121422
-0.000198817
-1.67894e-05
-0.000348699
-0.00020648
-0.00068641
-0.000292208
-0.000733408
-0.00016718
-0.000421912
8.62288e-07
-6.95334e-05
4.261e-05
5.64981e-05
-8.41437e-05
-0.000251129
-0.000291753
-0.000680688
-0.000300752
-0.000721621
-6.08325e-05
-0.000428576
0.000162497
-8.09917e-05
0.000204685
7.82484e-05
8.4496e-05
-0.000144861
-0.000103252
-0.000459012
-0.000158277
-0.000419204
-6.56482e-06
-8.49469e-05
0.00016135
0.000252188
0.000171872
0.000288674
-8.73313e-06
-0.000102744
-0.000224757
-0.000510974
-0.00021615
-0.000498497
3.61092e-06
-0.000177254
0.000195484
0.000181261
0.000216197
0.000292461
8.61221e-05
-7.90973e-05
0.000683544
0.00201067
0.00119386
0.00170254
0.00133125
0.001037
0.00112048
0.000455544
0.000740938
-3.37515e-06
0.000325985
-0.000294364
-2.75539e-05
-0.000424007
-0.000246001
-0.000452332
-0.000318462
-0.000447766
-0.000290239
-0.000446169
-0.000239701
-0.000439848
-0.000250191
-0.000404
-0.000390286
-0.00033992
-0.000625644
-0.00025397
-0.000811178
-0.000157192
-0.000821985
-6.71844e-05
-0.000673453
-3.64202e-05
-0.000496963
-5.50682e-05
-0.000409428
-0.000104324
-0.000465578
-0.00015033
-0.000582556
-0.000175227
-0.00058735
-0.000162384
-0.000453873
-0.000132615
-0.000296087
-0.000115177
-0.000254132
-0.000126098
-0.000398415
-0.000147469
-0.000575274
-0.000123894
-0.000579425
-5.66798e-05
-0.000428141
1.1217e-05
-0.000247527
2.40707e-05
-0.000165983
2.94802e-06
-0.000230916
-3.83179e-05
-0.000330557
-5.86361e-05
-0.000302398
-3.47247e-05
-0.000144829
3.78285e-06
1.14246e-05
1.5617e-05
1.87241e-05
-1.60339e-05
-0.000152259
-5.37765e-05
-0.000321392
-4.70171e-05
-0.0003142
-3.57774e-06
-0.000155462
3.67469e-05
2.15964e-05
3.91371e-05
8.40137e-05
2.37058e-05
4.91581e-06
0.00047782
0.00153285
0.000768307
0.00141205
0.000835752
0.000969553
0.000728972
0.000562323
0.000497037
0.000228551
0.00022791
-2.52444e-05
-8.66997e-07
-0.000195228
-0.000155199
-0.000297995
-0.000239068
-0.000363895
-0.000281373
-0.000403862
-0.000321954
-0.000399265
-0.000384369
-0.000341588
-0.000474876
-0.000249416
-0.000569593
-0.000159253
-0.000626351
-0.000100431
-0.00060952
-8.40167e-05
-0.000547116
-9.88259e-05
-0.000480506
-0.000121677
-0.000449549
-0.000135278
-0.000459344
-0.000140533
-0.000484725
-0.000149846
-0.000483078
-0.000164029
-0.000445711
-0.000169983
-0.000403596
-0.000157294
-0.000399299
-0.000130395
-0.000444699
-0.000102065
-0.00048682
-8.17718e-05
-0.000475631
-6.78689e-05
-0.000404068
-6.03446e-05
-0.000327077
-5.29202e-05
-0.000277111
-4.70197e-05
-0.000268687
-4.67415e-05
-0.000272818
-5.45032e-05
-0.000246591
-6.09516e-05
-0.000187423
-5.53866e-05
-0.000131735
-4.00739e-05
-0.000124066
-2.37017e-05
-0.000166444
-1.13965e-05
-0.000206172
-7.29047e-06
-0.00019359
-1.61603e-05
-0.000127174
-2.9668e-05
-5.32975e-05
-3.47418e-05
-7.33551e-06
-2.2257e-05
-2.41816e-06
0.00036636
0.0011665
0.000607477
0.00117093
0.000665771
0.000911255
0.000594012
0.000634083
0.000442932
0.000379631
0.00025077
0.000166913
6.80908e-05
-1.2549e-05
-7.80258e-05
-0.000151872
-0.000190365
-0.000251552
-0.000285846
-0.000308385
-0.000370608
-0.000314507
-0.000439909
-0.000272287
-0.000485284
-0.00020404
-0.00050174
-0.000142798
-0.000489975
-0.000112197
-0.000460167
-0.000113825
-0.000427573
-0.000131419
-0.000403857
-0.00014539
-0.000391455
-0.000147677
-0.000386245
-0.000145742
-0.000385728
-0.000150363
-0.000388133
-0.000161623
-0.000391327
-0.000166787
-0.00039446
-0.000154161
-0.000398024
-0.000126831
-0.000400775
-9.93125e-05
-0.00039628
-8.62648e-05
-0.000378684
-8.54662e-05
-0.000350261
-8.87684e-05
-0.00031656
-8.66184e-05
-0.000285002
-7.85768e-05
-0.000258686
-7.30577e-05
-0.000237467
-7.57233e-05
-0.000216806
-8.16115e-05
-0.000194795
-7.73973e-05
-0.000173717
-6.11531e-05
-0.000158504
-3.89167e-05
-0.000148539
-2.13589e-05
-0.000136793
-1.90365e-05
-0.000117948
-3.50091e-05
-9.17325e-05
-5.58838e-05
-6.29858e-05
-6.34872e-05
-3.14218e-05
-5.38235e-05
-3.38412e-05
0.000277749
0.000888749
0.000502082
0.000946601
0.000601366
0.000811966
0.000591184
0.000644262
0.000504533
0.000466284
0.000377245
0.000294202
0.000222833
0.000141863
7.25937e-05
-1.63156e-06
-6.86001e-05
-0.000110358
-0.000195636
-0.000181352
-0.000300415
-0.000209729
-0.000371453
-0.000201248
-0.000402297
-0.000173194
-0.000398013
-0.000147084
-0.000373489
-0.000136723
-0.000345438
-0.000141874
-0.000324602
-0.000152251
-0.000311977
-0.000158014
-0.000302813
-0.000156842
-0.000294567
-0.000153988
-0.000290058
-0.00015487
-0.00029352
-0.000158162
-0.000303669
-0.000156636
-0.000313034
-0.000144793
-0.000314369
-0.000125496
-0.000305467
-0.000108215
-0.000291449
-0.000100283
-0.000276319
-0.000100595
-0.000262318
-0.000102769
-0.000247671
-0.000101264
-0.000230229
-9.6019e-05
-0.000208975
-9.43112e-05
-0.000189605
-9.50947e-05
-0.000176128
-9.5089e-05
-0.000165089
-8.84332e-05
-0.000151782
-7.44586e-05
-0.000132866
-5.78373e-05
-0.000108779
-4.54504e-05
-8.40217e-05
-4.37918e-05
-6.51438e-05
-5.38866e-05
-5.33763e-05
-6.76526e-05
-4.22224e-05
-7.46397e-05
-2.38121e-05
-7.22347e-05
-5.76561e-05
0.000202272
0.000686476
0.000392523
0.000756349
0.000515914
0.000688574
0.000566479
0.000593696
0.000552306
0.000480457
0.000488001
0.000358507
0.000393601
0.000236263
0.000271167
0.000120801
0.000141483
1.93248e-05
1.45149e-05
-5.43832e-05
-9.31466e-05
-0.000102067
-0.000169714
-0.000124681
-0.000211081
-0.000131828
-0.000223345
-0.000134823
-0.000219194
-0.000140874
-0.000210925
-0.00015014
-0.000204875
-0.000158299
-0.000201128
-0.000161763
-0.000197188
-0.000160785
-0.000192771
-0.000158402
-0.000190686
-0.000156953
-0.000193525
-0.000155323
-0.000199798
-0.000150364
-0.000204001
-0.000140589
-0.000201437
-0.00012806
-0.000192146
-0.000117507
-0.000180371
-0.000112058
-0.00017021
-0.000110755
-0.000162601
-0.000110376
-0.000156186
-0.000107679
-0.000146417
-0.00010579
-0.000136097
-0.00010463
-0.000126983
-0.000104207
-0.000120045
-0.000102027
-0.000112876
-9.56032e-05
-0.000101927
-8.54081e-05
-8.52063e-05
-7.45595e-05
-6.39516e-05
-6.67103e-05
-4.31534e-05
-6.45906e-05
-2.87509e-05
-6.82842e-05
-2.19495e-05
-7.44535e-05
-1.78053e-05
-7.87868e-05
-1.03579e-05
-7.96843e-05
-6.80148e-05
0.00014729
0.000539185
0.000299221
0.000604419
0.000420195
0.000567602
0.000501381
0.000512512
0.000539886
0.000441952
0.000537758
0.000360634
0.000500236
0.000273785
0.000433786
0.000187253
0.000346477
0.000106635
0.000254774
3.73206e-05
0.000168485
-1.57766e-05
9.75709e-05
-5.3769e-05
4.67739e-05
-8.10332e-05
1.37398e-05
-0.000101788
-7.87552e-06
-0.000119255
-2.40562e-05
-0.000133959
-3.76936e-05
-0.000144665
-4.88509e-05
-0.000150607
-5.7069e-05
-0.000152564
-6.30864e-05
-0.000152383
-6.874e-05
-0.0001513
-7.50188e-05
-0.000149044
-8.08767e-05
-0.000144505
-8.4195e-05
-0.000137272
-8.31849e-05
-0.000129072
-7.86027e-05
-0.000122088
-7.3241e-05
-0.000117419
-6.92657e-05
-0.000114731
-6.71454e-05
-0.000112497
-6.5006e-05
-0.000109817
-6.29892e-05
-0.000107807
-6.11389e-05
-0.00010648
-5.99599e-05
-0.000105384
-5.88854e-05
-0.000103099
-5.6031e-05
-9.84591e-05
-4.95863e-05
-9.18574e-05
-3.92074e-05
-8.49366e-05
-2.63792e-05
-7.95372e-05
-1.42171e-05
-7.67558e-05
-5.94427e-06
-7.65572e-05
-2.50795e-06
-7.78888e-05
-1.92443e-06
-7.93725e-05
-1.46885e-06
-8.01427e-05
-6.94834e-05
0.000113718
0.000425468
0.000237264
0.000480875
0.000346569
0.000458297
0.000435259
0.000423823
0.000498687
0.000378523
0.000534587
0.000324733
0.000543016
0.000265358
0.000526581
0.00020369
0.000489756
0.00014346
0.000439745
8.73297e-05
0.000385712
3.82547e-05
0.00033522
-3.27875e-06
0.000289728
-3.55419e-05
0.000250786
-6.28451e-05
0.00021689
-8.53587e-05
0.000186428
-0.000103499
0.000158937
-0.000117178
0.00013475
-0.00012642
0.000114083
-0.000131893
9.63378e-05
-0.000134639
8.05397e-05
-0.000135506
6.62429e-05
-0.000134748
5.40128e-05
-0.000132273
4.49326e-05
-0.000128193
3.89817e-05
-0.000123124
3.50901e-05
-0.000118196
3.18921e-05
-0.00011422
2.82543e-05
-0.000111095
2.41168e-05
-0.000108361
1.97334e-05
-0.000105433
1.5375e-05
-0.000103446
1.07117e-05
-0.000101814
5.64613e-06
-0.00010032
9.13706e-07
-9.83657e-05
-2.14804e-06
-9.53944e-05
-2.57459e-06
-9.14343e-05
-3.95338e-07
-8.71176e-05
3.31533e-06
-8.32439e-05
6.90356e-06
-8.03435e-05
8.8739e-06
-7.85307e-05
8.5624e-06
-7.7579e-05
6.33519e-06
-7.71453e-05
3.13852e-06
-7.69457e-05
-6.6344e-05
9.53686e-05
0.000330101
0.000201803
0.000374442
0.000300732
0.000359371
0.000388027
0.000336531
0.000460021
0.000306531
0.000514161
0.000270596
0.000549223
0.000230297
0.000565486
0.000187429
0.000564672
0.000144274
0.00055012
0.00010188
0.000525888
6.24852e-05
0.000495716
2.68947e-05
0.000464764
-4.58878e-06
0.00043243
-3.05104e-05
0.000400024
-5.29542e-05
0.000367981
-7.14584e-05
0.000336924
-8.61208e-05
0.000307619
-9.71113e-05
0.000280558
-0.000104832
0.000255766
-0.000109849
0.000232965
-0.000112706
0.000212003
-0.000113784
0.000193044
-0.000113313
0.000176399
-0.00011155
0.000162186
-0.000108911
0.000149849
-0.000105857
0.00013842
-0.000102791
0.000127292
-9.99672e-05
0.000116336
-9.74031e-05
0.000105913
-9.50106e-05
9.53591e-05
-9.28914e-05
8.46965e-05
-9.11471e-05
7.38965e-05
-8.95214e-05
6.33806e-05
-8.78534e-05
5.38433e-05
-8.58541e-05
4.58593e-05
-8.34486e-05
3.9517e-05
-8.07782e-05
3.4385e-05
-7.8112e-05
2.97447e-05
-7.57007e-05
2.49011e-05
-7.36863e-05
1.94201e-05
-7.20985e-05
1.31809e-05
-7.09062e-05
6.32716e-06
-7.00915e-05
-6.00169e-05
8.44906e-05
0.000245613
0.000179969
0.000278964
0.000270578
0.000268764
0.000353648
0.000253463
0.000426673
0.000233505
0.000487655
0.000209613
0.000535281
0.00018267
0.000569042
0.000153666
0.000589578
0.000123736
0.000597603
9.38533e-05
0.00059531
6.47764e-05
0.000584661
3.75427e-05
0.000567571
1.25004e-05
0.000546784
-9.72391e-06
0.000522677
-2.88491e-05
0.000496473
-4.52562e-05
0.000469173
-5.88197e-05
0.000441686
-6.96243e-05
0.000414725
-7.78718e-05
0.0003887
-8.38261e-05
0.000363801
-8.78047e-05
0.00034012
-9.01007e-05
0.000317787
-9.09825e-05
0.000296929
-9.06941e-05
0.000277529
-8.95083e-05
0.000259393
-8.77205e-05
0.000242197
-8.55991e-05
0.000225594
-8.33637e-05
0.000209348
-8.11527e-05
0.000193379
-7.9043e-05
0.000177565
-7.70814e-05
0.000161692
-7.52703e-05
0.000145756
-7.3583e-05
0.000129875
-7.19766e-05
0.000114347
-7.03266e-05
9.94757e-05
-6.85747e-05
8.54261e-05
-6.67289e-05
7.21671e-05
-6.48548e-05
5.95107e-05
-6.30444e-05
4.72085e-05
-6.13829e-05
3.50423e-05
-5.99316e-05
2.28667e-05
-5.87305e-05
1.06247e-05
-5.78502e-05
-4.93934e-05
6.67196e-05
0.000178895
0.000142678
0.000203007
0.000215628
0.000195818
0.00028392
0.000185175
0.000345968
0.000171457
0.000400432
0.000155148
0.000446336
0.000136766
0.000483117
0.000116884
0.000510729
9.61248e-05
0.000529439
7.51446e-05
0.000539869
5.43467e-05
0.000542973
3.44392e-05
0.000539688
1.57863e-05
0.000531686
-1.72109e-06
0.00051933
-1.64925e-05
0.000503814
-2.97386e-05
0.000485989
-4.09931e-05
0.000466623
-5.02572e-05
0.000446348
-5.75973e-05
0.000425683
-6.31601e-05
0.000404977
-6.70943e-05
0.000384475
-6.95966e-05
0.000364344
-7.08536e-05
0.000344717
-7.10675e-05
0.000325656
-7.04436e-05
0.000307123
-6.91853e-05
0.000289017
-6.74973e-05
0.000271208
-6.55549e-05
0.000253558
-6.34998e-05
0.000235952
-6.14372e-05
0.000218318
-5.94506e-05
0.000200571
-5.75222e-05
0.000182697
-5.57068e-05
0.000164741
-5.40217e-05
0.000146805
-5.23927e-05
0.000129035
-5.08036e-05
0.000111554
-4.92467e-05
9.4434e-05
-4.77359e-05
7.7691e-05
-4.63025e-05
6.12915e-05
-4.49842e-05
4.5174e-05
-4.38147e-05
2.92623e-05
-4.28196e-05
1.34764e-05
-4.20654e-05
-3.59179e-05
4.83352e-05
0.00013056
0.000103651
0.000147688
0.000157191
0.00014228
0.000207885
0.00013448
0.000254714
0.000124625
0.000296857
0.000113003
0.000333699
9.99216e-05
0.000364839
8.57423e-05
0.0003901
7.08629e-05
0.000409293
5.59515e-05
0.00042305
4.059e-05
0.000431541
2.59482e-05
0.000435254
1.20737e-05
0.000434354
-8.20751e-07
0.000430243
-1.23805e-05
0.000423119
-2.26135e-05
0.000413546
-3.14193e-05
0.00040205
-3.87607e-05
0.000389105
-4.46535e-05
0.000375101
-4.9154e-05
0.000360389
-5.23792e-05
0.000345206
-5.4413e-05
0.000329759
-5.54076e-05
0.000314195
-5.55043e-05
0.00029861
-5.4856e-05
0.000283047
-5.36211e-05
0.0002675
-5.19536e-05
0.000251943
-4.99993e-05
0.00023633
-4.78849e-05
0.000220608
-4.57151e-05
0.000204744
-4.35888e-05
0.000188719
-4.14977e-05
0.000172519
-3.95054e-05
0.00015615
-3.7652e-05
0.000139683
-3.59265e-05
0.000123203
-3.43236e-05
0.000106797
-3.28409e-05
9.05437e-05
-3.14824e-05
7.44988e-05
-3.02587e-05
5.86975e-05
-2.91845e-05
4.31551e-05
-2.82739e-05
2.78696e-05
-2.75357e-05
1.27991e-05
-2.69963e-05
-2.31189e-05
3.68628e-05
9.36973e-05
7.90281e-05
0.000105523
0.000119848
0.000101463
0.000158584
9.57449e-05
0.000194586
8.86208e-05
0.000227356
8.02328e-05
0.000256503
7.07752e-05
0.00028174
6.05049e-05
0.000302897
4.97065e-05
0.000319925
3.89259e-05
0.000332985
2.75322e-05
0.000342209
1.67253e-05
0.000347827
6.45702e-06
0.000350088
-3.08007e-06
0.00034946
-1.17501e-05
0.000346276
-1.9427e-05
0.000340896
-2.60376e-05
0.000333679
-3.15436e-05
0.000324968
-3.59421e-05
0.000315075
-3.92597e-05
0.000304239
-4.15402e-05
0.000292713
-4.28859e-05
0.000280681
-4.33766e-05
0.000268291
-4.31144e-05
0.000255655
-4.2218e-05
0.000242843
-4.08086e-05
0.000229895
-3.90075e-05
0.000216827
-3.6932e-05
0.000203635
-3.46918e-05
0.000190316
-3.23957e-05
0.00017689
-3.01636e-05
0.000163278
-2.78859e-05
0.000149443
-2.567e-05
0.000135446
-2.36532e-05
0.000121328
-2.18089e-05
0.000107147
-2.01428e-05
9.29656e-05
-1.866e-05
7.88499e-05
-1.7367e-05
6.48596e-05
-1.62691e-05
5.10469e-05
-1.53729e-05
3.74578e-05
-1.46861e-05
2.41339e-05
-1.4213e-05
1.10656e-05
-1.39291e-05
-1.20536e-05
2.81285e-05
6.55668e-05
6.01871e-05
7.34632e-05
9.11786e-05
7.04725e-05
0.000120592
6.63297e-05
0.000148016
6.11953e-05
0.000173124
5.5124e-05
0.000195652
4.8247e-05
0.000215391
4.07644e-05
0.00023218
3.2918e-05
0.000246105
2.50028e-05
0.000257126
1.65127e-05
0.000265269
8.58259e-06
0.00027065
1.07681e-06
0.000273472
-5.90102e-06
0.000273982
-1.22588e-05
0.000272398
-1.78422e-05
0.000268972
-2.26101e-05
0.000263957
-2.6529e-05
0.000257603
-2.95894e-05
0.000250148
-3.18044e-05
0.000241819
-3.32094e-05
0.000232794
-3.38601e-05
0.000223236
-3.38199e-05
0.000213294
-3.31728e-05
0.000203082
-3.20044e-05
0.000192683
-3.04084e-05
0.00018216
-2.84856e-05
0.000171553
-2.63258e-05
0.000160875
-2.40128e-05
0.000150163
-2.16826e-05
0.000139478
-1.94794e-05
0.000128516
-1.69233e-05
0.000117476
-1.46298e-05
0.000106366
-1.25424e-05
9.52082e-05
-1.06508e-05
8.40321e-05
-8.96689e-06
7.2875e-05
-7.50337e-06
6.17827e-05
-6.27505e-06
5.07978e-05
-5.28467e-06
3.99603e-05
-4.53619e-06
2.9309e-05
-4.0356e-06
1.88815e-05
-3.78647e-06
8.67579e-06
-3.7244e-06
-3.37856e-06
2.08231e-05
4.4743e-05
4.44179e-05
4.98683e-05
6.71975e-05
4.76935e-05
8.88156e-05
4.471e-05
0.000108998
4.10128e-05
0.000127525
3.65973e-05
0.000144206
3.15661e-05
0.000158871
2.60994e-05
0.00017131
2.04794e-05
0.000182052
1.4262e-05
0.000190275
8.29069e-06
0.000196296
2.56173e-06
0.000200079
-2.70647e-06
0.000202039
-7.8603e-06
0.000202182
-1.24017e-05
0.000200687
-1.63461e-05
0.000197737
-1.96593e-05
0.000193525
-2.23179e-05
0.000188247
-2.43131e-05
0.000182098
-2.56558e-05
0.00017526
-2.63702e-05
0.000167892
-2.64929e-05
0.000160145
-2.60729e-05
0.00015214
-2.51682e-05
0.000143983
-2.38459e-05
0.000135756
-2.21807e-05
0.000127522
-2.02515e-05
0.000119335
-1.81395e-05
0.000111252
-1.59287e-05
0.000103361
-1.379e-05
9.51931e-05
-1.13101e-05
8.72144e-05
-8.94391e-06
7.93273e-05
-6.74178e-06
7.14963e-05
-4.71046e-06
6.3725e-05
-2.87895e-06
5.60317e-05
-1.27378e-06
4.8444e-05
8.37282e-08
4.09618e-05
1.20641e-06
3.36012e-05
2.07505e-06
2.6383e-05
2.68109e-06
1.93264e-05
3.0199e-06
1.245e-05
3.08885e-06
5.75377e-06
2.97065e-06
2.37447e-06
1.46686e-05
3.00734e-05
3.11974e-05
3.33388e-05
4.71527e-05
3.17372e-05
6.22852e-05
2.95753e-05
7.62588e-05
2.70393e-05
8.90312e-05
2.38257e-05
0.000100564
2.00325e-05
0.000110696
1.5966e-05
0.000119374
1.18014e-05
0.000126126
7.50888e-06
0.000131134
3.28227e-06
0.000134451
-7.55454e-07
0.000136142
-4.39784e-06
0.000136413
-8.1323e-06
0.000135307
-1.12955e-05
0.000132987
-1.40261e-05
0.0001296
-1.62725e-05
0.000125305
-1.80247e-05
0.000120269
-1.92788e-05
0.000114657
-2.00444e-05
0.000108626
-2.03398e-05
0.000102315
-2.01831e-05
9.58523e-05
-1.96107e-05
8.93531e-05
-1.86694e-05
8.29162e-05
-1.74082e-05
7.66193e-05
-1.58826e-05
7.05319e-05
-1.41634e-05
6.48213e-05
-1.24284e-05