/*--------------------------------*- C++ -*----------------------------------*\
  =========                 |
  \\      /  F ield         | OpenFOAM: The Open Source CFD Toolbox
   \\    /   O peration     | Website:  https://openfoam.org
    \\  /    A nd           | Version:  7
     \\/     M anipulation  |
\*---------------------------------------------------------------------------*/
FoamFile
{
    version     2.0;
    format      ascii;
    class       surfaceScalarField;
    location    "2";
    object      phi;
}
// * * * * * * * * * * * * * * * * * * * * * * * * * * * * * * * * * * * * * //

dimensions      [0 3 -1 0 0 0 0];

internalField   nonuniform List<scalar> 
1740
(
1.24342e-07
-1.24326e-07
-1.23288e-06
1.35722e-06
-3.95296e-06
2.72008e-06
-7.52742e-06
3.57446e-06
-1.15143e-05
3.98693e-06
-1.56032e-05
4.08887e-06
-1.95998e-05
3.99658e-06
-2.33881e-05
3.78828e-06
-2.6895e-05
3.50693e-06
-3.00671e-05
3.17209e-06
-3.28579e-05
2.79084e-06
-3.52228e-05
2.36482e-06
-3.7117e-05
1.89421e-06
-3.84966e-05
1.37959e-06
-3.93194e-05
8.2283e-07
-3.95469e-05
2.27518e-07
-3.91462e-05
-4.00691e-07
-3.80924e-05
-1.05382e-06
-3.63712e-05
-1.72115e-06
-3.39824e-05
-2.38885e-06
-3.09434e-05
-3.03905e-06
-2.72954e-05
-3.64799e-06
-2.31128e-05
-4.18253e-06
-1.85184e-05
-4.59447e-06
-1.37055e-05
-4.81283e-06
-8.96797e-06
-4.73755e-06
-4.724e-06
-4.24398e-06
-1.51183e-06
-3.21217e-06
9.41787e-08
-1.60601e-06
9.41782e-08
-1.35736e-06
1.23303e-06
-5.85152e-06
5.85139e-06
-1.28869e-05
9.75545e-06
-2.16054e-05
1.2293e-05
-3.12003e-05
1.35818e-05
-4.10432e-05
1.39317e-05
-5.06933e-05
1.36467e-05
-5.98552e-05
1.29502e-05
-6.83268e-05
1.19785e-05
-7.59579e-05
1.08032e-05
-8.26245e-05
9.45743e-06
-8.82152e-05
7.95559e-06
-9.26263e-05
6.30522e-06
-9.57601e-05
4.51345e-06
-9.75277e-05
2.59037e-06
-9.78505e-05
5.50353e-07
-9.66666e-05
-1.5846e-06
-9.39326e-05
-3.78784e-06
-8.96318e-05
-6.02195e-06
-8.37805e-05
-8.24013e-06
-7.64377e-05
-1.03818e-05
-6.77189e-05
-1.23668e-05
-5.78163e-05
-1.40852e-05
-4.70283e-05
-1.53824e-05
-3.57979e-05
-1.60433e-05
-2.47504e-05
-1.5785e-05
-1.47096e-05
-1.42847e-05
-6.65205e-06
-1.12697e-05
-1.53917e-06
-6.71889e-06
-1.44499e-06
-2.8032e-06
4.03623e-06
-1.00313e-05
1.30795e-05
-2.05164e-05
2.02405e-05
-3.30998e-05
2.48764e-05
-4.67589e-05
2.72409e-05
-6.06922e-05
2.7865e-05
-7.43202e-05
2.72746e-05
-8.72381e-05
2.58681e-05
-9.91588e-05
2.38992e-05
-0.000109865
2.15098e-05
-0.00011918
1.87719e-05
-0.000126946
1.57219e-05
-0.000133023
1.23816e-05
-0.000137279
8.77031e-06
-0.000139601
4.91184e-06
-0.000139889
8.38412e-07
-0.000138066
-3.40811e-06
-0.000134083
-7.77081e-06
-0.000127927
-1.21774e-05
-0.000119632
-1.65354e-05
-0.000109288
-2.07259e-05
-9.70625e-05
-2.45921e-05
-8.3226e-05
-2.79216e-05
-6.8186e-05
-3.04224e-05
-5.25301e-05
-3.16992e-05
-3.70659e-05
-3.12492e-05
-2.28353e-05
-2.85154e-05
-1.10694e-05
-2.30356e-05
-3.05771e-06
-1.47306e-05
-4.5027e-06
-3.84762e-06
7.88385e-06
-1.32013e-05
2.24332e-05
-2.635e-05
3.33891e-05
-4.18355e-05
4.03619e-05
-5.84633e-05
4.38688e-05
-7.53225e-05
4.47242e-05
-9.17557e-05
4.37078e-05
-0.000107298
4.14106e-05
-0.000121614
3.82154e-05
-0.000134447
3.43428e-05
-0.000145586
2.99107e-05
-0.000154847
2.49823e-05
-0.000162063
1.95981e-05
-0.000167086
1.37932e-05
-0.000169783
7.60863e-06
-0.000170041
1.09704e-06
-0.000167774
-5.67507e-06
-0.000162928
-1.2617e-05
-0.00015549
-1.96154e-05
-0.000145501
-2.65246e-05
-0.00013307
-3.31572e-05
-0.000118395
-3.92669e-05
-0.000101794
-4.45228e-05
-8.37397e-05
-4.84763e-05
-6.4909e-05
-5.05298e-05
-4.6223e-05
-4.99352e-05
-2.88719e-05
-4.58665e-05
-1.42928e-05
-3.76147e-05
-4.09301e-06
-2.49304e-05
-8.59571e-06
-4.55395e-06
1.24378e-05
-1.5484e-05
3.33633e-05
-3.06551e-05
4.85602e-05
-4.83404e-05
5.80473e-05
-6.71926e-05
6.2721e-05
-8.62159e-05
6.37475e-05
-0.000104703
6.21946e-05
-0.000122155
5.88626e-05
-0.000138211
5.42716e-05
-0.000152593
4.87248e-05
-0.000165071
4.23885e-05
-0.000175443
3.5355e-05
-0.00018353
2.76845e-05
-0.000189166
1.94294e-05
-0.000192205
1.06479e-05
-0.000192522
1.41411e-06
-0.000190017
-8.1803e-06
-0.000184624
-1.80096e-05
-0.000176323
-2.79164e-05
-0.000165151
-3.76973e-05
-0.000151219
-4.7089e-05
-0.000134741
-5.5745e-05
-0.000116062
-6.3202e-05
-9.57011e-05
-6.88369e-05
-7.4403e-05
-7.18279e-05
-5.31853e-05
-7.1153e-05
-3.3374e-05
-6.56778e-05
-1.66031e-05
-5.43856e-05
-4.77074e-06
-3.67628e-05
-1.33664e-05
-5.0458e-06
1.74836e-05
-1.71758e-05
4.54933e-05
-3.39415e-05
6.53259e-05
-5.33867e-05
7.74925e-05
-7.40245e-05
8.33588e-05
-9.47821e-05
8.45051e-05
-0.000114912
8.23241e-05
-0.000133893
7.78441e-05
-0.000151352
7.17301e-05
-0.000166998
6.43714e-05
-0.000180593
5.59829e-05
-0.000191924
4.66859e-05
-0.000200798
3.65593e-05
-0.00020704
2.5671e-05
-0.000210487
1.40948e-05
-0.000210996
1.92367e-06
-0.000208449
-1.07278e-05
-0.000202759
-2.37e-05
-0.000193884
-3.67911e-05
-0.000181844
-4.9737e-05
-0.000166741
-6.21918e-05
-0.000148789
-7.36975e-05
-0.00012835
-8.36412e-05
-0.000105984
-9.12022e-05
-8.2507e-05
-9.53052e-05
-5.90421e-05
-9.46178e-05
-3.70667e-05
-8.76532e-05
-1.8419e-05
-7.30333e-05
-5.25981e-06
-4.9922e-05
-1.86263e-05
-5.43736e-06
2.2921e-05
-1.85766e-05
5.86325e-05
-3.67238e-05
8.34731e-05
-5.77228e-05
9.84915e-05
-7.99551e-05
0.000105591
-0.000102272
0.000106822
-0.000123888
0.00010394
-0.000144264
9.82202e-05
-0.000163017
9.04836e-05
-0.000179854
8.12078e-05
-0.000194528
7.0657e-05
-0.000206821
5.89792e-05
-0.000216531
4.62695e-05
-0.000223468
3.26074e-05
-0.000227451
1.80776e-05
-0.000228314
2.78712e-06
-0.00022591
-1.31317e-05
-0.000220121
-2.94895e-05
-0.000210869
-4.60422e-05
-0.000198143
-6.24632e-05
-0.000182018
-7.83171e-05
-0.000162695
-9.302e-05
-0.00014055
-0.000105787
-0.000116186
-0.000115566
-9.0503e-05
-0.000120989
-6.47565e-05
-0.000120364
-4.06053e-05
-0.000111804
-2.01135e-05
-9.3525e-05
-5.69719e-06
-6.43383e-05
-2.43235e-05
-5.81199e-06
2.8733e-05
-1.99221e-05
7.27427e-05
-3.94153e-05
0.000102966
-6.19465e-05
0.000121023
-8.57666e-05
0.000129411
-0.000109649
0.000130705
-0.000132768
0.000127059
-0.000154569
0.000120021
-0.000174662
0.000110576
-0.00019275
9.92961e-05
-0.000208586
8.64934e-05
-0.000221948
7.23405e-05
-0.000232623
5.69446e-05
-0.000240406
4.03908e-05
-0.000245096
2.27678e-05
-0.000246498
4.18851e-06
-0.000244425
-1.52051e-05
-0.000238712
-3.52019e-05
-0.000229234
-5.55203e-05
-0.000215925
-7.57719e-05
-0.000198818
-9.54242e-05
-0.000178088
-0.00011375
-0.000154114
-0.00012976
-0.00012755
-0.00014213
-9.94005e-05
-0.000149138
-7.10896e-05
-0.000148675
-4.45015e-05
-0.000138393
-2.19664e-05
-0.00011606
-6.17545e-06
-8.01292e-05
-3.04989e-05
-6.22253e-06
3.49555e-05
-2.13739e-05
8.78941e-05
-4.23071e-05
0.000123899
-6.64813e-05
0.000145197
-9.20099e-05
0.00015494
-0.000117584
0.000156279
-0.000142335
0.00015181
-0.000165691
0.000143377
-0.000187258
0.000132143
-0.000206741
0.000118779
-0.000223893
0.000103645
-0.000238488
8.69362e-05
-0.000250309
6.87655e-05
-0.000259135
4.92164e-05
-0.000264739
2.83722e-05
-0.00026689
6.33961e-06
-0.000265354
-1.67412e-05
-0.000259905
-4.06507e-05
-0.000250347
-6.50789e-05
-0.000236539
-8.95792e-05
-0.000218447
-0.000113516
-0.000196199
-0.000135999
-0.000170165
-0.000155794
-0.000141054
-0.000171242
-0.000109999
-0.000180193
-7.86391e-05
-0.000180035
-4.91454e-05
-0.000167886
-2.41778e-05
-0.000141028
-6.75254e-06
-9.75545e-05
-3.72514e-05
-6.70049e-06
4.1656e-05
-2.30357e-05
0.000104229
-4.55917e-05
0.000146455
-7.16094e-05
0.000171215
-9.90507e-05
0.000182381
-0.000126516
0.000183744
-0.000153092
0.000178386
-0.000178191
0.000168475
-0.000201416
0.000155369
-0.000222478
0.000139841
-0.000241136
0.000122303
-0.000257166
0.000102966
-0.000270345
8.19453e-05
-0.000280441
5.93123e-05
-0.000287201
3.51323e-05
-0.000290352
9.49066e-06
-0.000289602
-1.74915e-05
-0.000284647
-4.56059e-05
-0.000275196
-7.45296e-05
-0.000261007
-0.000103768
-0.000241942
-0.000132582
-0.000218049
-0.000159892
-0.000189669
-0.000184173
-0.00015756
-0.000203351
-0.000123011
-0.000214742
-8.79336e-05
-0.000215113
-5.48708e-05
-0.000200949
-2.69075e-05
-0.000168991
-7.46816e-06
-0.000116994
-4.47196e-05
-7.26569e-06
4.89217e-05
-2.49764e-05
0.00012194
-4.93994e-05
0.000170878
-7.7522e-05
0.000199337
-0.000107133
0.000211992
-0.000136734
0.000213345
-0.000165362
0.000207015
-0.000192417
0.000195529
-0.000217505
0.000180457
-0.000240348
0.000162684
-0.000260717
0.000142671
-0.000278398
0.000120647
-0.000293171
9.67185e-05
-0.000304794
7.0935e-05
-0.00031299
4.33285e-05
-0.000317443
1.39435e-05
-0.000317793
-1.71415e-05
-0.00031364
-4.97584e-05
-0.000304573
-8.35967e-05
-0.000290206
-0.000118136
-0.000270252
-0.000152536
-0.00024463
-0.000185513
-0.00021361
-0.000215193
-0.000177979
-0.000238982
-0.000139207
-0.000253515
-9.95474e-05
-0.000254772
-6.20351e-05
-0.000238461
-3.03189e-05
-0.000200707
-8.35865e-06
-0.000138954
-5.30782e-05
-7.93347e-06
5.68551e-05
-2.72499e-05
0.000141256
-5.38315e-05
0.00019746
-8.43648e-05
0.00022987
-0.000116439
0.000244067
-0.000148443
0.000245349
-0.000179367
0.000237938
-0.000208597
0.00022476
-0.000235754
0.000207614
-0.000260578
0.000187508
-0.000282864
0.000164957
-0.000302417
0.000140201
-0.00031903
0.000113332
-0.000332461
8.4366e-05
-0.000342417
5.32841e-05
-0.000348538
2.00644e-05
-0.000350392
-1.52874e-05
-0.000347466
-5.26845e-05
-0.000339195
-9.18675e-05
-0.000325003
-0.000132328
-0.000304388
-0.000173151
-0.000277065
-0.000212836
-0.00024316
-0.000249099
-0.000203444
-0.000278697
-0.000159574
-0.000297385
-0.000114234
-0.000300112
-7.11116e-05
-0.000281584
-3.46278e-05
-0.000237191
-9.4703e-06
-0.000164112
-6.25485e-05
-8.71986e-06
6.5575e-05
-2.99104e-05
0.000162447
-5.89862e-05
0.000226536
-9.22745e-05
0.000263159
-0.000127132
0.000278924
-0.00016182
0.000280038
-0.000195282
0.0002714
-0.000226901
0.000256378
-0.000256318
0.000237031
-0.000283307
0.000214498
-0.0003077
0.00018935
-0.000329337
0.000161838
-0.000348039
0.000132034
-0.00036358
9.99065e-05
-0.000375661
6.53652e-05
-0.00038389
2.82936e-05
-0.000387764
-1.14129e-05
-0.000386642
-5.38067e-05
-0.000379775
-9.87345e-05
-0.000366338
-0.000145765
-0.000345529
-0.00019396
-0.000316746
-0.000241619
-0.00027985
-0.000285995
-0.000235504
-0.000323043
-0.00018552
-0.000347369
-0.000133102
-0.000352529
-8.28149e-05
-0.000331872
-4.01658e-05
-0.00027984
-1.08756e-05
-0.000193402
-7.34241e-05
-9.6455e-06
7.52205e-05
-3.30241e-05
0.000185826
-6.49797e-05
0.000258491
-0.000101407
0.000299586
-0.000139389
0.000316906
-0.000177049
0.000317698
-0.000213282
0.000307633
-0.000247479
0.000290575
-0.000279319
0.000268871
-0.000308625
0.000243804
-0.000335284
0.000216009
-0.000359192
0.000185745
-0.000380219
0.00015306
-0.000398176
0.000117864
-0.000412785
7.99739e-05
-0.000423638
3.91465e-05
-0.00043018
-4.87149e-06
-0.000431629
-5.2357e-05
-0.000427034
-0.00010333
-0.000415257
-0.000157542
-0.000395088
-0.000214128
-0.000365452
-0.000271255
-0.000325755
-0.000325692
-0.000276362
-0.000372437
-0.000219138
-0.000404592
-0.000157872
-0.000413796
-9.8295e-05
-0.000391449
-4.74845e-05
-0.00033065
-1.27004e-05
-0.000228186
-8.61246e-05
-1.07396e-05
8.59601e-05
-3.66812e-05
0.000211767
-7.19646e-05
0.000293775
-0.00011196
0.000339581
-0.00015343
0.000358377
-0.000194346
0.000358614
-0.000233561
0.000346847
-0.00027049
0.000327504
-0.000304868
0.000303249
-0.00033659
0.000275526
-0.000365621
0.00024504
-0.000391938
0.000212063
-0.000415489
0.000176612
-0.000436156
0.000138531
-0.000453712
9.75299e-05
-0.000467769
5.3203e-05
-0.000477753
5.11284e-06
-0.000482763
-4.73475e-05
-0.000481634
-0.000104459
-0.000472865
-0.000166311
-0.000454715
-0.000232278
-0.000425428
-0.000300542
-0.000383662
-0.000367457
-0.00032916
-0.00042694
-0.000263577
-0.000470174
-0.000191255
-0.000486118
-0.000119445
-0.000463258
-5.75312e-05
-0.000392565
-1.51739e-05
-0.000270543
-0.000101298
-1.20449e-05
9.8005e-05
-4.10095e-05
0.000240732
-8.0152e-05
0.000332917
-0.0001242
0.000383629
-0.000169543
0.000403719
-0.000213986
0.000403057
-0.000256355
0.000389216
-0.000296112
0.000367261
-0.000333073
0.00034021
-0.000367233
0.000309686
-0.000398661
0.000276468
-0.000427446
0.000240847
-0.000453649
0.000202814
-0.000477263
0.000162145
-0.000498162
0.000118429
-0.000516043
7.10848e-05
-0.000530318
1.93871e-05
-0.000540111
-3.75544e-05
-0.000544018
-0.000100552
-0.000540159
-0.00017017
-0.000526152
-0.000246286
-0.00049931
-0.000327384
-0.000457135
-0.000409632
-0.000398202
-0.000485873
-0.000323426
-0.000544949
-0.000237438
-0.000572107
-0.00014935
-0.000551346
-7.19272e-05
-0.000469987
-1.87152e-05
-0.000323755
-0.000120014
-1.36255e-05
0.00011163
-4.61944e-05
0.000273301
-8.98387e-05
0.000376562
-0.000138492
0.000432283
-0.000188107
0.000453334
-0.000236321
0.000451271
-0.000281956
0.000434851
-0.000324552
0.000409858
-0.000364042
0.0003797
-0.000400548
0.000346192
-0.000434278
0.000310198
-0.000465463
0.000272033
-0.000494318
0.000231668
-0.000520993
0.00018882
-0.000545529
0.000142964
-0.000567774
9.333e-05
-0.000587278
3.88907e-05
-0.000603205
-2.16266e-05
-0.000614052
-8.97051e-05
-0.000617605
-0.000166617
-0.000610774
-0.000253117
-0.000589688
-0.00034847
-0.000550171
-0.00044915
-0.000488824
-0.00054722
-0.000404865
-0.000628909
-0.00030249
-0.000674481
-0.000192787
-0.00066105
-9.33478e-05
-0.000569426
-2.40689e-05
-0.000393034
-0.000144082
-1.55794e-05
0.00012721
-5.25089e-05
0.00031023
-0.000101447
0.0004255
-0.000155335
0.000486171
-0.000209624
0.000507623
-0.000261796
0.000503443
-0.00031071
0.000483765
-0.000356033
0.000455181
-0.000397851
0.000421518
-0.000436451
0.000384792
-0.00047221
0.000345957
-0.000505536
0.000305359
-0.000536834
0.000262967
-0.000566469
0.000218455
-0.000594713
0.000171208
-0.000621668
0.000120285
-0.000647134
6.43569e-05
-0.000670529
1.76863e-06
-0.000690357
-6.98769e-05
-0.000704276
-0.000152698
-0.00070853
-0.000248863
-0.000697889
-0.00035911
-0.000665943
-0.000481095
-0.000606272
-0.000606891
-0.000514913
-0.000720268
-0.000394147
-0.000795247
-0.000256487
-0.000798711
-0.000125906
-0.000700006
-3.24872e-05
-0.000486453
-0.00017657
-1.80601e-05
0.00014527
-6.03598e-05
0.00035253
-0.000115577
0.000480717
-0.000175407
0.000546002
-0.00023474
0.000566956
-0.000290946
0.000559648
-0.000342991
0.00053581
-0.000390733
0.000502923
-0.000434462
0.000465247
-0.000474666
0.000424997
-0.000511919
0.00038321
-0.000546834
0.000340274
-0.000580041
0.000296173
-0.00061216
0.000250573
-0.000643765
0.000202814
-0.000675318
0.000151838
-0.000707047
9.60858e-05
-0.000738647
3.33686e-05
-0.000769203
-3.93208e-05
-0.000796362
-0.000125539
-0.000815974
-0.00022925
-0.000821504
-0.000353581
-0.000803913
-0.000498686
-0.000752673
-0.00065813
-0.000658725
-0.000814216
-0.00051997
-0.000934002
-0.000348442
-0.000970239
-0.000175283
-0.000873165
-4.59463e-05
-0.00061579
-0.000222516
-2.13151e-05
0.000166585
-7.03607e-05
0.000401575
-0.000133081
0.000543437
-0.000199605
0.000612526
-0.000264239
0.00063159
-0.000324336
0.000619745
-0.000379085
0.00059056
-0.000428622
0.00055246
-0.000473502
0.000510127
-0.000514449
0.000465943
-0.000552257
0.000421018
-0.000587762
0.000375779
-0.000621831
0.000330242
-0.000655363
0.000284106
-0.000689276
0.000236726
-0.000724458
0.00018702
-0.000761666
0.000133294
-0.000801295
7.2997e-05
-0.000842976
2.36041e-06
-0.000885023
-8.34922e-05
-0.000923333
-0.00019094
-0.000950501
-0.000326413
-0.000954962
-0.000494225
-0.00092144
-0.000691653
-0.000833935
-0.00090172
-0.000682681
-0.00108526
-0.000475244
-0.00117768
-0.000248147
-0.00110026
-6.73973e-05
-0.000796539
-0.000289913
-2.57566e-05
0.000192342
-8.34468e-05
0.000459266
-0.00015515
0.000615139
-0.000229056
0.000686432
-0.00029895
0.000701484
-0.00036236
0.000683155
-0.000418879
0.000647079
-0.000469038
0.00060262
-0.000513728
0.000554817
-0.000553948
0.000506162
-0.000590728
0.000457798
-0.000625125
0.000410176
-0.000658238
0.000363355
-0.000691228
0.000317096
-0.00072534
0.000270838
-0.000761895
0.000223576
-0.000802233
0.000173632
-0.00084752
0.000118285
-0.000898389
5.32296e-05
-0.000954025
-2.78571e-05
-0.00101128
-0.000133682
-0.00106282
-0.000274881
-0.00109554
-0.000461505
-0.00108998
-0.000697209
-0.00102247
-0.000969227
-0.000872385
-0.00123534
-0.000636584
-0.00141348
-0.000350193
-0.00138665
-0.00010103
-0.0010457
-0.000390943
-3.20966e-05
0.000224438
-0.000101055
0.000528224
-0.0001834
0.000697484
-0.000265025
0.000768057
-0.000339442
0.000775901
-0.000404718
0.000748431
-0.000461113
0.000703474
-0.000509725
0.000651231
-0.000551866
0.000596959
-0.000588856
0.000543152
-0.000621978
0.00049092
-0.000652499
0.000440697
-0.000681712
0.000392568
-0.000710979
0.000346363
-0.000741785
0.000301643
-0.000775776
0.000257567
-0.000814765
0.000212621
-0.000860633
0.000164152
-0.000915047
0.000107643
-0.000978466
3.55624e-05
-0.00104936
-6.27875e-05
-0.0011221
-0.000202144
-0.00118417
-0.000399434
-0.00121444
-0.000666936
-0.00118324
-0.00100042
-0.00105778
-0.00136081
-0.000817126
-0.00165413
-0.000481767
-0.00172201
-0.000152137
-0.00137533
-0.000543081
-4.16142e-05
0.000266052
-0.000125403
0.000612013
-0.000219887
0.000791968
-0.000308531
0.000856701
-0.000385218
0.000852588
-0.000449176
0.000812388
-0.000501743
0.000756041
-0.000544814
0.000694302
-0.000580257
0.000632402
-0.000609783
0.000572679
-0.000634958
0.000516095
-0.000657252
0.000462991
-0.000678099
0.000413415
-0.000698959
0.000367223
-0.000721391
0.000324076
-0.000747135
0.000283311
-0.000778181
0.000243667
-0.000816788
0.000202759
-0.000865336
0.000156191
-0.000926072
9.62982e-05
-0.000998516
9.65608e-06
-0.00108145
-0.000119208
-0.00116553
-0.000315353
-0.0012326
-0.000599867
-0.00125208
-0.000980944
-0.00118172
-0.00143117
-0.0009783
-0.00185755
-0.000630201
-0.00207011
-0.00022507
-0.00178046
-0.00076815
-5.66945e-05
0.000322747
-0.000159881
0.0007152
-0.000266835
0.000898921
-0.000359242
0.000949108
-0.000432766
0.000926113
-0.000488853
0.000868476
-0.000530541
0.000797729
-0.000560869
0.00072463
-0.000582474
0.000654006
-0.000597583
0.000587788
-0.000608103
0.000526615
-0.000615707
0.000470595
-0.00062191
0.000419618
-0.000628144
0.000373457
-0.000635838
0.00033177
-0.000646522
0.000293995
-0.000661941
0.000259086
-0.000684179
0.000224997
-0.000715758
0.000187771
-0.000759524
0.000140064
-0.000818992
6.9124e-05
-0.000894108
-4.40916e-05
-0.00098411
-0.000225352
-0.00107889
-0.000505084
-0.00115474
-0.000905101
-0.00116808
-0.00141783
-0.00105597
-0.00196966
-0.000760594
-0.00236549
-0.000317086
-0.00222397
-0.00108524
-8.18955e-05
0.000404642
-0.000209433
0.000842738
-0.000325372
0.00101486
-0.00041246
0.0010362
-0.000471006
0.000984658
-0.000506424
0.000903893
-0.000524392
0.000815698
-0.000529625
0.000729863
-0.000525823
0.000650204
-0.000515878
0.000577842
-0.000502077
0.000512814
-0.000486258
0.000454776
-0.000469916
0.000403276
-0.000454303
0.000357844
-0.000440515
0.000317982
-0.000429598
0.000283078
-0.000422683
0.000252171
-0.000421176
0.00022349
-0.000427065
0.000193661
-0.000443291
0.00015629
-0.000474365
0.000100198
-0.000525016
6.55917e-06
-0.000601445
-0.000148923
-0.000706196
-0.000400332
-0.000830239
-0.000781058
-0.000941768
-0.0013063
-0.000970797
-0.00194063
-0.000812003
-0.00252428
-0.000408556
-0.00262742
-0.00149379
-0.000125958
0.000530601
-0.000279935
0.000996714
-0.000390682
0.00112561
-0.000450709
0.00109622
-0.000470342
0.00100429
-0.000461706
0.000895257
-0.000434405
0.000788396
-0.000395384
0.000690843
-0.000349562
0.000604381
-0.000300416
0.000528696
-0.00025041
0.000462809
-0.000201291
0.000405658
-0.000154274
0.000356258
-0.00011018
0.00031375
-6.9552e-05
0.000277355
-3.27566e-05
0.000246282
-1.14512e-07
0.000219529
2.78527e-05
0.000195523
5.00806e-05
0.000171433
6.42016e-05
0.000142169
6.5655e-05
9.87447e-05
4.59615e-05
2.62526e-05
-5.13689e-06
-9.78247e-05
-0.000100455
-0.000305014
-0.000252135
-0.000629378
-0.000453025
-0.00110541
-0.000649872
-0.00174378
-0.000706386
-0.00246777
-0.00045833
-0.00287547
-0.00195212
-0.000205192
0.000735793
-0.000370176
0.0011617
-0.000433199
0.00118863
-0.000418444
0.00108147
-0.000354985
0.000940832
-0.000264714
0.000804987
-0.000161601
0.000685283
-5.43309e-05
0.000583572
5.18812e-05
0.000498169
0.000153952
0.000426625
0.000250119
0.000366642
0.000339487
0.00031629
0.000421728
0.000274017
0.000496898
0.00023858
0.000565307
0.000208946
0.00062742
0.00018417
0.000683732
0.000163216
0.000734584
0.000144671
0.000779751
0.000126266
0.000817753
0.000104167
0.000844564
7.19339e-05
0.000851382
1.94352e-05
0.00082475
-7.11931e-05
0.000742481
-0.000222745
0.000578683
-0.00046558
0.00031371
-0.000840438
-3.5036e-05
-0.00139504
-0.00036475
-0.00213805
-0.000409821
-0.0028304
-0.00236194
-0.000333488
0.00106928
-0.000414358
0.00124257
-0.000323428
0.0010977
-0.000145254
0.000903295
6.49519e-05
0.000730626
0.00027954
0.000590398
0.000484908
0.000479916
0.000675226
0.000393254
0.000848482
0.000324913
0.00100455
0.000270559
0.00114422
0.000226971
0.00126873
0.000191781
0.0013795
0.00016324
0.00147805
0.000140039
0.00156583
0.000121157
0.00164428
0.000105728
0.0017146
9.28882e-05
0.0017777
8.15761e-05
0.00183375
7.02102e-05
0.00188164
5.62793e-05
0.00191766
3.59121e-05
0.00193311
3.98718e-06
0.00191435
-5.24333e-05
0.00183684
-0.000145229
0.00166605
-0.000294797
0.00135941
-0.000533794
0.000880509
-0.000916136
0.00029011
-0.00154765
-0.000137486
-0.00240281
-0.00249943
-0.000293413
0.00136269
-2.86231e-05
0.000977779
0.000413408
0.000655668
0.000840337
0.000476366
0.00122065
0.000350316
0.0015505
0.000260547
0.0018329
0.000197511
0.00207341
0.000152743
0.00227813
0.000120192
0.00245268
9.60131e-05
0.0026019
7.77547e-05
0.00272989
6.37868e-05
0.00284014
5.29941e-05
0.00293558
4.45979e-05
0.0030187
3.80312e-05
0.00309159
3.28427e-05
0.00315587
2.86116e-05
0.00321259
2.48534e-05
0.00326189
2.09076e-05
0.00330237
1.58038e-05
0.00333013
8.14673e-06
0.00333893
-4.81458e-06
0.00331394
-2.74445e-05
0.00323253
-6.38131e-05
0.00305918
-0.000121445
0.00274264
-0.000217261
0.00221367
-0.000387161
0.00141558
-0.000749564
0.000474466
-0.00146169
-0.00202496
0.00136269
0.00234047
0.00299614
0.00347251
0.00382282
0.00408337
0.00428088
0.00443362
0.00455382
0.00464983
0.00472758
0.00479137
0.00484436
0.00488896
0.00492699
0.00495984
0.00498845
0.0050133
0.00503421
0.00505001
0.00505816
0.00505335
0.0050259
0.00496209
0.00484064
0.00462338
0.00423622
0.00348666
0.00202496
)
;

boundaryField
{
    movingWall
    {
        type            calculated;
        value           uniform 0;
    }
    fixedWalls
    {
        type            calculated;
        value           uniform 0;
    }
    frontAndBack
    {
        type            empty;
        value           nonuniform 0();
    }
}


// ************************************************************************* //
