/*--------------------------------*- C++ -*----------------------------------*\
  =========                 |
  \\      /  F ield         | OpenFOAM: The Open Source CFD Toolbox
   \\    /   O peration     | Website:  https://openfoam.org
    \\  /    A nd           | Version:  7
     \\/     M anipulation  |
\*---------------------------------------------------------------------------*/
FoamFile
{
    version     2.0;
    format      ascii;
    class       volVectorField;
    location    "0.78";
    object      U;
}
// * * * * * * * * * * * * * * * * * * * * * * * * * * * * * * * * * * * * * //

dimensions      [0 1 -1 0 0 0 0];

internalField   nonuniform List<vector> 
1936
(
(-9.75503 3.01991 0)
(-69.6395 203.05 0)
(-15.3874 440.18 0)
(11.3918 420.337 0)
(-2.19711 374.592 0)
(11.5139 371.641 0)
(16.2863 336.647 0)
(15.3614 290.97 0)
(2.52017 267.417 0)
(-8.55134 270.931 0)
(-20.5215 323.008 0)
(-23.7718 442.905 0)
(15.5094 465.009 0)
(30.3264 326.271 0)
(6.29852 232.476 0)
(-5.8852 220.706 0)
(-31.2059 273.928 0)
(-30.366 439.803 0)
(26.3892 483.836 0)
(37.1052 333.792 0)
(20.13 236.355 0)
(10.7218 223.785 0)
(-8.16292 240.776 0)
(-27.4044 344.981 0)
(-17.0609 469.862 0)
(23.6049 428.586 0)
(25.8493 280.055 0)
(0.772818 219.989 0)
(-11.2132 222.468 0)
(-32.6754 291.784 0)
(-27.1605 456.995 0)
(26.6579 480.223 0)
(36.115 323.162 0)
(17.7681 229.061 0)
(5.37857 218.074 0)
(-13.9228 243.534 0)
(-31.8265 376.397 0)
(-1.109 493.507 0)
(37.7921 400.942 0)
(26.3945 250.251 0)
(7.81079 211.766 0)
(-5.76441 216.687 0)
(-30.0159 300.44 0)
(-26.1069 463.564 0)
(-10.6711 7.33564 0)
(-76.2973 -0.33178 0)
(-18.523 -4.94348 0)
(10.3704 -2.47983 0)
(-4.48798 -0.933669 0)
(9.60497 -1.26134 0)
(15.0109 -0.313367 0)
(12.8038 1.20277 0)
(1.43356 2.36628 0)
(-5.592 2.27493 0)
(-18.6422 0.388382 0)
(-24.7723 -2.96529 0)
(16.3968 -3.66543 0)
(29.4422 -0.121152 0)
(2.14763 3.22994 0)
(-3.65448 3.95774 0)
(-26.2557 0.677315 0)
(-30.4617 -4.70437 0)
(28.0123 -4.65778 0)
(36.4204 -0.615612 0)
(13.6683 2.1743 0)
(9.60767 3.37301 0)
(-5.29187 3.00712 0)
(-28.1861 0.161516 0)
(-18.1881 -3.57063 0)
(24.3225 -3.3993 0)
(23.0396 0.881309 0)
(-1.8761 3.74875 0)
(-6.41891 3.38691 0)
(-28.837 -0.0356613 0)
(-28.0358 -4.62375 0)
(28.0908 -4.49824 0)
(34.7561 -0.43933 0)
(11.8376 2.67613 0)
(5.79875 3.72153 0)
(-10.0234 2.47421 0)
(-32.0556 -1.7103 0)
(-1.43419 -4.75228 0)
(38.6519 -2.56619 0)
(21.6681 1.55637 0)
(4.34611 3.71224 0)
(-1.17831 3.53436 0)
(-28.1072 0.369425 0)
(-27.8476 -3.95597 0)
(-1.94864 15.333 0)
(-72.1421 -0.0140134 0)
(-22.0158 -10.8183 0)
(9.14271 -5.21307 0)
(-2.53044 -1.75693 0)
(8.92933 -2.66344 0)
(14.2554 -0.610984 0)
(11.9808 2.51773 0)
(0.345514 4.63048 0)
(-7.03815 4.58407 0)
(-20.2989 1.19688 0)
(-25.6918 -6.33011 0)
(17.9276 -8.05026 0)
(32.2118 0.14511 0)
(4.98997 6.56225 0)
(-0.636297 7.77594 0)
(-24.2704 2.12337 0)
(-34.8787 -9.51272 0)
(24.2697 -10.1114 0)
(36.5418 -0.572031 0)
(9.71239 4.90832 0)
(2.30504 6.51128 0)
(-11.3981 6.1321 0)
(-30.8931 0.319045 0)
(-15.9117 -8.02777 0)
(28.4249 -7.12099 0)
(25.3787 2.27759 0)
(1.27437 7.32767 0)
(-3.32039 6.79481 0)
(-28.3012 0.773088 0)
(-31.1131 -9.58178 0)
(26.7555 -9.73336 0)
(35.6221 -0.226649 0)
(9.67975 5.70318 0)
(1.87109 7.1717 0)
(-13.4078 5.30937 0)
(-34.7867 -3.32832 0)
(-2.72447 -10.4543 0)
(40.0766 -5.14818 0)
(21.9794 3.83914 0)
(2.22384 7.25425 0)
(-3.74539 7.11405 0)
(-31.0094 1.33828 0)
(-29.359 -8.63075 0)
(6.78076 21.563 0)
(-59.909 1.25461 0)
(-20.1948 -15.1684 0)
(2.88388 -8.09285 0)
(-5.0006 -2.77321 0)
(4.41396 -3.72726 0)
(8.25312 -0.806689 0)
(5.97192 3.65571 0)
(-2.11289 6.44945 0)
(-4.5753 6.40477 0)
(-13.1557 1.74541 0)
(-19.8794 -9.26501 0)
(14.2851 -11.7901 0)
(23.7847 0.265071 0)
(1.7433 9.14896 0)
(3.49395 10.8306 0)
(-11.2694 3.83585 0)
(-28.5505 -12.8657 0)
(16.1447 -14.7009 0)
(25.7582 -0.428063 0)
(0.610469 7.69553 0)
(-2.86031 9.22869 0)
(-9.89759 8.24869 0)
(-23.3268 -0.264183 0)
(-10.3334 -12.1299 0)
(23.4466 -10.0924 0)
(16.893 3.43411 0)
(0.613379 10.0751 0)
(3.14282 9.69558 0)
(-16.3727 1.91007 0)
(-25.2187 -13.3374 0)
(19.4763 -14.1398 0)
(24.9636 0.0516021 0)
(1.66717 8.49272 0)
(-0.287924 10.0193 0)
(-8.24922 7.44651 0)
(-26.1798 -4.81006 0)
(-2.94547 -15.3072 0)
(30.4396 -7.26504 0)
(12.5765 5.96756 0)
(-2.08853 10.3079 0)
(-0.494683 9.99287 0)
(-21.6097 2.01202 0)
(-23.4367 -12.6473 0)
(14.4142 26.2439 0)
(-49.2365 3.20088 0)
(-17.9428 -17.6959 0)
(-2.30119 -10.7517 0)
(-7.48056 -4.15882 0)
(-0.373853 -4.53238 0)
(2.27797 -0.884819 0)
(0.583814 4.48578 0)
(-3.97935 7.5454 0)
(-2.67751 7.38375 0)
(-7.60716 1.85747 0)
(-14.5512 -11.3048 0)
(10.7082 -14.2586 0)
(16.678 0.246359 0)
(-0.904035 10.6355 0)
(5.74572 12.5636 0)
(-1.1216 5.30447 0)
(-22.0066 -14.3536 0)
(8.40307 -17.6456 0)
(16.9419 -0.286761 0)
(-4.96664 9.89135 0)
(-4.3534 11.1822 0)
(-7.68002 9.26623 0)
(-16.4462 -1.34953 0)
(-5.38347 -15.1321 0)
(18.398 -11.8788 0)
(9.94032 4.18013 0)
(-0.889114 11.6079 0)
(6.9402 11.5363 0)
(-7.20496 3.01261 0)
(-19.4133 -15.3828 0)
(12.5237 -17.0082 0)
(16.1938 0.306795 0)
(-3.97111 10.4867 0)
(-0.725875 11.8626 0)
(-4.16335 8.6426 0)
(-18.5129 -5.94975 0)
(-3.14078 -18.5099 0)
(21.6128 -8.61725 0)
(5.56745 7.56655 0)
(-5.04324 12.3628 0)
(2.85778 11.7109 0)
(-14.0069 2.34676 0)
(-17.8434 -15.2928 0)
(20.3242 29.2823 0)
(-38.825 5.68605 0)
(-14.8653 -18.4212 0)
(-5.83611 -12.8468 0)
(-9.7779 -5.70135 0)
(-4.73794 -5.08577 0)
(-2.9904 -0.906734 0)
(-3.79863 4.83383 0)
(-5.01295 7.8217 0)
(-0.985381 7.48341 0)
(-3.36594 1.58151 0)
(-9.91154 -12.4067 0)
(7.27558 -15.4161 0)
(10.5498 0.186385 0)
(-3.69388 11.0605 0)
(6.11291 12.9742 0)
(5.71898 6.27718 0)
(-15.5258 -13.9924 0)
(2.07535 -18.7909 0)
(9.76821 -0.343983 0)
(-7.74208 11.097 0)
(-3.26641 12.2346 0)
(-3.04609 9.38009 0)
(-10.0449 -2.60448 0)
(-1.64061 -16.8288 0)
(13.3086 -12.4552 0)
(4.03309 4.61111 0)
(-3.13897 12.0235 0)
(8.33899 12.1903 0)
(-0.748991 3.88345 0)
(-13.842 -15.7439 0)
(6.58172 -18.2408 0)
(9.0879 0.450675 0)
(-7.39746 11.4495 0)
(0.0272964 12.6478 0)
(0.261127 8.98493 0)
(-11.7665 -6.5776 0)
(-3.13144 -19.9408 0)
(13.8081 -9.19597 0)
(0.108378 8.46471 0)
(-6.39267 13.2744 0)
(6.10308 12.2955 0)
(-7.71266 2.47389 0)
(-12.7191 -16.5193 0)
(23.3648 30.5022 0)
(-27.797 8.43327 0)
(-10.7495 -17.3912 0)
(-7.40776 -14.0209 0)
(-11.2245 -7.09646 0)
(-8.00892 -5.43121 0)
(-6.86094 -0.980839 0)
(-6.71638 4.57795 0)
(-5.21892 7.26699 0)
(0.214386 6.76737 0)
(-0.361161 1.01319 0)
(-6.0371 -12.5662 0)
(4.02401 -15.2853 0)
(5.33535 0.175235 0)
(-5.82539 10.543 0)
(5.00292 12.1594 0)
(9.16911 6.55189 0)
(-9.53792 -12.1096 0)
(-1.96725 -18.1368 0)
(4.0708 -0.710617 0)
(-8.45901 11.1076 0)
(-1.21265 12.1794 0)
(2.59318 8.75947 0)
(-4.55132 -3.55625 0)
(0.720158 -17.0324 0)
(8.34069 -11.8597 0)
(-0.800323 4.74333 0)
(-4.70082 11.4834 0)
(7.72992 11.685 0)
(3.28037 4.28674 0)
(-8.60606 -14.6312 0)
(2.12975 -17.8231 0)
(3.57517 0.376774 0)
(-8.59019 11.2702 0)
(1.03129 12.3049 0)
(4.57725 8.57372 0)
(-6.08335 -6.48061 0)
(-2.76067 -19.5752 0)
(7.17073 -9.00897 0)
(-3.97353 8.52123 0)
(-6.06132 12.9904 0)
(7.74798 11.8837 0)
(-2.7164 2.42685 0)
(-8.12272 -16.3242 0)
(23.4746 29.7025 0)
(-15.3274 10.9637 0)
(-5.73012 -14.6809 0)
(-6.8699 -13.9257 0)
(-11.1122 -8.02915 0)
(-9.64041 -5.59628 0)
(-8.88067 -1.22599 0)
(-7.91494 3.73427 0)
(-4.72398 6.02341 0)
(0.885629 5.47214 0)
(1.4875 0.190576 0)
(-2.99986 -11.8335 0)
(1.0304 -13.964 0)
(1.05885 0.114516 0)
(-6.71126 9.31254 0)
(3.34082 10.3946 0)
(9.84648 6.13209 0)
(-4.49164 -9.38535 0)
(-3.49548 -15.9275 0)
(-0.127555 -1.21043 0)
(-8.02988 9.97166 0)
(0.471138 10.9808 0)
(6.5327 7.60538 0)
(-0.442956 -3.92292 0)
(1.82647 -15.7274 0)
(3.75739 -10.2788 0)
(-4.36112 4.53638 0)
(-4.96915 10.1477 0)
(6.14729 10.211 0)
(5.44687 4.12 0)
(-3.93585 -12.4248 0)
(-0.674079 -15.9184 0)
(-0.417084 0.0731919 0)
(-8.24085 10.0761 0)
(1.5878 10.9157 0)
(7.36754 7.60802 0)
(-1.71013 -5.7343 0)
(-1.99027 -17.5319 0)
(1.92916 -8.11638 0)
(-6.65425 7.76967 0)
(-4.86598 11.634 0)
(7.57923 10.6459 0)
(1.03928 2.15396 0)
(-4.15433 -14.8142 0)
(20.2355 26.7507 0)
(-2.74754 12.6569 0)
(-0.112782 -10.5183 0)
(-4.2875 -12.3755 0)
(-9.06731 -8.19701 0)
(-9.30175 -5.55223 0)
(-8.94771 -1.63086 0)
(-7.51015 2.45177 0)
(-3.74123 4.33378 0)
(1.21679 3.84823 0)
(2.34762 -0.7456 0)
(-0.925468 -10.3227 0)
(-1.43899 -11.7073 0)
(-2.23905 -0.100127 0)
(-6.56193 7.56693 0)
(1.799 8.08232 0)
(8.56731 5.16511 0)
(-0.845636 -6.54127 0)
(-3.188 -12.6179 0)
(-2.78048 -1.51761 0)
(-6.97608 7.98851 0)
(1.13337 8.89287 0)
(7.55819 6.08496 0)
(2.19718 -3.68794 0)
(1.93563 -13.1376 0)
(0.149714 -8.07572 0)
(-6.19924 3.90273 0)
(-4.29105 8.2437 0)
(4.57596 8.15486 0)
(6.19834 3.41322 0)
(-0.380746 -9.59797 0)
(-1.99343 -12.8901 0)
(-2.94967 -0.325167 0)
(-7.10032 8.18866 0)
(1.51172 8.80441 0)
(7.92333 6.21017 0)
(1.28813 -4.58898 0)
(-1.02571 -14.1865 0)
(-1.55664 -6.60952 0)
(-7.71522 6.34024 0)
(-3.61363 9.54075 0)
(6.43377 8.80622 0)
(3.62027 1.61335 0)
(-1.06825 -12.2661 0)
(14.1843 22.0449 0)
(6.5115 12.8971 0)
(5.01895 -5.64159 0)
(-0.423242 -9.49682 0)
(-5.41593 -7.40748 0)
(-7.12727 -5.19342 0)
(-7.3433 -2.06834 0)
(-5.96202 1.00782 0)
(-2.58206 2.4987 0)
(1.30669 2.12855 0)
(2.44875 -1.52632 0)
(0.0888309 -8.26533 0)
(-2.89445 -8.93963 0)
(-4.25007 -0.417441 0)
(-5.74529 5.46521 0)
(0.671483 5.67742 0)
(6.30685 3.82955 0)
(1.18451 -4.09151 0)
(-2.19735 -8.85215 0)
(-3.79676 -1.45433 0)
(-5.39724 5.64952 0)
(1.07554 6.39633 0)
(6.53623 4.35547 0)
(3.49192 -3.02182 0)
(1.41383 -9.75389 0)
(-2.02789 -5.69062 0)
(-6.18434 2.90313 0)
(-3.26104 6.05341 0)
(3.29198 5.92812 0)
(5.72575 2.38041 0)
(1.58385 -6.65481 0)
(-2.17913 -9.28783 0)
(-4.06262 -0.581921 0)
(-5.59507 5.93542 0)
(1.1097 6.39638 0)
(6.74854 4.52798 0)
(2.88954 -3.29461 0)
(-0.320949 -10.1925 0)
(-3.17876 -4.74165 0)
(-7.08833 4.55606 0)
(-2.55943 7.10061 0)
(5.07766 6.59703 0)
(4.84206 0.936366 0)
(0.798188 -9.09599 0)
(7.84038 16.6452 0)
(9.74294 11.5515 0)
(7.88178 -1.3158 0)
(3.28506 -5.92878 0)
(-1.30344 -5.72735 0)
(-3.8814 -4.41022 0)
(-4.72099 -2.31936 0)
(-3.87151 -0.256605 0)
(-1.45695 0.828094 0)
(1.2503 0.583058 0)
(2.13054 -1.96838 0)
(0.317824 -6.03442 0)
(-3.15014 -6.16759 0)
(-4.68232 -0.722825 0)
(-4.5004 3.30171 0)
(-0.0450171 3.52166 0)
(3.87209 2.39472 0)
(1.74033 -2.29949 0)
(-1.30339 -5.35039 0)
(-3.43541 -1.10651 0)
(-3.58654 3.42687 0)
(0.823552 4.02892 0)
(4.72013 2.68213 0)
(3.49365 -2.14829 0)
(0.760203 -6.27245 0)
(-2.68912 -3.54501 0)
(-4.87393 1.819 0)
(-2.26325 3.91651 0)
(2.16434 3.81234 0)
(4.34931 1.37581 0)
(2.03426 -4.06504 0)
(-1.70181 -5.79462 0)
(-3.83863 -0.60468 0)
(-3.90829 3.7148 0)
(0.710963 4.11017 0)
(4.77801 2.85979 0)
(3.13743 -2.08996 0)
(0.0141584 -6.31135 0)
(-3.24931 -2.90025 0)
(-5.29235 2.86141 0)
(-1.65963 4.67191 0)
(3.6724 4.31347 0)
(4.59904 0.380309 0)
(1.48351 -5.87484 0)
(3.875 11.6482 0)
(8.24951 9.22341 0)
(7.88511 1.50975 0)
(5.16569 -2.66424 0)
(1.74803 -3.60266 0)
(-0.755065 -3.25622 0)
(-1.93489 -2.22253 0)
(-1.73373 -1.07979 0)
(-0.382157 -0.40256 0)
(1.2239 -0.563287 0)
(1.7069 -2.03559 0)
(0.279045 -4.03235 0)
(-2.46388 -3.86981 0)
(-3.754 -0.905357 0)
(-3.11903 1.48671 0)
(-0.434271 1.79279 0)
(1.88267 1.18219 0)
(1.30699 -1.16809 0)
(-0.721028 -2.72067 0)
(-2.34099 -0.703408 0)
(-2.01401 1.6894 0)
(0.565307 2.1563 0)
(2.88995 1.36032 0)
(2.55034 -1.28933 0)
(0.318772 -3.38553 0)
(-2.21139 -1.90891 0)
(-3.15809 0.929171 0)
(-1.4275 2.17147 0)
(1.20624 2.08688 0)
(2.67816 0.63375 0)
(1.52524 -2.13175 0)
(-1.1041 -3.03511 0)
(-2.76951 -0.46568 0)
(-2.35514 1.92577 0)
(0.385424 2.26222 0)
(2.80185 1.51208 0)
(2.32645 -1.12206 0)
(0.0387171 -3.22163 0)
(-2.42023 -1.43676 0)
(-3.25155 1.55756 0)
(-0.936313 2.63314 0)
(2.30928 2.3675 0)
(3.31412 0.0619061 0)
(1.33503 -3.19164 0)
(2.10126 7.82819 0)
(5.15405 6.74943 0)
(5.89178 2.65557 0)
(4.84764 -0.38711 0)
(2.9162 -1.67314 0)
(1.18895 -2.02414 0)
(0.171331 -1.8347 0)
(0.0171188 -1.43726 0)
(0.549668 -1.14083 0)
(1.23612 -1.21582 0)
(1.30792 -1.82553 0)
(0.284598 -2.52311 0)
(-1.41954 -2.2798 0)
(-2.30511 -0.918411 0)
(-1.90104 0.295654 0)
(-0.537822 0.603147 0)
(0.650281 0.358657 0)
(0.617294 -0.571856 0)
(-0.392687 -1.16696 0)
(-1.24904 -0.412013 0)
(-0.965136 0.601922 0)
(0.312432 0.900435 0)
(1.46605 0.528134 0)
(1.38572 -0.635858 0)
(0.0907278 -1.47774 0)
(-1.33344 -0.854404 0)
(-1.71404 0.369291 0)
(-0.799917 0.983192 0)
(0.542874 0.927789 0)
(1.31951 0.218169 0)
(0.795821 -0.922485 0)
(-0.620746 -1.29052 0)
(-1.56739 -0.287598 0)
(-1.2401 0.772695 0)
(0.12444 1.00844 0)
(1.31596 0.649903 0)
(1.21581 -0.460547 0)
(-0.0449498 -1.25477 0)
(-1.39189 -0.509935 0)
(-1.66074 0.730543 0)
(-0.453247 1.21973 0)
(1.21782 1.03631 0)
(1.83872 -0.0489708 0)
(0.836566 -1.39148 0)
(1.21818 5.35896 0)
(2.68603 4.77943 0)
(3.54125 2.66197 0)
(3.37241 0.778927 0)
(2.57385 -0.383522 0)
(1.72349 -1.05441 0)
(1.12625 -1.36904 0)
(0.910065 -1.45151 0)
(0.992939 -1.42932 0)
(1.11367 -1.40985 0)
(0.936031 -1.49502 0)
(0.295352 -1.56031 0)
(-0.573537 -1.34423 0)
(-1.0809 -0.811843 0)
(-0.968821 -0.298128 0)
(-0.413577 -0.0755436 0)
(0.104651 -0.0976585 0)
(0.168289 -0.332213 0)
(-0.201236 -0.47456 0)
(-0.529776 -0.262152 0)
(-0.399047 0.0654849 0)
(0.113815 0.217118 0)
(0.573728 0.120565 0)
(0.544914 -0.238319 0)
(-0.0164364 -0.48855 0)
(-0.637314 -0.294473 0)
(-0.786313 0.102235 0)
(-0.394458 0.325889 0)
(0.177499 0.300693 0)
(0.496601 0.0496077 0)
(0.28184 -0.304833 0)
(-0.308491 -0.422316 0)
(-0.719598 -0.148297 0)
(-0.584635 0.196675 0)
(-0.0332783 0.323055 0)
(0.450661 0.222298 0)
(0.431438 -0.0992512 0)
(-0.0834484 -0.296393 0)
(-0.621456 -0.0615151 0)
(-0.688657 0.299082 0)
(-0.176592 0.427221 0)
(0.528574 0.326534 0)
(0.785213 -0.0482058 0)
(0.38782 -0.44265 0)
(0.719417 3.79827 0)
(1.4839 3.50071 0)
(2.0204 2.32391 0)
(2.12504 1.16752 0)
(1.88225 0.239451 0)
(1.50702 -0.466082 0)
(1.19617 -0.967546 0)
(0.999143 -1.25184 0)
(0.887215 -1.34198 0)
(0.770719 -1.28908 0)
(0.555798 -1.17461 0)
(0.224111 -1.03635 0)
(-0.135828 -0.875019 0)
(-0.364514 -0.687759 0)
(-0.370554 -0.510218 0)
(-0.209386 -0.383001 0)
(-0.0426184 -0.306837 0)
(-0.00267795 -0.280503 0)
(-0.0915563 -0.261822 0)
(-0.176863 -0.210533 0)
(-0.138836 -0.132464 0)
(0.0110862 -0.0594038 0)
(0.145064 -0.0247057 0)
(0.12309 -0.0490564 0)
(-0.0594004 -0.0838215 0)
(-0.252665 -0.0511346 0)
(-0.299441 0.0102037 0)
(-0.169872 0.0474007 0)
(0.0217216 0.0405727 0)
(0.117854 -0.00242995 0)
(0.0451272 -0.0621603 0)
(-0.138536 -0.0929891 0)
(-0.274765 -0.0665014 0)
(-0.240801 -0.00869971 0)
(-0.0743104 0.0395771 0)
(0.0723852 0.0603699 0)
(0.0760485 0.0467465 0)
(-0.0570212 0.0465114 0)
(-0.19365 0.0920071 0)
(-0.194927 0.116948 0)
(-0.0288199 0.0877337 0)
(0.188609 0.0438173 0)
(0.249313 -0.0211854 0)
(0.134051 -0.0671506 0)
(0.449746 2.72555 0)
(1.00657 2.64218 0)
(1.37798 1.95487 0)
(1.49227 1.21886 0)
(1.43485 0.4981 0)
(1.2486 -0.132449 0)
(1.01124 -0.62826 0)
(0.794309 -0.949592 0)
(0.605739 -1.079 0)
(0.430954 -1.04691 0)
(0.262691 -0.923351 0)
(0.112293 -0.783565 0)
(-0.00939095 -0.675994 0)
(-0.085594 -0.603271 0)
(-0.104725 -0.541419 0)
(-0.0800765 -0.471136 0)
(-0.0464043 -0.381392 0)
(-0.0313671 -0.296216 0)
(-0.0370044 -0.236355 0)
(-0.0447803 -0.20528 0)
(-0.038414 -0.178039 0)
(-0.0174427 -0.126797 0)
(0.00150791 -0.0572573 0)
(-0.0053216 0.0013112 0)
(-0.0404528 0.029652 0)
(-0.0764977 0.0201895 0)
(-0.0795828 -0.0106855 0)
(-0.048085 -0.0333499 0)
(-0.0120384 -0.0336085 0)
(0.00259491 -0.0137242 0)
(-0.0125624 0.00353404 0)
(-0.0459117 -0.00371264 0)
(-0.0733665 -0.0296848 0)
(-0.0733783 -0.0484996 0)
(-0.0490769 -0.0370132 0)
(-0.0224643 0.0121666 0)
(-0.0123693 0.0728744 0)
(-0.0171007 0.112999 0)
(-0.019225 0.106458 0)
(-0.00310102 0.054526 0)
(0.0290573 -0.00461777 0)
(0.0594397 -0.0224583 0)
(0.0553407 0.00441516 0)
(0.0344839 0.0370826 0)
(0.281838 1.92408 0)
(0.711851 1.96946 0)
(1.03279 1.58153 0)
(1.17619 1.11305 0)
(1.18043 0.606613 0)
(1.08247 0.10384 0)
(0.905771 -0.316719 0)
(0.689889 -0.610909 0)
(0.482899 -0.759634 0)
(0.305651 -0.782693 0)
(0.170213 -0.726383 0)
(0.0791688 -0.649326 0)
(0.0234977 -0.58928 0)
(-0.00878677 -0.551344 0)
(-0.0267225 -0.516984 0)
(-0.0349416 -0.466348 0)
(-0.0355397 -0.394294 0)
(-0.0299661 -0.316935 0)
(-0.0209857 -0.254447 0)
(-0.0135152 -0.212597 0)
(-0.0114138 -0.176459 0)
(-0.0134393 -0.127518 0)
(-0.0141681 -0.062972 0)
(-0.00942022 -0.00524076 0)
(-0.000582779 0.0223814 0)
(0.00880123 0.0129621 0)
(0.0163842 -0.0153442 0)
(0.0193138 -0.0393031 0)
(0.0173745 -0.0373225 0)
(0.0141755 -0.0140576 0)
(0.0115056 0.00721415 0)
(0.00925227 0.00592312 0)
(0.00638539 -0.0170199 0)
(0.000949311 -0.037884 0)
(-0.00582133 -0.0333097 0)
(-0.00748001 0.00302778 0)
(-0.00053577 0.0506161 0)
(0.014283 0.0804627 0)
(0.0321978 0.0740127 0)
(0.0427866 0.0373249 0)
(0.0400587 0.000253539 0)
(0.0291085 -0.00299331 0)
(0.0133937 0.0268026 0)
(0.00860478 0.051622 0)
(0.168366 1.32529 0)
(0.465086 1.41439 0)
(0.719963 1.20873 0)
(0.878359 0.929975 0)
(0.939297 0.601519 0)
(0.911431 0.258161 0)
(0.814715 -0.0593832 0)
(0.670756 -0.303745 0)
(0.509693 -0.458541 0)
(0.361386 -0.530218 0)
(0.242162 -0.544255 0)
(0.155695 -0.531742 0)
(0.0961848 -0.51354 0)
(0.0548042 -0.49547 0)
(0.0243346 -0.471424 0)
(0.00181418 -0.433352 0)
(-0.0125597 -0.380735 0)
(-0.017534 -0.321903 0)
(-0.0143492 -0.266781 0)
(-0.00901721 -0.21896 0)
(-0.00583726 -0.173728 0)
(-0.00352821 -0.125 0)
(0.00218033 -0.0740885 0)
(0.0137641 -0.0315803 0)
(0.0299005 -0.00927274 0)
(0.0451844 -0.00878916 0)
(0.0538699 -0.0200354 0)
(0.0544362 -0.0284639 0)
(0.0498433 -0.0245397 0)
(0.0454308 -0.0116459 0)
(0.0441259 -0.00092045 0)
(0.0444607 -0.000849575 0)
(0.0425518 -0.0101519 0)
(0.0360366 -0.0179886 0)
(0.0267217 -0.0127111 0)
(0.0199826 0.00724917 0)
(0.0207421 0.0322275 0)
(0.0290483 0.0491841 0)
(0.0385791 0.050139 0)
(0.0408959 0.0376065 0)
(0.0335586 0.0256162 0)
(0.0207659 0.0278013 0)
(0.00716299 0.0423094 0)
(0.00373884 0.0495487 0)
(0.0969396 0.894256 0)
(0.284015 0.979344 0)
(0.459066 0.873157 0)
(0.591039 0.716907 0)
(0.671579 0.520957 0)
(0.695163 0.304977 0)
(0.667698 0.0940767 0)
(0.601256 -0.0882616 0)
(0.511626 -0.225314 0)
(0.415884 -0.31677 0)
(0.326956 -0.370808 0)
(0.250676 -0.399682 0)
(0.187539 -0.412848 0)
(0.135382 -0.414112 0)
(0.0924486 -0.403546 0)
(0.0580272 -0.380186 0)
(0.0321475 -0.345708 0)
(0.0151049 -0.304399 0)
(0.00581948 -0.260842 0)
(0.00189323 -0.217521 0)
(0.00146183 -0.174561 0)
(0.00440085 -0.132054 0)
(0.0114892 -0.0924835 0)
(0.0225777 -0.0606548 0)
(0.0356415 -0.0401116 0)
(0.0472879 -0.0308139 0)
(0.0545938 -0.0276376 0)
(0.0568662 -0.0245346 0)
(0.055834 -0.0180556 0)
(0.0541231 -0.00954812 0)
(0.0530819 -0.0029553 0)
(0.0518684 -0.000896651 0)
(0.0486076 -0.00204282 0)
(0.0428124 -0.00194524 0)
(0.0358975 0.00336455 0)
(0.0299862 0.0142726 0)
(0.0271358 0.0272446 0)
(0.0276019 0.0374938 0)
(0.0287643 0.0422859 0)
(0.0271606 0.0427961 0)
(0.0215241 0.0434644 0)
(0.0137619 0.0475705 0)
(0.00539133 0.0546029 0)
(0.00304412 0.0526805 0)
(0.0556881 0.592662 0)
(0.170157 0.658379 0)
(0.280746 0.602334 0)
(0.372823 0.516736 0)
(0.441079 0.405626 0)
(0.479355 0.278304 0)
(0.487721 0.147114 0)
(0.469961 0.0241291 0)
(0.431778 -0.0808386 0)
(0.381971 -0.163929 0)
(0.328636 -0.226256 0)
(0.275648 -0.270494 0)
(0.225222 -0.299474 0)
(0.17858 -0.314923 0)
(0.136547 -0.317668 0)
(0.0999336 -0.308936 0)
(0.0694949 -0.29054 0)
(0.0456143 -0.265077 0)
(0.0280747 -0.235119 0)
(0.0162498 -0.202682 0)
(0.00948112 -0.16923 0)
(0.0072784 -0.136318 0)
(0.00912832 -0.105997 0)
(0.014052 -0.0804206 0)
(0.0204471 -0.0607995 0)
(0.0264855 -0.0466533 0)
(0.0308416 -0.0360185 0)
(0.0331801 -0.0267276 0)
(0.0340222 -0.0176846 0)
(0.0341065 -0.00928689 0)
(0.033749 -0.00256616 0)
(0.0327095 0.00206295 0)
(0.0304659 0.00546064 0)
(0.0269316 0.00932778 0)
(0.0227559 0.0148765 0)
(0.0190545 0.0221391 0)
(0.0164146 0.030067 0)
(0.0146309 0.037375 0)
(0.0131627 0.043314 0)
(0.0112263 0.0480932 0)
(0.00847462 0.0525592 0)
(0.00559265 0.0572233 0)
(0.00205672 0.0615741 0)
(0.00183526 0.0560593 0)
(0.0321921 0.38406 0)
(0.102011 0.43 0)
(0.169537 0.399444 0)
(0.228654 0.35247 0)
(0.276545 0.290737 0)
(0.309416 0.2183 0)
(0.326403 0.140612 0)
(0.32837 0.0634828 0)
(0.318287 -0.00870275 0)
(0.297492 -0.0716612 0)
(0.268751 -0.124242 0)
(0.236547 -0.166116 0)
(0.202696 -0.197325 0)
(0.168579 -0.218105 0)
(0.135541 -0.228893 0)
(0.104799 -0.230513 0)
(0.0773535 -0.22424 0)
(0.0538842 -0.211644 0)
(0.0346286 -0.194333 0)
(0.0195988 -0.173795 0)
(0.00868431 -0.151411 0)
(0.00155594 -0.128545 0)
(-0.00228455 -0.10654 0)
(-0.00356119 -0.0865231 0)
(-0.00318858 -0.0691098 0)
(-0.002078 -0.0542531 0)
(-0.000892506 -0.0414129 0)
(7.35465e-05 -0.0299834 0)
(0.000823657 -0.0196653 0)
(0.0014451 -0.0105257 0)
(0.00192591 -0.00273184 0)
(0.00194453 0.00380251 0)
(0.00130084 0.00955093 0)
(0.000152596 0.0151226 0)
(-0.00122888 0.0209769 0)
(-0.00241974 0.0271739 0)
(-0.00299454 0.0333799 0)
(-0.00308037 0.0393555 0)
(-0.00305187 0.0449094 0)
(-0.00294619 0.0500132 0)
(-0.00272324 0.0546766 0)
(-0.00207044 0.0587888 0)
(-0.00181226 0.061984 0)
(0.000139914 0.0554002 0)
(0.0185959 0.240265 0)
(0.0609741 0.270173 0)
(0.101446 0.253283 0)
(0.138068 0.22751 0)
(0.169344 0.193607 0)
(0.193115 0.153312 0)
(0.208753 0.108924 0)
(0.216135 0.0630411 0)
(0.215791 0.0181297 0)
(0.209086 -0.0241033 0)
(0.196599 -0.0616154 0)
(0.179148 -0.0935661 0)
(0.158632 -0.119323 0)
(0.136337 -0.138547 0)
(0.113338 -0.151213 0)
(0.0906555 -0.15762 0)
(0.0691697 -0.158368 0)
(0.0495508 -0.154269 0)
(0.0322456 -0.146247 0)
(0.0175058 -0.135215 0)
(0.00541401 -0.122102 0)
(-0.00409904 -0.107798 0)
(-0.0112494 -0.0931201 0)
(-0.0163659 -0.0787459 0)
(-0.0198473 -0.0651302 0)
(-0.0221039 -0.0524811 0)
(-0.0234927 -0.0408177 0)
(-0.0242687 -0.0300906 0)
(-0.0244893 -0.0202799 0)
(-0.0242995 -0.0114109 0)
(-0.0239794 -0.00349041 0)
(-0.0235758 0.00356904 0)
(-0.0230579 0.00994922 0)
(-0.022443 0.0158828 0)
(-0.021733 0.0215432 0)
(-0.0209236 0.0270453 0)
(-0.0198583 0.0323456 0)
(-0.0183413 0.0373266 0)
(-0.0163482 0.0419724 0)
(-0.0139602 0.0462292 0)
(-0.0112395 0.0499997 0)
(-0.00805321 0.053149 0)
(-0.00489931 0.05546 0)
(-0.00128237 0.0491296 0)
(0.0115252 0.144101 0)
(0.0389992 0.162253 0)
(0.0647835 0.152851 0)
(0.0887347 0.138668 0)
(0.109984 0.120085 0)
(0.127227 0.0978748 0)
(0.140042 0.0730364 0)
(0.148143 0.0467355 0)
(0.151557 0.0201775 0)
(0.150668 -0.00553392 0)
(0.145883 -0.0295061 0)
(0.137543 -0.0508055 0)
(0.126277 -0.0688555 0)
(0.112891 -0.0832698 0)
(0.0981423 -0.0938588 0)
(0.0827292 -0.100637 0)
(0.0672841 -0.103804 0)
(0.052347 -0.103704 0)
(0.0383421 -0.100783 0)
(0.0255728 -0.0955401 0)
(0.0142309 -0.0884959 0)
(0.00440865 -0.0801668 0)
(-0.00389652 -0.0710363 0)
(-0.0107649 -0.0615268 0)
(-0.0163229 -0.0519742 0)
(-0.0207178 -0.04262 0)
(-0.0241025 -0.0336258 0)
(-0.0266115 -0.0250946 0)
(-0.0283544 -0.0170991 0)
(-0.0294633 -0.0096934 0)
(-0.0300724 -0.00290129 0)
(-0.0302113 0.00329186 0)
(-0.0298916 0.00894535 0)
(-0.0291532 0.0141396 0)
(-0.0280013 0.018946 0)
(-0.0266248 0.023406 0)
(-0.0250437 0.0275696 0)
(-0.0229528 0.0314115 0)
(-0.0203 0.0349293 0)
(-0.0172096 0.0380698 0)
(-0.0137314 0.0407654 0)
(-0.0098154 0.0429366 0)
(-0.00572939 0.0444746 0)
(-0.00182724 0.0391863 0)
(0.00828918 0.0832121 0)
(0.0288311 0.0935437 0)
(0.0478265 0.0881538 0)
(0.0658398 0.0801189 0)
(0.0822636 0.0696451 0)
(0.0961995 0.0571089 0)
(0.107375 0.0429945 0)
(0.115549 0.0278783 0)
(0.120634 0.0123799 0)
(0.12268 -0.00288393 0)
(0.121874 -0.0173604 0)
(0.118415 -0.0305347 0)
(0.112569 -0.0420003 0)
(0.104789 -0.0514603 0)
(0.0955425 -0.0587346 0)
(0.0852762 -0.063759 0)
(0.0744179 -0.066577 0)
(0.063359 -0.0673245 0)
(0.052438 -0.0662092 0)
(0.0419299 -0.0634876 0)
(0.0320465 -0.059445 0)
(0.0229402 -0.0543764 0)
(0.014707 -0.0485703 0)
(0.00738994 -0.0422937 0)
(0.000991084 -0.0357782 0)
(-0.00451824 -0.0292148 0)
(-0.00917159 -0.0227548 0)
(-0.0130166 -0.0165143 0)
(-0.0161226 -0.010581 0)
(-0.0185462 -0.00501663 0)
(-0.020324 0.000140456 0)
(-0.0214943 0.00487973 0)
(-0.022108 0.00921005 0)
(-0.0222628 0.0131625 0)
(-0.0219649 0.0167636 0)
(-0.0211538 0.0200192 0)
(-0.0199459 0.0230016 0)
(-0.0183732 0.025713 0)
(-0.016373 0.028117 0)
(-0.0139594 0.0302012 0)
(-0.0111621 0.031943 0)
(-0.00798632 0.033306 0)
(-0.0045862 0.0342411 0)
(-0.00157982 0.0300562 0)
(0.00661321 0.043361 0)
(0.0235311 0.0484806 0)
(0.0388824 0.04535 0)
(0.0536877 0.0407582 0)
(0.0674926 0.0348164 0)
(0.0795315 0.0277154 0)
(0.0896419 0.0197171 0)
(0.0976545 0.0111308 0)
(0.103398 0.00226351 0)
(0.106831 -0.00650367 0)
(0.108026 -0.0148334 0)
(0.107127 -0.0224495 0)
(0.104313 -0.0290938 0)
(0.0998268 -0.0345757 0)
(0.0939529 -0.0387698 0)
(0.0869869 -0.0416158 0)
(0.0792251 -0.0431169 0)
(0.0709535 -0.0433328 0)
(0.0624339 -0.0423702 0)
(0.0538956 -0.0403705 0)
(0.0455328 -0.0374986 0)
(0.0375057 -0.0339324 0)
(0.0299389 -0.0298495 0)
(0.0229214 -0.0254214 0)
(0.0165125 -0.0208047 0)
(0.0107457 -0.0161365 0)
(0.00564072 -0.011527 0)
(0.00119402 -0.0070589 0)
(-0.00261089 -0.00281385 0)
(-0.00579747 0.00115785 0)
(-0.00838411 0.00482541 0)
(-0.010393 0.00816868 0)
(-0.0118562 0.011197 0)
(-0.0128309 0.013928 0)
(-0.0133237 0.0163689 0)
(-0.013328 0.0185498 0)
(-0.012922 0.0204742 0)
(-0.0121437 0.0221844 0)
(-0.0109839 0.0236692 0)
(-0.00946034 0.0249262 0)
(-0.00762245 0.0259473 0)
(-0.00547597 0.0267212 0)
(-0.0031089 0.0272311 0)
(-0.00114202 0.0238203 0)
(0.00531135 0.0154407 0)
(0.0194412 0.0169211 0)
(0.0319217 0.0151956 0)
(0.0440776 0.0127406 0)
(0.0555667 0.00960204 0)
(0.0658253 0.00586882 0)
(0.0746381 0.0016784 0)
(0.0817034 -0.00279147 0)
(0.0870208 -0.00730152 0)
(0.0906227 -0.0117155 0)
(0.0924911 -0.0158545 0)
(0.0926905 -0.0195528 0)
(0.0913126 -0.0226665 0)
(0.088511 -0.0250864 0)
(0.0844779 -0.0267407 0)
(0.0794194 -0.027596 0)
(0.0735502 -0.027655 0)
(0.0670872 -0.0269535 0)
(0.0602386 -0.0255582 0)
(0.0531947 -0.0235557 0)
(0.0461227 -0.0210463 0)
(0.0391769 -0.0181533 0)
(0.0324868 -0.0149753 0)
(0.0261486 -0.0116233 0)
(0.0202512 -0.00820065 0)
(0.0148402 -0.00479582 0)
(0.00995049 -0.00149014 0)
(0.00560684 0.00163996 0)
(0.00181923 0.00456559 0)
(-0.00140561 0.00725601 0)
(-0.00410472 0.00969056 0)
(-0.00627644 0.0118577 0)
(-0.00791931 0.013767 0)
(-0.00910084 0.0154282 0)
(-0.00984287 0.0168648 0)
(-0.0101624 0.0180993 0)
(-0.0100848 0.0191513 0)
(-0.00960511 0.020041 0)
(-0.00874843 0.0207847 0)
(-0.00756655 0.0214008 0)
(-0.00611159 0.0218751 0)
(-0.00438326 0.0222147 0)
(-0.00246002 0.0224223 0)
(-0.000919461 0.0195572 0)
(0.0039153 -0.00371338 0)
(0.0149755 -0.00465665 0)
(0.0240595 -0.00547533 0)
(0.0330924 -0.00654053 0)
(0.0417598 -0.00785253 0)
(0.0494391 -0.00937208 0)
(0.0560055 -0.0110284 0)
(0.061387 -0.0127229 0)
(0.0654329 -0.0143247 0)
(0.0680501 -0.0157817 0)
(0.0692822 -0.0170204 0)
(0.0691365 -0.0179551 0)
(0.0676893 -0.0185236 0)
(0.0650647 -0.018682 0)
(0.0614117 -0.0184047 0)
(0.0568919 -0.0176879 0)
(0.0516767 -0.0165459 0)
(0.0459424 -0.0150103 0)
(0.0398755 -0.0131452 0)
(0.0336601 -0.0110132 0)
(0.0274317 -0.00865732 0)
(0.0213522 -0.0061347 0)
(0.0155657 -0.00354326 0)
(0.0101308 -0.000950855 0)
(0.00508977 0.00158406 0)
(0.000513956 0.00400982 0)
(-0.00355151 0.00627697 0)
(-0.00707882 0.00834035 0)
(-0.0100483 0.0101898 0)
(-0.0124662 0.0118141 0)
(-0.0143269 0.013209 0)
(-0.0156551 0.0143852 0)
(-0.0164851 0.015347 0)
(-0.0168433 0.016107 0)
(-0.0167508 0.0167019 0)
(-0.0162346 0.0171486 0)
(-0.0153251 0.0174712 0)
(-0.0140474 0.0176941 0)
(-0.0124326 0.0178407 0)
(-0.0105512 0.0179308 0)
(-0.00841451 0.0179791 0)
(-0.00597612 0.0179886 0)
(-0.00335588 0.0179649 0)
(-0.00116354 0.0156349 0)
(0.0022037 -0.0153088 0)
(0.00959125 -0.0176269 0)
(0.0146741 -0.0178819 0)
(0.019966 -0.0180401 0)
(0.025081 -0.0181321 0)
(0.0294115 -0.0181455 0)
(0.0328478 -0.018047 0)
(0.0352981 -0.0178063 0)
(0.0366852 -0.0174437 0)
(0.0369529 -0.0168894 0)
(0.0360903 -0.0161237 0)
(0.0341215 -0.0151425 0)
(0.0311319 -0.0139493 0)
(0.0272419 -0.0125529 0)
(0.022591 -0.0109656 0)
(0.0173267 -0.00920489 0)
(0.011596 -0.00729684 0)
(0.00553512 -0.00526851 0)
(-0.000668616 -0.00319306 0)
(-0.00676209 -0.00105307 0)
(-0.0125672 0.00106674 0)
(-0.0180533 0.00313658 0)
(-0.0231608 0.00509944 0)
(-0.0277606 0.00691923 0)
(-0.0317768 0.00856781 0)
(-0.0351574 0.0100213 0)
(-0.0378657 0.0112669 0)
(-0.0398797 0.0123096 0)
(-0.041196 0.013133 0)
(-0.0418417 0.0137452 0)
(-0.041852 0.0141612 0)
(-0.0412476 0.0144009 0)
(-0.0400565 0.0144834 0)
(-0.0383263 0.0144311 0)
(-0.0361081 0.0142713 0)
(-0.0334479 0.0140291 0)
(-0.0303887 0.0137301 0)
(-0.0269754 0.0134018 0)
(-0.0232589 0.0130678 0)
(-0.0192999 0.0127411 0)
(-0.0151335 0.0124561 0)
(-0.0107076 0.0122058 0)
(-0.00608362 0.0119967 0)
(-0.00198113 0.0103969 0)
(0.000235234 -0.0201477 0)
(0.00324962 -0.0229405 0)
(0.00360593 -0.0228782 0)
(0.00444553 -0.0224443 0)
(0.00519787 -0.0216984 0)
(0.00527234 -0.0206634 0)
(0.00460003 -0.0193569 0)
(0.00311146 -0.0178056 0)
(0.00071914 -0.0160458 0)
(-0.00260871 -0.0141003 0)
(-0.00678879 -0.0119985 0)
(-0.0117198 -0.00978475 0)
(-0.0173094 -0.00750094 0)
(-0.0234524 -0.00518903 0)
(-0.0299983 -0.00288532 0)
(-0.0367884 -0.000621242 0)
(-0.0436936 0.00156795 0)
(-0.0505666 0.00363734 0)
(-0.0571824 0.00563216 0)
(-0.0634345 0.00746655 0)
(-0.0692713 0.0090912 0)
(-0.0745441 0.010473 0)
(-0.079144 0.0116167 0)
(-0.0829788 0.0125091 0)
(-0.0859747 0.0131413 0)
(-0.0880811 0.0135151 0)
(-0.0892653 0.0136397 0)
(-0.0895145 0.0135323 0)
(-0.0888356 0.0132123 0)
(-0.0872388 0.0127074 0)
(-0.0847519 0.0120495 0)
(-0.0814245 0.0112718 0)
(-0.0773185 0.0104102 0)
(-0.0725109 0.00950091 0)
(-0.067086 0.00857555 0)
(-0.0611229 0.00766325 0)
(-0.0546937 0.00679127 0)
(-0.0478869 0.00598381 0)
(-0.0407995 0.00525914 0)
(-0.0335054 0.00462698 0)
(-0.0260396 0.00409095 0)
(-0.0183394 0.0036398 0)
(-0.0104637 0.00327953 0)
(-0.00332162 0.00270963 0)
(-0.00199945 -0.0190237 0)