/*--------------------------------*- C++ -*----------------------------------*\
  =========                 |
  \\      /  F ield         | OpenFOAM: The Open Source CFD Toolbox
   \\    /   O peration     | Website:  https://openfoam.org
    \\  /    A nd           | Version:  7
     \\/     M anipulation  |
\*---------------------------------------------------------------------------*/
FoamFile
{
    version     2.0;
    format      ascii;
    class       volVectorField;
    location    "8.7";
    object      U;
}
// * * * * * * * * * * * * * * * * * * * * * * * * * * * * * * * * * * * * * //

dimensions      [0 1 -1 0 0 0 0];

internalField   nonuniform List<vector> 
900
(
(9.24567e-05 -9.11894e-05 0)
(9.52131e-05 -6.14474e-06 0)
(-0.000244779 0.000101992 0)
(-0.000864593 0.00018547 0)
(-0.00168589 0.000238505 0)
(-0.00263808 0.000267446 0)
(-0.00366205 0.000280353 0)
(-0.00471353 0.000283081 0)
(-0.00575877 0.000278624 0)
(-0.0067685 0.000267651 0)
(-0.00771329 0.000249232 0)
(-0.00856047 0.000221546 0)
(-0.00927297 0.000182559 0)
(-0.00981004 0.000130696 0)
(-0.0101299 6.55199e-05 0)
(-0.0101939 -1.16879e-05 0)
(-0.00997224 -9.80475e-05 0)
(-0.00945004 -0.000187719 0)
(-0.00863394 -0.000273011 0)
(-0.0075562 -0.000344954 0)
(-0.00627631 -0.000394446 0)
(-0.0048787 -0.000413777 0)
(-0.00346592 -0.000398155 0)
(-0.00214806 -0.000346888 0)
(-0.00102897 -0.000263875 0)
(-0.000189775 -0.000158332 0)
(0.000310226 -4.65313e-05 0)
(0.000463536 6.19509e-05 0)
(0.000333021 0.000129517 0)
(0.000103881 0.000104221 0)
(9.389e-06 -9.87095e-05 0)
(-0.000396405 0.000390767 0)
(-0.00154795 0.000934735 0)
(-0.00327619 0.00137354 0)
(-0.00544642 0.00167917 0)
(-0.00792065 0.00186577 0)
(-0.0105709 0.00195845 0)
(-0.01329 0.00197847 0)
(-0.0159872 0.00193825 0)
(-0.0185795 0.00184143 0)
(-0.0209847 0.00168517 0)
(-0.0231155 0.00146302 0)
(-0.0248789 0.00116832 0)
(-0.0261782 0.000797525 0)
(-0.026919 0.000353346 0)
(-0.0270194 -0.000152819 0)
(-0.0264204 -0.000698396 0)
(-0.0250986 -0.00124966 0)
(-0.0230796 -0.00176382 0)
(-0.0204448 -0.00219284 0)
(-0.0173331 -0.00248943 0)
(-0.0139356 -0.00261461 0)
(-0.0104811 -0.00254511 0)
(-0.0072137 -0.0022794 0)
(-0.00436431 -0.00184066 0)
(-0.00211964 -0.001278 0)
(-0.000596857 -0.000667647 0)
(0.000181968 -9.55734e-05 0)
(0.00032668 0.000301133 0)
(0.000131892 0.00032911 0)
(-0.000110055 0.000249532 0)
(-0.00101227 0.00155999 0)
(-0.00303167 0.00287426 0)
(-0.00582285 0.00393983 0)
(-0.00920005 0.00470362 0)
(-0.0129856 0.00518553 0)
(-0.0170082 0.00542941 0)
(-0.0211177 0.00547562 0)
(-0.0251815 0.00534922 0)
(-0.029075 0.00505839 0)
(-0.0326735 0.00459809 0)
(-0.0358473 0.0039564 0)
(-0.038461 0.00312209 0)
(-0.0403769 0.00209245 0)
(-0.0414641 0.000880603 0)
(-0.0416103 -0.000478793 0)
(-0.0407368 -0.00192512 0)
(-0.0388155 -0.00337256 0)
(-0.0358844 -0.00471472 0)
(-0.0320566 -0.00583407 0)
(-0.0275235 -0.00661621 0)
(-0.0225479 -0.00696722 0)
(-0.0174458 -0.0068313 0)
(-0.0125564 -0.00620514 0)
(-0.00820514 -0.00514613 0)
(-0.0046608 -0.00377361 0)
(-0.00209666 -0.00226526 0)
(-0.000555369 -0.000848581 0)
(7.87623e-05 0.000194728 0)
(9.70227e-05 0.000497392 0)
(-0.000222385 0.000942789 0)
(-0.00161212 0.0034438 0)
(-0.00448489 0.00574717 0)
(-0.00829081 0.00758286 0)
(-0.0127808 0.00889951 0)
(-0.017742 0.00973392 0)
(-0.0229719 0.0101522 0)
(-0.0282914 0.0102144 0)
(-0.0335392 0.0099574 0)
(-0.0385611 0.0093932 0)
(-0.0432019 0.00851379 0)
(-0.0473 0.00730155 0)
(-0.0506873 0.00574146 0)
(-0.0531936 0.00383397 0)
(-0.0546573 0.00160712 0)
(-0.0549388 -0.000873935 0)
(-0.0539374 -0.00350262 0)
(-0.0516112 -0.00612831 0)
(-0.0479965 -0.00856621 0)
(-0.0432192 -0.0106127 0)
(-0.0375019 -0.0120687 0)
(-0.0311578 -0.0127691 0)
(-0.0245722 -0.0126125 0)
(-0.0181682 -0.0115878 0)
(-0.0123606 -0.00978986 0)
(-0.00750332 -0.00742181 0)
(-0.00383749 -0.00478639 0)
(-0.00144566 -0.00226968 0)
(-0.000229275 -0.000326264 0)
(5.43486e-05 0.000506124 0)
(-0.000319098 0.00195001 0)
(-0.00215973 0.00601175 0)
(-0.00583872 0.00951335 0)
(-0.0105986 0.0122373 0)
(-0.0161219 0.0141729 0)
(-0.022161 0.0153931 0)
(-0.0284878 0.0159947 0)
(-0.0349038 0.0160593 0)
(-0.0412299 0.0156359 0)
(-0.0472936 0.0147385 0)
(-0.0529193 0.0133547 0)
(-0.0579224 0.0114596 0)
(-0.0621094 0.00903325 0)
(-0.0652815 0.00607881 0)
(-0.067246 0.0026396 0)
(-0.0678313 -0.00118746 0)
(-0.0669031 -0.00524588 0)
(-0.0643889 -0.00931243 0)
(-0.0603026 -0.013113 0)
(-0.0547613 -0.0163426 0)
(-0.0479977 -0.0186983 0)
(-0.0403609 -0.0199219 0)
(-0.0322991 -0.0198467 0)
(-0.0243239 -0.0184392 0)
(-0.0169549 -0.0158269 0)
(-0.0106533 -0.0123046 0)
(-0.00575419 -0.00831913 0)
(-0.00240387 -0.00443769 0)
(-0.000538845 -0.00130845 0)
(2.14008e-05 0.000349183 0)
(-0.000401654 0.00324008 0)
(-0.00264985 0.00921587 0)
(-0.00707299 0.0141223 0)
(-0.0127188 0.0178485 0)
(-0.0192025 0.0204625 0)
(-0.0262433 0.022097 0)
(-0.0335921 0.0228912 0)
(-0.0410385 0.0229535 0)
(-0.0483952 0.0223457 0)
(-0.0554809 0.0210828 0)
(-0.0621091 0.0191451 0)
(-0.0680804 0.016497 0)
(-0.0731804 0.0131092 0)
(-0.0771828 0.00898269 0)
(-0.0798594 0.00417101 0)
(-0.0809967 -0.00120078 0)
(-0.0804093 -0.00692802 0)
(-0.07797 -0.0127117 0)
(-0.0736452 -0.0181794 0)
(-0.0675151 -0.0229077 0)
(-0.0597991 -0.0264644 0)
(-0.0508668 -0.0284674 0)
(-0.0412274 -0.0286518 0)
(-0.0314947 -0.0269343 0)
(-0.0223217 -0.0234604 0)
(-0.014317 -0.0186196 0)
(-0.00795068 -0.0130239 0)
(-0.00346687 -0.0074547 0)
(-0.000855486 -0.00278988 0)
(-9.71565e-07 3.74613e-05 0)
(-0.000473186 0.00478104 0)
(-0.00308646 0.0129976 0)
(-0.00818654 0.0195062 0)
(-0.0146466 0.024346 0)
(-0.0220208 0.0276989 0)
(-0.0299987 0.0297808 0)
(-0.0383161 0.0307875 0)
(-0.0467576 0.0308614 0)
(-0.0551362 0.0300791 0)
(-0.0632715 0.0284553 0)
(-0.0709748 0.0259596 0)
(-0.078039 0.0225394 0)
(-0.0842334 0.0181482 0)
(-0.0893036 0.0127742 0)
(-0.0929792 0.00646911 0)
(-0.0949924 -0.000625346 0)
(-0.095086 -0.00825242 0)
(-0.09305 -0.0160525 0)
(-0.0887721 -0.0235464 0)
(-0.0822621 -0.0301722 0)
(-0.0736953 -0.0353367 0)
(-0.0634398 -0.0384903 0)
(-0.0520604 -0.0392203 0)
(-0.0402874 -0.0373481 0)
(-0.028945 -0.0330067 0)
(-0.018843 -0.0266756 0)
(-0.0106474 -0.0191564 0)
(-0.0047495 -0.0114923 0)
(-0.00122034 -0.00484915 0)
(-1.92371e-05 -0.000433196 0)
(-0.000535747 0.00654435 0)
(-0.0034733 0.0172986 0)
(-0.00918118 0.0255944 0)
(-0.0163812 0.031658 0)
(-0.0245753 0.0358158 0)
(-0.0334296 0.0383897 0)
(-0.0426713 0.0396472 0)
(-0.0520874 0.0397726 0)
(-0.0614997 0.0388604 0)
(-0.0707379 0.0369246 0)
(-0.0796201 0.0339188 0)
(-0.087939 0.0297655 0)
(-0.095452 0.0243887 0)
(-0.101878 0.017749 0)
(-0.106898 0.00987934 0)
(-0.110166 0.000920905 0)
(-0.111342 -0.00884255 0)
(-0.110116 -0.0189901 0)
(-0.106247 -0.0289338 0)
(-0.0996379 -0.0379561 0)
(-0.0903798 -0.0452659 0)
(-0.0788068 -0.0500903 0)
(-0.0655204 -0.0518002 0)
(-0.0513737 -0.0500504 0)
(-0.0373989 -0.044907 0)
(-0.0246736 -0.036919 0)
(-0.0141414 -0.0271026 0)
(-0.00641488 -0.016828 0)
(-0.00169272 -0.00763564 0)
(-4.19542e-05 -0.00109663 0)
(-0.000589906 0.0085034 0)
(-0.00381059 0.0220603 0)
(-0.0100541 0.0323147 0)
(-0.0179151 0.0397108 0)
(-0.0268535 0.0447468 0)
(-0.0365195 0.0478721 0)
(-0.0466383 0.0494401 0)
(-0.0570073 0.0496867 0)
(-0.0674652 0.0487283 0)
(-0.0778606 0.0465767 0)
(-0.0880278 0.0431647 0)
(-0.0977669 0.0383792 0)
(-0.106829 0.0320994 0)
(-0.114906 0.0242384 0)
(-0.121629 0.0147876 0)
(-0.126573 0.00386203 0)
(-0.129291 -0.0082613 0)
(-0.129337 -0.0211052 0)
(-0.12632 -0.0339788 0)
(-0.119991 -0.0459963 0)
(-0.110308 -0.0561315 0)
(-0.0975228 -0.063324 0)
(-0.0822322 -0.0666392 0)
(-0.0653971 -0.0654642 0)
(-0.048281 -0.0597069 0)
(-0.0322992 -0.0499357 0)
(-0.0187774 -0.0373965 0)
(-0.00865703 -0.0238684 0)
(-0.00234387 -0.0113885 0)
(-7.95153e-05 -0.00202287 0)
(-0.000635066 0.0106307 0)
(-0.00409481 0.0272216 0)
(-0.010796 0.0395895 0)
(-0.0192308 0.0484238 0)
(-0.0288275 0.0544179 0)
(-0.0392275 0.0581675 0)
(-0.050161 0.0601272 0)
(-0.0614423 0.0605935 0)
(-0.0729349 0.0597094 0)
(-0.0845148 0.0574845 0)
(-0.0960406 0.0538248 0)
(-0.107328 0.0485697 0)
(-0.11813 0.0415358 0)
(-0.128117 0.0325642 0)
(-0.13687 0.0215749 0)
(-0.143885 0.00862395 0)
(-0.148597 -0.00603904 0)
(-0.150411 -0.0219143 0)
(-0.148759 -0.0382244 0)
(-0.143203 -0.0539109 0)
(-0.133514 -0.0676819 0)
(-0.119794 -0.0781257 0)
(-0.102568 -0.0838997 0)
(-0.0828507 -0.083989 0)
(-0.0621283 -0.078003 0)
(-0.0422092 -0.0664271 0)
(-0.0249232 -0.0507208 0)
(-0.0116904 -0.0331622 0)
(-0.00325232 -0.0164485 0)
(-0.000142514 -0.00332039 0)
(-0.000669874 0.0128961 0)
(-0.00431958 0.0327149 0)
(-0.0113917 0.0473327 0)
(-0.020301 0.0577048 0)
(-0.0304539 0.0647394 0)
(-0.0414888 0.0691962 0)
(-0.0531461 0.0716443 0)
(-0.0652625 0.0724512 0)
(-0.077732 0.0717919 0)
(-0.0904645 0.069674 0)
(-0.103351 0.0659708 0)
(-0.116231 0.060463 0)
(-0.128867 0.0528852 0)
(-0.140917 0.0429814 0)
(-0.151923 0.0305687 0)
(-0.161308 0.0156087 0)
(-0.168395 -0.00171335 0)
(-0.172441 -0.0209035 0)
(-0.172697 -0.0411317 0)
(-0.168506 -0.0611797 0)
(-0.159407 -0.0794795 0)
(-0.14527 -0.0942194 0)
(-0.126452 -0.103547 0)
(-0.103917 -0.105886 0)
(-0.0793048 -0.100348 0)
(-0.0548293 -0.0871513 0)
(-0.032944 -0.0678859 0)
(-0.0157437 -0.0454025 0)
(-0.00450409 -0.0232665 0)
(-0.000242406 -0.00514074 0)
(-0.000692635 0.0152648 0)
(-0.00447725 0.0384645 0)
(-0.0118231 0.0554462 0)
(-0.021093 0.0674451 0)
(-0.0316791 0.0755995 0)
(-0.0432204 0.0808478 0)
(-0.0554705 0.0838871 0)
(-0.0682907 0.0851657 0)
(-0.0816086 0.0848968 0)
(-0.095372 0.0830871 0)
(-0.109509 0.0795734 0)
(-0.123891 0.0740661 0)
(-0.138298 0.0662013 0)
(-0.15239 0.0556022 0)
(-0.165686 0.0419541 0)
(-0.177559 0.0250917 0)
(-0.187239 0.00509786 0)
(-0.193864 -0.0175924 0)
(-0.196528 -0.0421223 0)
(-0.194348 -0.0671534 0)
(-0.186597 -0.0908654 0)
(-0.172846 -0.111034 0)
(-0.153151 -0.125221 0)
(-0.128273 -0.131125 0)
(-0.0998498 -0.127102 0)
(-0.0704291 -0.112815 0)
(-0.0431638 -0.0897756 0)
(-0.0210522 -0.0614152 0)
(-0.00619453 -0.0324091 0)
(-0.000392789 -0.00768275 0)
(-0.000701794 0.017698 0)
(-0.00456098 0.0443862 0)
(-0.0120738 0.063819 0)
(-0.0215754 0.0775173 0)
(-0.0324482 0.0868588 0)
(-0.0443329 0.0929731 0)
(-0.0569953 0.0966974 0)
(-0.0703204 0.098571 0)
(-0.0842685 0.098852 0)
(-0.0988249 0.0975486 0)
(-0.113957 0.0944582 0)
(-0.129571 0.0892139 0)
(-0.145477 0.0813398 0)
(-0.161351 0.0703205 0)
(-0.176714 0.0556873 0)
(-0.190922 0.0371218 0)
(-0.203168 0.0145712 0)
(-0.212512 -0.0116347 0)
(-0.21793 -0.0406581 0)
(-0.218366 -0.0711042 0)
(-0.212825 -0.100966 0)
(-0.200521 -0.127649 0)
(-0.18109 -0.148114 0)
(-0.154881 -0.159204 0)
(-0.123289 -0.158237 0)
(-0.0889893 -0.143905 0)
(-0.0558014 -0.117244 0)
(-0.0278419 -0.0821229 0)
(-0.00842956 -0.044559 0)
(-0.000611056 -0.0111984 0)
(-0.000696499 0.0201534 0)
(-0.00456751 0.0503889 0)
(-0.0121351 0.072329 0)
(-0.0217273 0.0877746 0)
(-0.0327186 0.0983478 0)
(-0.0447477 0.105378 0)
(-0.0575887 0.109855 0)
(-0.0711453 0.112416 0)
(-0.0854048 0.113374 0)
(-0.100386 0.11274 0)
(-0.116093 0.110275 0)
(-0.13247 0.105529 0)
(-0.149363 0.09791 0)
(-0.166484 0.0867552 0)
(-0.183386 0.0714309 0)
(-0.199455 0.0514506 0)
(-0.213906 0.0266052 0)
(-0.225796 -0.00290525 0)
(-0.234064 -0.0363429 0)
(-0.237555 -0.0723211 0)
(-0.235058 -0.10876 0)
(-0.225424 -0.142813 0)
(-0.207773 -0.170913 0)
(-0.181833 -0.189001 0)
(-0.148434 -0.193109 0)
(-0.110025 -0.180451 0)
(-0.0708653 -0.150947 0)
(-0.0362945 -0.10847 0)
(-0.011323 -0.0605027 0)
(-0.000920016 -0.0159992 0)
(-0.000677244 0.0225879 0)
(-0.00450033 0.0563804 0)
(-0.0120131 0.0808479 0)
(-0.0215504 0.098056 0)
(-0.0324755 0.10987 0)
(-0.0444186 0.117826 0)
(-0.0571542 0.123074 0)
(-0.0705962 0.126362 0)
(-0.0847505 0.128061 0)
(-0.0996612 0.128195 0)
(-0.115363 0.126486 0)
(-0.131837 0.122411 0)
(-0.148974 0.11526 0)
(-0.166538 0.10423 0)
(-0.184149 0.0885263 0)
(-0.201272 0.0674975 0)
(-0.217214 0.0407733 0)
(-0.231125 0.00839981 0)
(-0.241997 -0.0290337 0)
(-0.248679 -0.0702391 0)
(-0.249861 -0.113218 0)
(-0.244085 -0.155053 0)
(-0.229929 -0.191835 0)
(-0.206345 -0.218703 0)
(-0.173259 -0.230267 0)
(-0.132405 -0.221758 0)
(-0.0880088 -0.191097 0)
(-0.0464853 -0.141288 0)
(-0.0149872 -0.0810973 0)
(-0.00134906 -0.0224606 0)
(-0.000646571 0.0249631 0)
(-0.00437336 0.0622764 0)
(-0.011737 0.0892519 0)
(-0.0210816 0.108194 0)
(-0.0317505 0.121207 0)
(-0.0433552 0.13004 0)
(-0.0556615 0.136011 0)
(-0.0685834 0.139988 0)
(-0.0821349 0.142406 0)
(-0.0963754 0.143308 0)
(-0.111363 0.14239 0)
(-0.127115 0.139059 0)
(-0.143571 0.132507 0)
(-0.160567 0.121804 0)
(-0.177821 0.106018 0)
(-0.194925 0.0843539 0)
(-0.211344 0.0562943 0)
(-0.226407 0.0217293 0)
(-0.23925 -0.0189277 0)
(-0.248872 -0.0645894 0)
(-0.254 -0.113498 0)
(-0.252987 -0.162899 0)
(-0.243951 -0.208833 0)
(-0.225019 -0.245906 0)
(-0.194955 -0.267389 0)
(-0.15425 -0.266169 0)
(-0.106378 -0.237161 0)
(-0.0582932 -0.18109 0)
(-0.0195155 -0.107201 0)
(-0.00193537 -0.0310206 0)
(-0.000609873 0.0272512 0)
(-0.00421502 0.0680137 0)
(-0.0113685 0.0974357 0)
(-0.0204068 0.118031 0)
(-0.0306389 0.132137 0)
(-0.0416463 0.141722 0)
(-0.0531766 0.148283 0)
(-0.0651354 0.152813 0)
(-0.0775359 0.155824 0)
(-0.090445 0.157383 0)
(-0.103939 0.15717 0)
(-0.118068 0.154542 0)
(-0.132829 0.148614 0)
(-0.148146 0.138361 0)
(-0.163861 0.12275 0)
(-0.17973 0.100877 0)
(-0.19543 0.0721156 0)
(-0.210534 0.0362315 0)
(-0.224405 -0.00654442 0)
(-0.236317 -0.055526 0)
(-0.245177 -0.109183 0)
(-0.249326 -0.165198 0)
(-0.246604 -0.219941 0)
(-0.23442 -0.267926 0)
(-0.210287 -0.301442 0)
(-0.173024 -0.310987 0)
(-0.124526 -0.287582 0)
(-0.0713028 -0.22779 0)
(-0.0249611 -0.139558 0)
(-0.00272615 -0.04217 0)
(-0.000576447 0.0294447 0)
(-0.00407317 0.0735683 0)
(-0.0110112 0.105332 0)
(-0.0196748 0.127432 0)
(-0.0293168 0.142443 0)
(-0.0394783 0.152566 0)
(-0.0498831 0.159486 0)
(-0.0604257 0.164331 0)
(-0.0711153 0.167694 0)
(-0.0820227 0.169681 0)
(-0.0932412 0.16997 0)
(-0.104858 0.167889 0)
(-0.116933 0.162507 0)
(-0.129493 0.152744 0)
(-0.14252 0.137506 0)
(-0.155961 0.115829 0)
(-0.169716 0.0870132 0)
(-0.183634 0.0507216 0)
(-0.197503 0.0070067 0)
(-0.210805 -0.0437364 0)
(-0.222655 -0.10044 0)
(-0.231721 -0.161413 0)
(-0.235797 -0.223709 0)
(-0.231823 -0.282297 0)
(-0.216202 -0.329115 0)
(-0.185897 -0.352675 0)
(-0.140486 -0.339645 0)
(-0.0847396 -0.280412 0)
(-0.0313186 -0.178636 0)
(-0.00378427 -0.0564358 0)
(-0.00056129 0.0315689 0)
(-0.00402207 0.0789786 0)
(-0.0108235 0.112937 0)
(-0.0191111 0.136311 0)
(-0.0280542 0.15194 0)
(-0.0371467 0.16228 0)
(-0.046093 0.169221 0)
(-0.0547823 0.174037 0)
(-0.0632265 0.17741 0)
(-0.0715059 0.179492 0)
(-0.0797364 0.179979 0)
(-0.0880484 0.178197 0)
(-0.0965773 0.173201 0)
(-0.10546 0.163898 0)
(-0.114836 0.149178 0)
(-0.124849 0.128064 0)
(-0.135643 0.0998229 0)
(-0.147343 0.0640363 0)
(-0.160029 0.0206107 0)
(-0.173547 -0.0302141 0)
(-0.187408 -0.0880005 0)
(-0.200587 -0.151773 0)
(-0.211126 -0.21955 0)
(-0.215878 -0.287303 0)
(-0.210512 -0.347436 0)
(-0.190286 -0.387354 0)
(-0.152039 -0.389626 0)
(-0.0974806 -0.336868 0)
(-0.0385179 -0.224426 0)
(-0.00520128 -0.0743649 0)
(-0.000588791 0.0336995 0)
(-0.00417408 0.0843756 0)
(-0.011035 0.120331 0)
(-0.0190344 0.144645 0)
(-0.027225 0.160482 0)
(-0.035059 0.170599 0)
(-0.0422395 0.177117 0)
(-0.0486722 0.181464 0)
(-0.0543899 0.184419 0)
(-0.0594985 0.18619 0)
(-0.064149 0.186506 0)
(-0.0685273 0.184717 0)
(-0.0728527 0.179901 0)
(-0.0773816 0.17099 0)
(-0.0824112 0.156903 0)
(-0.0882796 0.136684 0)
(-0.0953548 0.109608 0)
(-0.104012 0.0752234 0)
(-0.114589 0.0333302 0)
(-0.127268 -0.0160878 0)
(-0.14194 -0.0730166 0)
(-0.157988 -0.137233 0)
(-0.173911 -0.207878 0)
(-0.186869 -0.28235 0)
(-0.192341 -0.35437 0)
(-0.184373 -0.411481 0)
(-0.157097 -0.433248 0)
(-0.108155 -0.39393 0)
(-0.0464293 -0.27623 0)
(-0.00712071 -0.0965215 0)
(-0.000700894 0.0359902 0)
(-0.00470124 0.0900213 0)
(-0.011974 0.127714 0)
(-0.0198755 0.152489 0)
(-0.0273128 0.167969 0)
(-0.0337235 0.177289 0)
(-0.0388513 0.182832 0)
(-0.0426585 0.186194 0)
(-0.045232 0.188249 0)
(-0.0467278 0.189265 0)
(-0.0473512 0.189018 0)
(-0.0473563 0.186906 0)
(-0.0470545 0.182059 0)
(-0.0468218 0.173468 0)
(-0.0471045 0.160113 0)
(-0.0484156 0.14109 0)
(-0.051318 0.115701 0)
(-0.056392 0.0834796 0)
(-0.0641847 0.0441433 0)
(-0.0751344 -0.00252544 0)
(-0.0894487 -0.056849 0)
(-0.106929 -0.119261 0)
(-0.12665 -0.18998 0)
(-0.146414 -0.268041 0)
(-0.162104 -0.349173 0)
(-0.167319 -0.42245 0)
(-0.154008 -0.466293 0)
(-0.115293 -0.447454 0)
(-0.0548532 -0.332477 0)
(-0.00976517 -0.123505 0)
(-0.000975183 0.0387206 0)
(-0.00587621 0.096362 0)
(-0.0141084 0.135423 0)
(-0.0222 0.159973 0)
(-0.028905 0.17433 0)
(-0.0337163 0.182127 0)
(-0.0364932 0.18605 0)
(-0.0373174 0.187856 0)
(-0.0363763 0.18851 0)
(-0.033908 0.188334 0)
(-0.0301919 0.187156 0)
(-0.0255608 0.184434 0)
(-0.0204201 0.17938 0)
(-0.0152567 0.171062 0)
(-0.0106448 0.158544 0)
(-0.00724098 0.140986 0)
(-0.00576169 0.117723 0)
(-0.00694311 0.0882823 0)
(-0.0114828 0.0523177 0)
(-0.0199867 0.00946567 0)
(-0.0328979 -0.0408466 0)
(-0.0503759 -0.0995418 0)
(-0.0720908 -0.16771 0)
(-0.0966892 -0.245961 0)
(-0.12099 -0.332401 0)
(-0.139046 -0.418918 0)
(-0.141577 -0.48515 0)
(-0.117403 -0.492764 0)
(-0.0634427 -0.390591 0)
(-0.0134423 -0.15598 0)
(-0.00156408 0.0423841 0)
(-0.00814841 0.104097 0)
(-0.0181068 0.143941 0)
(-0.0267208 0.167264 0)
(-0.0326508 0.179474 0)
(-0.0355884 0.184857 0)
(-0.0356304 0.186429 0)
(-0.0330647 0.186093 0)
(-0.0282348 0.184867 0)
(-0.0214939 0.183112 0)
(-0.0132125 0.180698 0)
(-0.00380287 0.177151 0)
(0.00624285 0.171763 0)
(0.0163464 0.163705 0)
(0.0258385 0.152133 0)
(0.0339574 0.136274 0)
(0.0398861 0.115496 0)
(0.0427943 0.0893164 0)
(0.0418882 0.0573322 0)
(0.0364516 0.0190714 0)
(0.0258731 -0.0262067 0)
(0.00972764 -0.0797168 0)
(-0.0121991 -0.143149 0)
(-0.0394561 -0.218291 0)
(-0.0701469 -0.305634 0)
(-0.0996581 -0.400772 0)
(-0.11877 -0.487095 0)
(-0.112856 -0.525034 0)
(-0.0714811 -0.446901 0)
(-0.0184668 -0.194624 0)
(-0.00277586 0.0478546 0)
(-0.0122754 0.114259 0)
(-0.0248994 0.153852 0)
(-0.0342448 0.174459 0)
(-0.0390931 0.183164 0)
(-0.0396 0.185073 0)
(-0.0362805 0.183518 0)
(-0.0297361 0.180479 0)
(-0.0205247 0.176971 0)
(-0.00914186 0.173344 0)
(0.00394462 0.169492 0)
(0.0182478 0.164992 0)
(0.0332179 0.159219 0)
(0.048222 0.151444 0)
(0.0625352 0.140916 0)
(0.0753465 0.126933 0)
(0.0857916 0.108897 0)
(0.0929936 0.0863101 0)
(0.0961051 0.0587139 0)
(0.0943381 0.025557 0)
(0.0869512 -0.0139918 0)
(0.073287 -0.0612653 0)
(0.0527316 -0.118227 0)
(0.0248983 -0.187357 0)
(-0.00978334 -0.27106 0)
(-0.0486968 -0.368898 0)
(-0.0841834 -0.470289 0)
(-0.0995189 -0.539425 0)
(-0.0774539 -0.496413 0)
(-0.0248894 -0.239828 0)
(-0.00523048 0.0567121 0)
(-0.0195184 0.128264 0)
(-0.0356394 0.165646 0)
(-0.0453487 0.181308 0)
(-0.0480904 0.184746 0)
(-0.044933 0.181981 0)
(-0.0370552 0.176541 0)
(-0.0254915 0.170344 0)
(-0.0110644 0.164294 0)
(0.00557719 0.158662 0)
(0.023879 0.153316 0)
(0.0433082 0.147862 0)
(0.0632983 0.141744 0)
(0.0832129 0.13432 0)
(0.102331 0.124926 0)
(0.119851 0.112932 0)
(0.134916 0.0977722 0)
(0.146645 0.0789433 0)
(0.154165 0.0559517 0)
(0.15663 0.0282049 0)
(0.153164 -0.00514403 0)
(0.142916 -0.0454246 0)
(0.124918 -0.094549 0)
(0.0980988 -0.155246 0)
(0.0615907 -0.231036 0)
(0.0156291 -0.324972 0)
(-0.035325 -0.433774 0)
(-0.0740939 -0.530862 0)
(-0.0784779 -0.532315 0)
(-0.0319752 -0.291143 0)
(-0.0101233 0.071904 0)
(-0.0318215 0.147791 0)
(-0.0511467 0.179159 0)
(-0.0590842 0.186566 0)
(-0.0569543 0.182562 0)
(-0.0474176 0.173901 0)
(-0.0326072 0.163995 0)
(-0.0140888 0.154446 0)
(0.00704157 0.145878 0)
(0.0300132 0.138378 0)
(0.054239 0.131724 0)
(0.0792064 0.125512 0)
(0.1044 0.119228 0)
(0.129252 0.112301 0)
(0.153117 0.10415 0)
(0.17527 0.0942148 0)
(0.194915 0.0819755 0)
(0.211209 0.0669475 0)
(0.223277 0.04864 0)
(0.230221 0.0264747 0)
(0.230997 -0.000340179 0)
(0.224582 -0.0329709 0)
(0.209683 -0.0731414 0)
(0.184674 -0.123393 0)
(0.147695 -0.187539 0)
(0.0969643 -0.27102 0)
(0.0324683 -0.377799 0)
(-0.0308985 -0.494188 0)
(-0.0698185 -0.545825 0)
(-0.03761 -0.347015 0)
(-0.0195008 0.0986047 0)
(-0.0513467 0.173461 0)
(-0.0690687 0.191918 0)
(-0.0683647 0.186484 0)
(-0.0548545 0.172739 0)
(-0.0335374 0.157397 0)
(-0.00762711 0.143068 0)
(0.020885 0.130616 0)
(0.0507994 0.120144 0)
(0.0813997 0.111423 0)
(0.112226 0.10407 0)
(0.142923 0.0976288 0)
(0.173146 0.0916057 0)
(0.202497 0.0854943 0)
(0.230493 0.0787949 0)
(0.256555 0.0710307 0)
(0.280007 0.0617544 0)
(0.300084 0.0505391 0)
(0.315944 0.0369462 0)
(0.326653 0.0204703 0)
(0.331046 0.000446448 0)
(0.327933 -0.0239438 0)
(0.315682 -0.0541417 0)
(0.292283 -0.0922637 0)
(0.25511 -0.141698 0)
(0.200919 -0.208675 0)
(0.126474 -0.302868 0)
(0.0398857 -0.426503 0)
(-0.043969 -0.527633 0)
(-0.0371899 -0.402907 0)
(-0.0349443 0.14282 0)
(-0.0745672 0.198162 0)
(-0.0708218 0.19289 0)
(-0.0449233 0.170315 0)
(-0.0083279 0.146431 0)
(0.0324072 0.12576 0)
(0.0739711 0.108952 0)
(0.11482 0.0955819 0)
(0.15431 0.0850161 0)
(0.192247 0.0766385 0)
(0.228623 0.0698941 0)
(0.263471 0.0642818 0)
(0.296774 0.0593429 0)
(0.328421 0.0546531 0)
(0.358174 0.0498195 0)
(0.385663 0.0444798 0)
(0.410381 0.0383008 0)
(0.431686 0.0309688 0)
(0.448808 0.0221664 0)
(0.460832 0.0115323 0)
(0.466651 -0.00142698 0)
(0.464967 -0.017186 0)
(0.453865 -0.0366826 0)
(0.431163 -0.0614356 0)
(0.393735 -0.0939643 0)
(0.33773 -0.139651 0)
(0.256738 -0.210008 0)
(0.152589 -0.324443 0)
(0.0151969 -0.465644 0)
(-0.0171842 -0.441618 0)
(-0.03776 0.235507 0)
(-0.0486721 0.202658 0)
(0.0258722 0.152113 0)
(0.0975019 0.116619 0)
(0.164617 0.0904962 0)
(0.225331 0.0714796 0)
(0.27934 0.0578777 0)
(0.327336 0.048094 0)
(0.370281 0.0409318 0)
(0.409088 0.0355859 0)
(0.444509 0.0315006 0)
(0.477113 0.0282629 0)
(0.507284 0.025545 0)
(0.535219 0.0230757 0)
(0.560934 0.0206234 0)
(0.584274 0.0179868 0)
(0.60492 0.0149894 0)
(0.622394 0.0114714 0)
(0.636077 0.00728734 0)
(0.64512 0.00227676 0)
(0.648678 -0.00368599 0)
(0.645577 -0.0110101 0)
(0.634027 -0.0200835 0)
(0.612032 -0.0316084 0)
(0.576256 -0.0468906 0)
(0.523068 -0.069356 0)
(0.44261 -0.107298 0)
(0.333368 -0.18784 0)
(0.143235 -0.335703 0)
(0.0605779 -0.412682 0)
(0.231228 0.15859 0)
(0.290992 0.116839 0)
(0.439857 0.0756296 0)
(0.538131 0.05034 0)
(0.604796 0.0341141 0)
(0.654237 0.0234955 0)
(0.692618 0.0166471 0)
(0.723255 0.0122475 0)
(0.748434 0.00938158 0)
(0.769738 0.0074729 0)
(0.78822 0.00616527 0)
(0.804563 0.00522992 0)
(0.819195 0.0045121 0)
(0.83235 0.00390205 0)
(0.844105 0.00331844 0)
(0.854407 0.0026985 0)
(0.863089 0.00199293 0)
(0.86989 0.00115895 0)
(0.874468 0.000169537 0)
(0.876407 -0.00101772 0)
(0.875153 -0.00232181 0)
(0.869986 -0.00395755 0)
(0.860068 -0.0060099 0)
(0.844418 -0.00861295 0)
(0.82066 -0.0120354 0)
(0.787066 -0.0173343 0)
(0.731923 -0.0267086 0)
(0.655347 -0.0487292 0)
(0.45392 -0.109878 0)
(0.313138 -0.17741 0)
)
;

boundaryField
{
    movingWall
    {
        type            fixedValue;
        value           uniform (1 0 0);
    }
    fixedWalls
    {
        type            noSlip;
    }
    frontAndBack
    {
        type            empty;
    }
}


// ************************************************************************* //
