/*--------------------------------*- C++ -*----------------------------------*\
  =========                 |
  \\      /  F ield         | OpenFOAM: The Open Source CFD Toolbox
   \\    /   O peration     | Website:  https://openfoam.org
    \\  /    A nd           | Version:  7
     \\/     M anipulation  |
\*---------------------------------------------------------------------------*/
FoamFile
{
    version     2.0;
    format      ascii;
    class       surfaceScalarField;
    location    "0.72";
    object      phi;
}
// * * * * * * * * * * * * * * * * * * * * * * * * * * * * * * * * * * * * * //

dimensions      [0 3 -1 0 0 0 0];

internalField   nonuniform List<scalar> 
3784
(
-0.00241596
0.00241597
-0.00229415
-0.000121816
-0.000999573
-0.00129458
-0.000270927
-0.000728645
1.34318e-06
-0.000272272
0.000567125
-0.000565782
0.00117571
-0.000608586
0.00138506
-0.00020935
0.000933097
0.000451962
2.07271e-05
0.000912372
-0.000760214
0.000780941
-0.000933429
0.000173212
-0.000278257
-0.000655173
0.000899677
-0.00117793
0.00128681
-0.000387138
0.000214059
0.00107276
-0.00123699
0.00145104
-0.00156972
0.000332731
-0.000315996
-0.00125372
0.00134033
-0.00165632
0.00208871
-0.000748382
0.00148167
0.000607045
0.000107634
0.00137403
-0.000968942
0.00107658
-0.000903055
-6.58874e-05
0.000286758
-0.00118981
0.00156001
-0.00127325
0.00141339
0.000146625
-4.21004e-05
0.00145549
-0.00125444
0.00121233
-0.00120277
-5.16706e-05
3.70308e-05
-0.0012398
0.00145694
-0.00141991
0.0015259
-6.89607e-05
0.000147401
0.0013785
-0.0011458
0.0012932
-0.00101401
-0.000131788
0.000291496
-0.00130551
0.00137075
-0.00107926
0.00122355
0.000147206
-0.000115173
0.00133872
-0.00144457
0.00132939
-0.00136943
-7.51422e-05
-0.00136943
-0.00336997
0.00578594
-0.00338722
-0.000104559
-0.00116764
-0.00351416
-0.000364611
-0.00153168
-0.000163664
-0.000473218
0.000546479
-0.00127592
0.0012736
-0.00133571
0.00145325
-0.000389003
0.000956374
0.00094884
0.000143724
0.00172502
-0.000729679
0.00165434
-0.00129438
0.000737912
-0.000487078
-0.00146247
0.0011849
-0.00284991
0.00136988
-0.000572119
0.000154404
0.00228823
-0.00103791
0.00264336
-0.00173351
0.00102833
-0.000542914
-0.00244431
0.00178148
-0.00398071
0.00229318
-0.00126009
0.00133183
0.0015684
0.000238757
0.00246711
-0.00103357
0.0023489
-0.0013946
0.000295145
0.000339502
-0.00292392
0.00190682
-0.00284057
0.00130086
0.000752585
4.87844e-06
0.00275147
-0.00119593
0.00241314
-0.00170713
0.000459526
7.26121e-06
-0.00295419
0.00184553
-0.00325818
0.00141963
0.000356946
0.000172346
0.00262578
-0.00108786
0.00255341
-0.00142441
0.000204765
0.000388457
-0.00311838
0.00183055
-0.00252135
0.00113523
0.000842521
-9.35796e-05
0.00256753
-0.00131875
0.00255457
-0.00184803
0.000454134
-0.00321745
-0.00315829
0.00894423
-0.00363901
0.000376162
-0.0015855
-0.00556767
-0.000465316
-0.00265186
-0.000120378
-0.00081816
0.000613105
-0.00200941
0.00138804
-0.00211064
0.00150204
-0.000502998
0.000812251
0.00163862
-0.000196558
0.00273383
-0.00115525
0.00261304
-0.00152027
0.00110294
-0.000285368
-0.00269738
0.00163249
-0.00476777
0.00181376
-0.000753388
0.000509211
0.00359279
-0.000919161
0.00407173
-0.00191421
0.00202337
-0.000765645
-0.00359288
0.00182853
-0.00657488
0.00247382
-0.00190538
0.00120012
0.00284209
-0.000294972
0.0039622
-0.00160477
0.0036587
-0.00161506
0.000305435
0.000555966
-0.00509494
0.00226247
-0.00454707
0.00148125
0.00153381
-0.000154686
0.0043874
-0.0015966
0.00385506
-0.00195806
0.000820979
0.000132359
-0.0050446
0.00214195
-0.00526777
0.00156072
0.000938168
-1.51842e-05
0.00420169
-0.0014864
0.00402462
-0.00175945
0.000477811
0.000341538
-0.00521937
0.00212254
-0.00430235
0.00151332
0.00145174
7.8531e-06
0.004073
-0.00155998
0.0041224
-0.00210773
0.00100188
-0.00532518
-0.00245518
0.0113994
-0.0033233
0.00124428
-0.00204374
-0.00684724
-0.000883069
-0.00381253
-0.00025248
-0.00144875
0.000384917
-0.00264681
0.000931761
-0.00265748
0.000920315
-0.000491552
0.000324632
0.00223431
-0.000395232
0.00345369
-0.000994281
0.00321209
-0.00107339
0.00118205
3.75015e-06
-0.00377451
0.0013595
-0.00612352
0.00144793
-0.000841815
0.000654237
0.00438647
-0.000247419
0.00497339
-0.00109309
0.00286904
-0.000534414
-0.00415155
0.0012163
-0.0083256
0.00163178
-0.00232086
0.000568426
0.00390544
-0.000566818
0.00509745
-0.00134989
0.00444177
-0.00111045
6.59988e-05
0.00051541
-0.00672081
0.00159333
-0.00562499
0.000936672
0.00219047
-0.000181432
0.0055055
-0.00115698
0.0048306
-0.00133851
0.00100252
0.000157793
-0.00654091
0.00144602
-0.006556
0.000916707
0.00146748
-0.000146989
0.00526538
-0.00107613
0.00495377
-0.00124274
0.000644421
0.000203616
-0.00666572
0.00150163
-0.00560037
0.00112444
0.00182893
0.000101422
0.00509602
-0.000975052
0.00519887
-0.00140529
0.00143212
-0.00673047
-0.00175282
0.0131522
-0.00292144
0.0024129
-0.00239209
-0.00737659
-0.00134621
-0.00485842
-0.000508814
-0.00228614
-5.61825e-06
-0.00315
0.000289143
-0.00295224
0.000204774
-0.000407186
-0.000175992
0.00261508
-0.000544987
0.00382269
-0.000765733
0.00343283
-0.000567905
0.000984215
0.000299009
-0.00464143
0.00102178
-0.00684629
0.00101247
-0.000832503
0.000689613
0.00470933
0.000293163
0.00536984
-0.000310129
0.00347234
-0.000292911
-0.00416877
0.000519549
-0.00913806
0.000716245
-0.00251755
5.61588e-05
0.00456553
-0.000644447
0.00579805
-0.000952208
0.00474953
-0.000580675
-0.000305534
0.000434608
-0.00773609
0.000877085
-0.00606747
0.000391695
0.00267586
-0.000144397
0.0060416
-0.000616619
0.00530282
-0.000684011
0.00106991
0.000178423
-0.00740334
0.000727755
-0.00710533
0.000293907
0.00190133
-0.000202354
0.00576164
-0.000577003
0.00532842
-0.000692791
0.000760207
5.66945e-05
-0.00741521
0.000837068
-0.00638074
0.000645701
0.0020203
0.000144423
0.00559729
-0.000378235
0.00572153
-0.00068616
0.00174004
-0.00741663
-0.000962686
0.0141149
-0.00232641
0.00377663
-0.00253508
-0.00716792
-0.00174915
-0.00564435
-0.000878029
-0.00315726
-0.000530132
-0.0034979
-0.000473582
-0.00300879
-0.000563495
-0.000317275
-0.000603304
0.00265489
-0.000544713
0.0037641
-0.000400803
0.00328892
-1.95143e-05
0.000602924
0.000527323
-0.00518826
0.000588882
-0.00690785
0.000423894
-0.000667513
0.000534454
0.00459877
0.000609535
0.00529476
0.000379039
0.00370284
-5.66881e-05
-0.00373304
-0.000162031
-0.00903272
-0.000154479
-0.0025251
-0.000305975
0.00471703
-0.000442463
0.00593454
-0.000352352
0.00465942
-1.63922e-05
-0.000641493
0.000304813
-0.0080573
0.000121605
-0.00588426
-9.31301e-05
0.00289059
-4.95769e-05
0.00599804
-5.30084e-05
0.00530625
-1.67087e-05
0.0010336
0.000181242
-0.00760129
2.77442e-05
-0.00695183
-0.000213319
0.0021424
-0.000142717
0.00569104
-4.28371e-05
0.00522854
-0.000133779
0.000851149
-7.14424e-05
-0.00747755
0.000152789
-0.00660497
0.000141786
0.00203131
0.000132891
0.00560619
0.000144184
0.00571024
3.66941e-06
0.00188056
-0.00741296
-5.11343e-05
0.0141661
-0.00138948
0.00511497
-0.00231377
-0.00624364
-0.00198519
-0.00597293
-0.00127563
-0.00386683
-0.00108315
-0.00369038
-0.00120812
-0.00288382
-0.00120272
-0.000322673
-0.000895343
0.00234751
-0.000445505
0.00331426
-2.9422e-05
0.00287284
0.000492902
8.06027e-05
0.00061813
-0.00531349
8.15755e-05
-0.0063713
-0.000205214
-0.000380724
0.000246171
0.00414739
0.000741287
0.00479964
0.000894244
0.00354988
0.000204943
-0.00304374
-0.000699981
-0.00812779
-0.000865665
-0.00235941
-0.000509848
0.00436121
-4.85633e-05
0.00547326
0.00034346
0.0042674
0.000517465
-0.000815496
0.000111393
-0.00765123
-0.000560806
-0.00521206
-0.000482009
0.00281179
6.52574e-05
0.00545078
0.00047401
0.0048975
0.000625946
0.000881666
0.000157475
-0.00713282
-0.000585734
-0.00620863
-0.000568509
0.00212517
-1.72857e-05
0.00513982
0.000462103
0.00474915
0.00044004
0.000873212
-0.000153249
-0.00688426
-0.00051084
-0.00624738
-0.000324512
0.00184498
8.96431e-05
0.00519203
0.00055491
0.00524497
0.000635006
0.00180046
-0.00677795
0.00103069
0.0131354
1.67574e-05
0.00612891
-0.00159193
-0.00463495
-0.00188337
-0.0056815
-0.0015225
-0.00422769
-0.00152603
-0.00368685
-0.00173908
-0.00267077
-0.00162091
-0.000440848
-0.00103412
0.00176072
-0.000337069
0.00261721
0.00032049
0.00221528
0.00087527
-0.000474175
0.000529362
-0.00496758
-0.000491163
-0.00535078
-0.000748804
-0.000123083
-4.26377e-05
0.00344123
0.00076607
0.00399094
0.00122849
0.00308746
0.0004722
-0.00228745
-0.00101345
-0.00664213
-0.00135523
-0.00201764
-0.000609894
0.00361588
0.00027252
0.00459084
0.000874304
0.00366561
0.000933022
-0.000874212
-0.000122658
-0.00659555
-0.00113483
-0.00419989
-0.000771726
0.00244869
0.000146842
0.00453221
0.000854881
0.00418946
0.00111916
0.000617379
8.4133e-05
-0.00609779
-0.00107046
-0.00505403
-0.000796161
0.00185087
9.06203e-05
0.00425304
0.000853061
0.0039867
0.000935978
0.000790292
-0.000171949
-0.00577633
-0.00104945
-0.00536988
-0.000708855
0.00150438
4.52202e-05
0.00443796
0.000853188
0.004437
0.00112353
0.00153012
-0.00565443
0.00204941
0.011086
0.00172459
0.00645372
-0.000331496
-0.00257886
-0.00130724
-0.00470576
-0.00144783
-0.0040871
-0.00168077
-0.00345391
-0.00194051
-0.00241104
-0.00174304
-0.000638319
-0.00102381
0.00104149
-0.000180566
0.00177397
0.000610142
0.00142457
0.00104275
-0.000906788
0.000287242
-0.00421207
-0.000996187
-0.00406735
-0.00108282
-3.64521e-05
-0.000249659
0.00260808
0.000738477
0.0030028
0.00143052
0.00239541
0.000710792
-0.00156772
-0.00110096
-0.00483038
-0.00158489
-0.00153371
-0.000667564
0.00269856
0.000444525
0.00347875
0.00124512
0.00286501
0.00117675
-0.000805844
-0.00033529
-0.00508351
-0.00149091
-0.00304427
-0.00090846
0.00186624
0.000188796
0.00343495
0.00109401
0.00328425
0.00141114
0.000300238
-1.02162e-05
-0.00467643
-0.001374
-0.00369025
-0.000897738
0.00137461
0.000144058
0.00321124
0.00103549
0.00309527
0.00128785
0.000537938
-0.000133826
-0.00435465
-0.00140642
-0.00409728
-0.000928568
0.00102653
2.03245e-05
0.00348907
0.000996568
0.00346076
0.00142738
0.00109931
-0.00422705
0.00258398
0.00850197
0.00315838
0.00587932
0.00119215
-0.000612636
-0.000278466
-0.00323515
-0.000966429
-0.00339913
-0.00146663
-0.00295371
-0.00177982
-0.00209785
-0.00158208
-0.000836061
-0.000888272
0.000347682
-2.94551e-05
0.000915153
0.000757598
0.000637519
0.00096631
-0.00111551
-4.3058e-05
-0.0032027
-0.00131437
-0.00279603
-0.00126505
-8.57666e-05
-0.000383089
0.00172612
0.000578241
0.00204147
0.0013844
0.00158925
0.000773016
-0.000956327
-0.00101895
-0.00303841
-0.00154834
-0.00100432
-0.000611478
0.0017617
0.000484826
0.00238245
0.00138349
0.00196635
0.00121788
-0.000640238
-0.00045925
-0.00340638
-0.00154664
-0.00195687
-0.000895374
0.00121497
0.000197459
0.00234212
0.00121218
0.00226953
0.00146021
5.22045e-05
-8.59759e-05
-0.00313024
-0.00139958
-0.00237664
-0.000872129
0.000847149
0.000160238
0.00217887
0.00112012
0.00213539
0.00138873
0.000269326
-7.99118e-05
-0.00288601
-0.00146674
-0.00271046
-0.00103975
0.000599544
1.24792e-05
0.00243684
0.00104957
0.00242367
0.00148629
0.000662588
-0.00274076
0.00247377
0.0060282
0.00365732
0.00469577
0.002385
0.000659687
0.000842847
-0.00169299
-0.000195815
-0.00236046
-0.000920367
-0.00222916
-0.00131284
-0.00170538
-0.00120543
-0.000943473
-0.00064394
-0.000213807
9.03714e-05
0.000180837
0.000735461
-7.57048e-06
0.000704759
-0.0010848
-0.000332115
-0.00216583
-0.00135911
-0.00176903
-0.0012535
-0.000191381
-0.000459363
0.00093199
0.000379877
0.00120223
0.00107975
0.000889384
0.000618453
-0.000495035
-0.000838273
-0.00158169
-0.00129861
-0.000543987
-0.000518682
0.000981777
0.000430771
0.001433
0.00125034
0.00114679
0.00102655
-0.000416452
-0.000469881
-0.00190995
-0.0013339
-0.00109286
-0.000778959
0.000660029
0.000167546
0.00139561
0.0011161
0.00132097
0.00123119
-6.28878e-05
-0.000133112
-0.00176594
-0.00118113
-0.00132862
-0.000758958
0.000424971
0.000143846
0.00127607
0.0010242
0.00125504
0.00120988
8.36438e-05
-4.90577e-05
-0.00162707
-0.00124586
-0.00151366
-0.000958305
0.000311992
1.13126e-05
0.00146722
0.000955353
0.00147964
0.00126604
0.000351907
-0.00147472
0.00199539
0.0040328
0.00329997
0.00339118
0.00273238
0.00122728
0.00160737
-0.000567975
0.000542453
-0.00129555
-0.000242841
-0.00144386
-0.000682012
-0.00126621
-0.000701561
-0.000923925
-0.00034587
-0.000569499
0.00018863
-0.000353664
0.000597871
-0.000416813
0.000416729
-0.000903667
-0.000431944
-0.00131715
-0.00114491
-0.00105606
-0.00106533
-0.00027096
-0.000484338
0.000350999
0.000150966
0.000566925
0.000627582
0.000412767
0.000324762
-0.000192216
-0.000620169
-0.000636754
-0.000934717
-0.000229436
-0.000402967
0.000450027
0.000301677
0.000728353
0.000889431
0.00055903
0.00067251
-0.000199531
-0.00038546
-0.000851976
-0.000967078
-0.000511237
-0.000590481
0.000283429
0.000112911
0.00069222
0.00081221
0.000621674
0.000822562
-7.32422e-05
-0.000134176
-0.000809202
-0.000834488
-0.000628304
-0.000565775
0.000156258
9.40364e-05
0.000616258
0.000747635
0.000601441
0.000826163
5.11263e-06
-5.58211e-05
-0.000745083
-0.000882599
-0.000686882
-0.000720092
0.000149488
-1.05327e-05
0.000757663
0.000702653
0.000766448
0.000868992
0.000185574
-0.000605726
0.00123422
0.00279858
0.00231951
0.0023059
0.00237446
0.00117233
0.00168809
0.000118396
0.000919028
-0.000526485
0.000285126
-0.000809962
-9.91722e-05
-0.000881906
-0.000190456
-0.000832636
-3.06167e-05
-0.000729342
0.000242141
-0.000626426
0.000423666
-0.000598337
0.000214344
-0.000694347
-0.0003521
-0.000750711
-0.00080012
-0.000608031
-0.000785611
-0.000285465
-0.000451956
1.73439e-05
-5.13278e-05
0.000166294
0.000217345
0.000144094
5.56202e-05
-3.04884e-05
-0.000412983
-0.000168148
-0.000586129
-5.62909e-05
-0.000298757
0.000162651
0.000135549
0.000294046
0.000463725
0.000230856
0.000309091
-4.48952e-05
-0.000268357
-0.000274529
-0.000596756
-0.000182838
-0.000397972
8.46437e-05
3.71035e-05
0.000257142
0.000437742
0.000221037
0.000404948
-4.04493e-05
-0.000116654
-0.000287603
-0.000504074
-0.000240882
-0.000372567
2.4751e-05
2.45135e-05
0.000219174
0.000407428
0.000218527
0.000416741
-4.19946e-06
-7.31338e-05
-0.000255205
-0.000531377
-0.000228637
-0.000458425
7.65372e-05
-3.4766e-05
0.000334005
0.000396395
0.000335284
0.000465544
0.000116426
-0.000140178
0.000774141
0.00202444
0.0013978
0.00168224
0.00158931
0.000980822
0.00131975
0.000387959
0.000902061
-0.000108795
0.000513872
-0.000421778
0.000252946
-0.000620979
0.000146154
-0.000725837
0.000164206
-0.000747397
0.000234948
-0.000697178
0.000244737
-0.000608129
7.49557e-05
-0.000524561
-0.000227981
-0.000447772
-0.00047321
-0.0003628
-0.000511401
-0.000247273
-0.000363292
-0.000130763
-0.000157215
-3.97828e-05
-3.46118e-05
2.14926e-05
-8.83783e-05
2.32796e-05
-0.000260865
4.33704e-06
-0.000329378
1.22179e-05
-0.000210516
4.37873e-05
-2.86256e-06
8.63932e-05
0.00014177
8.62257e-05
6.65941e-05
3.02817e-05
-0.000176207
-3.17297e-05
-0.000324304
-3.4743e-05
-0.000245887
6.22564e-06
-3.65289e-05
4.77821e-05
0.000142035
4.24738e-05
0.000112876
-1.12891e-05
-0.000105992
-6.87384e-05
-0.000275493
-7.13818e-05
-0.000230684
-2.00582e-05
-4.21023e-05
3.05916e-05
0.000134191
4.22358e-05
0.000126786
3.20752e-06
-8.52545e-05
-4.31625e-05
-0.00028487
-2.90223e-05
-0.00025689
4.85538e-05
-5.02248e-05
0.00012734
0.000155214
0.000129847
0.000181514
9.01259e-05
4.13372e-05
0.000540093
0.00148435
0.000893628
0.00132871
0.00101206
0.00086238
0.000951449
0.000448575
0.000740798
0.000101866
0.000534022
-0.000214995
0.00036593
-0.000452892
0.000249659
-0.00060957
0.000177483
-0.000675222
0.000127061
-0.000646761
6.61309e-05
-0.000547201
-3.33646e-05
-0.000425061
-0.000158246
-0.000322885
-0.000261776
-0.000259271
-0.000293689
-0.00021536
-0.000255382
-0.000169066
-0.000188554
-0.000106608
-0.000131787
-3.52764e-05
-0.000126127
1.76161e-05
-0.000158134
3.63402e-05
-0.000171214
2.52969e-05
-0.000139166
1.17395e-05
-7.06871e-05
1.79169e-05
-2.20399e-05
3.75789e-05
-3.84554e-05
4.66944e-05
-0.000108001
3.78114e-05
-0.000155428
1.26834e-05
-0.000139696
-9.50532e-06
-7.28125e-05
-1.9101e-05
-1.9134e-05
-1.1207e-05
-2.77149e-05
-2.70865e-06
-9.24333e-05
-4.02165e-06
-0.000147802
-1.60152e-05
-0.000139108
-2.87517e-05
-7.88506e-05
-2.96636e-05
-2.18877e-05
-1.47238e-05
-2.44417e-05
5.76056e-06
-8.61071e-05
1.85008e-05
-0.000141864
2.67363e-05
-0.00012995
3.664e-05
-5.25041e-05
4.98941e-05
2.01647e-05
5.71823e-05
3.90775e-05
7.12166e-05
8.04138e-05
0.00042336
0.00106098
0.000714215
0.00103785
0.000816021
0.000760577
0.000794511
0.000470082
0.000705203
0.000191174
0.000547898
-5.76841e-05
0.000393104
-0.000298099
0.000245231
-0.000461705
0.000112527
-0.00054252
4.45631e-06
-0.000538686
-7.29839e-05
-0.000469758
-0.000125321
-0.000372724
-0.000159028
-0.000289177
-0.000182607
-0.000235689
-0.000193909
-0.000204053
-0.000190697
-0.000172275
-0.00017355
-0.000123757
-0.000146666
-6.21659e-05
-0.000119955
-9.09778e-06
-0.000101534
1.79197e-05
-9.25934e-05
1.63577e-05
-8.6461e-05
5.60747e-06
-7.42351e-05
5.69009e-06
-6.02296e-05
2.35708e-05
-5.44556e-05
4.09175e-05
-5.85599e-05
4.19137e-05
-6.73077e-05
2.14306e-05
-7.1546e-05
-5.26549e-06
-6.90619e-05
-2.1585e-05
-6.3252e-05
-1.70205e-05
-6.29922e-05
-2.97066e-06
-7.11238e-05
4.11094e-06
-8.07163e-05
-6.42164e-06
-8.43547e-05
-2.51134e-05
-8.11345e-05
-3.28847e-05
-7.42631e-05
-2.15928e-05
-7.07022e-05
2.20204e-06
-7.46596e-05
2.24569e-05
-7.76314e-05
2.97082e-05
-6.94503e-05
2.84634e-05
-4.77131e-05
2.81581e-05
-2.76925e-05
3.71611e-05
-1.30464e-05
5.65749e-05
6.73701e-05
0.000325537
0.000735436
0.000597373
0.000766012
0.000736021
0.000621933
0.000765644
0.000440461
0.000715743
0.000241069
0.000616669
4.13882e-05
0.000457702
-0.000139129
0.000286564
-0.000290568
0.000121942
-0.0003779
-1.39201e-05
-0.000402821
-0.000106083
-0.000377593
-0.000151881
-0.000326926
-0.000167362
-0.000273695
-0.000170107
-0.000232937
-0.000171681
-0.000202476
-0.000172672
-0.000171288
-0.000165734
-0.000130702
-0.000144984
-8.29174e-05
-0.000114319
-3.97612e-05
-8.39783e-05
-1.24193e-05
-6.44727e-05
-3.14826e-06
-5.74441e-05
-1.42234e-06
-5.54863e-05
3.72963e-06
-4.76057e-05
1.56861e-05
-3.37734e-05
2.70831e-05
-2.15427e-05
2.96835e-05
-1.83294e-05
1.82173e-05
-2.45349e-05
9.38722e-07
-3.58006e-05
-1.03205e-05
-4.28541e-05
-9.96839e-06
-4.29125e-05
-2.91285e-06
-3.86608e-05
-1.4024e-07
-3.87234e-05
-6.35811e-06
-4.71774e-05
-1.66597e-05
-5.8525e-05
-2.15392e-05
-6.55152e-05
-1.46026e-05
-6.36691e-05
3.61476e-07
-5.59511e-05
1.47447e-05
-4.78808e-05
2.16365e-05
-4.17813e-05
2.23623e-05
-3.73368e-05
2.37159e-05
-3.13521e-05
3.11764e-05
-1.88438e-05
4.40685e-05
4.85299e-05
0.000233043
0.000502395
0.000457565
0.000541485
0.000611163
0.000468333
0.000687268
0.000364355
0.000690486
0.00023785
0.000630904
0.000100971
0.000522833
-3.10557e-05
0.000375716
-0.000143448
0.00022159
-0.000223773
8.47168e-05
-0.000265947
-1.80939e-05
-0.000274781
-8.35262e-05
-0.000261492
-0.000118163
-0.000239054
-0.000136054
-0.000215042
-0.000147186
-0.000191346
-0.000153518
-0.000164961
-0.000150879
-0.000133344
-0.000135467
-9.8325e-05
-0.000109653
-6.5572e-05
-8.1468e-05
-4.06072e-05
-5.98426e-05
-2.47759e-05
-4.65653e-05
-1.47e-05
-3.72809e-05
-5.55684e-06
-2.58242e-05
4.226e-06
-1.09599e-05
1.22169e-05
3.96643e-06
1.47569e-05
1.14751e-05
1.07078e-05
9.1212e-06
3.29154e-06
1.08425e-06
-2.284e-06
-5.52856e-06
-3.35526e-06
-6.91672e-06
-1.52412e-06
-5.61943e-06
-1.43925e-06
-7.85269e-06
-4.12763e-06
-1.63807e-05
-8.13278e-06
-2.8467e-05
-9.4511e-06
-3.7344e-05
-5.723e-06
-3.92471e-05
2.26573e-06
-3.53315e-05
1.08345e-05
-2.99186e-05
1.62259e-05
-2.67385e-05
1.91769e-05
-2.54901e-05
2.24666e-05
-2.23667e-05
2.80575e-05
-1.3347e-05
3.50526e-05
3.51839e-05
0.000160648
0.000341746
0.000327929
0.0003742
0.000461952
0.000334308
0.000551593
0.000274713
0.000590489
0.000198956
0.00057797
0.000113491
0.000520258
2.66578e-05
0.000426783
-4.99736e-05
0.000316863
-0.000113853
0.000207413
-0.000156498
0.0001126
-0.000179967
3.91335e-05
-0.000188021
-1.42203e-05
-0.000185697
-5.21389e-05
-0.000177125
-7.94144e-05
-0.000164074
-9.758e-05
-0.000146797
-0.00010533
-0.000125589
-0.000101661
-0.000101991
-8.84927e-05
-7.87437e-05
-7.06855e-05
-5.84178e-05
-5.33362e-05
-4.21238e-05
-3.87816e-05
-2.92549e-05
-2.58519e-05
-1.84914e-05
-1.23867e-05
-9.24269e-06
2.10492e-06
-2.27469e-06
1.49836e-05
1.87684e-06
2.30166e-05
2.67298e-06
2.48581e-05
1.45112e-06
2.23709e-05
2.03828e-07
1.90473e-05
-3.36828e-08
1.69435e-05
5.77657e-07
1.48096e-05
6.9279e-07
1.06502e-05
3.00847e-08
3.26863e-06
-7.53677e-07
-5.7722e-06
-4.09481e-07
-1.35253e-05
2.03606e-06
-1.77328e-05
6.47229e-06
-1.80236e-05
1.1122e-05
-1.70361e-05
1.52418e-05
-1.641e-05
1.85527e-05
-1.57825e-05
2.18386e-05
-1.33151e-05
2.55927e-05
-7.54703e-06
2.92883e-05
2.76366e-05
0.000112136
0.000229607
0.000232893
0.00025344
0.000336945
0.000230256
0.000416236
0.000195421
0.000464431
0.000150762
0.000478293
9.96289e-05
0.000458622
4.63274e-05
0.000412578
-3.93088e-06
0.000345133
-4.64067e-05
0.000272454
-8.38176e-05
0.000201135
-0.000108646
0.000137123
-0.000124006
8.28161e-05
-0.00013139
3.80895e-05
-0.000132401
2.24476e-06
-0.000128229
-2.48297e-05
-0.000119718
-4.2695e-05
-0.000107719
-5.12561e-05
-9.34316e-05
-5.17121e-05
-7.82926e-05
-4.64901e-05
-6.36395e-05
-3.83107e-05
-5.02998e-05
-2.89937e-05
-3.85746e-05
-1.90997e-05
-2.83922e-05
-8.65258e-06
-1.96913e-05
1.74719e-06
-1.26727e-05
1.10889e-05
-7.46694e-06
1.77692e-05
-4.0096e-06
2.10797e-05
-1.85797e-06
2.1589e-05
-3.05111e-07
2.05884e-05
9.64437e-07
1.89773e-05
2.18465e-06
1.64999e-05
3.16618e-06
1.26491e-05
3.88225e-06
7.29832e-06
4.598e-06
1.12479e-06
5.75981e-06
-4.4924e-06
7.65555e-06
-8.25527e-06
1.02385e-05
-1.02648e-05
1.31273e-05
-1.10006e-05
1.59757e-05
-1.10713e-05
1.8627e-05
-1.03634e-05
2.11336e-05
-8.28301e-06
2.35125e-05
-4.50795e-06
2.55127e-05
2.31274e-05
7.96758e-05
0.000149929
0.000166628
0.000166486
0.000243865
0.00015302
0.000306374
0.000132909
0.000349996
0.000107137
0.000372261
7.73623e-05
0.000372876
4.57116e-05
0.000354392
1.45526e-05
0.000322578
-1.45912e-05
0.000278028
-3.92657e-05
0.000229739
-6.03557e-05
0.000181341
-7.5609e-05
0.000135655
-8.57041e-05
9.43399e-05
-9.10853e-05
5.83951e-05
-9.22821e-05
2.85684e-05
-8.98875e-05
5.42051e-06
-8.45715e-05
-1.09316e-05
-7.70832e-05
-2.09974e-05
-6.82284e-05
-2.58301e-05
-5.88047e-05
-2.67262e-05
-4.94044e-05
-2.48862e-05
-4.04201e-05
-2.11736e-05
-3.21081e-05
-1.62093e-05
-2.46542e-05
-1.0716e-05
-1.81664e-05
-5.46211e-06
-1.27237e-05
-1.18324e-06
-8.28826e-06
1.67388e-06
-4.71487e-06
3.17178e-06
-1.80656e-06
3.53306e-06
6.02283e-07
3.05396e-06
2.6636e-06
1.8099e-06
4.40417e-06
-1.95872e-07
5.8866e-06
-2.7809e-06
7.18801e-06
-5.82238e-06
8.79894e-06
-8.61241e-06
1.0442e-05
-1.06264e-05
1.22555e-05
-1.16636e-05
1.41659e-05
-1.17601e-05
1.60694e-05
-1.10178e-05
1.78831e-05
-9.43215e-06
1.95481e-05
-6.91913e-06
2.09995e-05
-3.52004e-06
2.2113e-05
1.96073e-05
5.68588e-05
9.30677e-05
0.000119433
0.000103912
0.000176077
9.63749e-05
0.000223792
8.51911e-05
0.000260059
7.08676e-05
0.00028324
5.41822e-05
0.000292869
3.60846e-05
0.00028978
1.76431e-05
0.000274927
2.63477e-07
0.000251612
-1.59487e-05
0.000221727
-3.04693e-05
0.00018842
-4.23014e-05
0.000153891
-5.11747e-05
0.000119995
-5.71885e-05
8.81995e-05
-6.04842e-05
5.96147e-05
-6.13017e-05
3.50122e-05
-5.99707e-05
1.48215e-05
-5.68941e-05
-8.84846e-07
-5.25208e-05
-1.24434e-05
-4.72457e-05
-2.03815e-05
-4.14705e-05
-2.52869e-05
-3.55186e-05
-2.77508e-05
-2.96419e-05
-2.83744e-05
-2.4028e-05
-2.7724e-05
-1.88208e-05
-2.63349e-05
-1.41159e-05
-2.46728e-05
-9.94626e-06
-2.30844e-05
-6.30218e-06
-2.17553e-05
-3.14207e-06
-2.07329e-05
-4.21331e-07
-1.99613e-05
1.89639e-06
-1.9569e-05
4.00854e-06
-1.94172e-05
5.7298e-06
-1.95718e-05
7.3461e-06
-1.96705e-05
8.89998e-06
-1.96217e-05
1.03903e-05
-1.91534e-05
1.17865e-05
-1.8116e-05
1.31305e-05
-1.64519e-05
1.44057e-05
-1.41519e-05
1.55815e-05
-1.12259e-05
1.66205e-05
-7.70561e-06
1.74785e-05
-3.69292e-06
1.81002e-05
1.59153e-05
3.69125e-05
5.61529e-05
7.79173e-05
6.29085e-05
0.000115625
5.86655e-05
0.000148412
5.24005e-05
0.000174901
4.43777e-05
0.000194106
3.49793e-05
0.00020553
2.4664e-05
0.000209232
1.3943e-05
0.000206141
3.35433e-06
0.000196917
-6.72446e-06
0.000182096
-1.56478e-05
0.000163438
-2.3643e-05
0.000142277
-3.00126e-05
0.000119872
-3.47834e-05
9.73347e-05
-3.79475e-05
7.56045e-05
-3.95729e-05
5.54258e-05
-3.97936e-05
3.73257e-05
-3.87939e-05
2.15898e-05
-3.67834e-05
8.34305e-06
-3.40002e-05
-2.4672e-06
-3.06649e-05
-1.10001e-05
-2.69873e-05
-1.74966e-05
-2.31413e-05
-2.22365e-05
-1.9286e-05
-2.55164e-05
-1.55452e-05
-2.76326e-05
-1.20024e-05
-2.88566e-05
-8.7179e-06
-2.94291e-05
-5.72756e-06
-2.95331e-05
-3.04329e-06
-2.93064e-05
-6.4986e-07
-2.88503e-05
1.44458e-06
-2.81775e-05
3.33581e-06
-2.74304e-05
4.97844e-06
-2.65184e-05
6.43411e-06
-2.53529e-05
7.73678e-06
-2.38745e-05
8.91127e-06
-2.20729e-05
9.98313e-06
-1.9903e-05
1.09603e-05
-1.73393e-05
1.18427e-05
-1.438e-05
1.26223e-05
-1.10446e-05
1.32847e-05
-7.37647e-06
1.381e-05
-3.45201e-06
1.41757e-05
1.24632e-05
2.31678e-05
3.29846e-05
4.91674e-05
3.69123e-05
7.34073e-05
3.44252e-05
9.50433e-05
3.07638e-05
0.00011335
2.60736e-05
0.000127772
2.05619e-05
0.00013796
1.44793e-05
0.000143804
8.10024e-06
0.00014546
1.69909e-06
0.000143194
-4.45814e-06
0.000137481
-9.93418e-06
0.000128853
-1.50145e-05
0.000117983
-1.91417e-05
0.000105546
-2.23458e-05
9.2186e-05
-2.45888e-05
7.84935e-05
-2.58819e-05
6.49785e-05
-2.62793e-05
5.20557e-05
-2.58696e-05
4.00399e-05
-2.47656e-05
2.91348e-05
-2.30957e-05
1.94596e-05
-2.09925e-05
1.10563e-05
-1.85843e-05
3.9126e-06
-1.59939e-05
-2.04458e-06
-1.33268e-05
-6.91681e-06
-1.06758e-05
-1.081e-05
-8.11095e-06
-1.38376e-05
-5.68696e-06
-1.61237e-05
-3.4391e-06
-1.77888e-05
-1.38078e-06
-1.89151e-05
4.74847e-07
-1.95882e-05
2.12021e-06
-1.98438e-05
3.59258e-06
-1.97272e-05
4.85941e-06
-1.92889e-05
5.99396e-06
-1.85322e-05
6.98019e-06
-1.74675e-05
7.84602e-06
-1.61065e-05
8.62039e-06
-1.44521e-05
9.30441e-06
-1.25136e-05
9.9035e-06
-1.03095e-05
1.04182e-05
-7.86937e-06
1.08445e-05
-5.23415e-06
1.11745e-05
-2.45829e-06
1.13992e-05
1.00032e-05
1.59085e-05
1.70771e-05
3.38576e-05
1.89667e-05
5.07653e-05
1.7517e-05
6.61457e-05
1.53838e-05
7.95804e-05
1.26422e-05
9.07175e-05
9.42766e-06
9.93077e-05
5.8909e-06
0.000105213
2.19658e-06
0.000108414
-1.50169e-06
0.000109007
-5.05195e-06
0.000107274
-8.20156e-06
0.000103413
-1.11535e-05
9.77974e-05
-1.35249e-05
9.07811e-05
-1.5329e-05
8.27343e-05
-1.65426e-05
7.40183e-05
-1.71671e-05
6.49709e-05
-1.7232e-05
5.58913e-05
-1.67881e-05
4.70272e-05
-1.58992e-05
3.85741e-05
-1.46425e-05
3.06805e-05
-1.31008e-05
2.34513e-05
-1.13552e-05
1.69464e-05
-9.48642e-06
1.11886e-05
-7.56755e-06
6.16138e-06
-5.65044e-06
1.84816e-06
-3.79911e-06
-1.78552e-06
-2.0511e-06
-4.7854e-06
-4.36986e-07
-7.20291e-06
1.03568e-06
-9.08522e-06
2.35582e-06
-1.04847e-05
3.52083e-06
-1.14294e-05
4.53822e-06
-1.19911e-05
5.41974e-06
-1.21762e-05
6.17699e-06
-1.19747e-05
6.77745e-06
-1.14978e-05
7.36806e-06
-1.07507e-05
7.87153e-06
-9.73757e-06
8.28921e-06
-8.48195e-06
8.6459e-06
-7.01315e-06
8.94763e-06
-5.36514e-06
9.19479e-06
-3.57712e-06
9.38467e-06
-1.6949e-06
9.51488e-06
8.30664e-06
1.11789e-05
5.90117e-06
2.37371e-05
6.41212e-06
3.56476e-05
5.60664e-06
4.65913e-05
4.44187e-06
5.63529e-05
2.88408e-06
6.466e-05
1.1226e-06
7.13386e-05
-7.86036e-07
7.62351e-05
-2.69763e-06
7.93795e-05
-4.64501e-06
8.0719e-05
-6.39154e-06
8.03396e-05
-7.82219e-06
7.84814e-05
-9.29424e-06
7.52831e-05
-1.03248e-05
7.09416e-05
-1.09859e-05
6.56872e-05
-1.12876e-05
5.97523e-05
-1.12324e-05
5.33701e-05
-1.08492e-05
4.67602e-05
-1.01762e-05
4.01043e-05
-9.24094e-06
3.35742e-05
-8.1119e-06
2.73106e-05
-6.83838e-06
2.1414e-05
-5.45904e-06
1.59563e-05
-4.02712e-06
1.10313e-05
-2.64157e-06
6.58496e-06
-1.20528e-06
2.68004e-06
1.04796e-07
-6.91208e-07
1.32164e-06
-3.55871e-06
2.43257e-06
-5.93002e-06
3.40697e-06
-7.81136e-06
4.23628e-06
-9.20078e-06
4.91056e-06
-1.0166e-05
5.50404e-06
-1.07578e-05
6.01067e-06
-1.0976e-05
6.39327e-06
-1.09031e-05
6.7028e-06
-1.04959e-05
6.9593e-06
-9.79181e-06
7.16562e-06
-8.83551e-06
7.33057e-06
-7.65935e-06
7.46707e-06
-6.30224e-06
7.58774e-06
-4.79752e-06
7.68725e-06
-3.17887e-06
7.76321e-06
-1.48197e-06
7.81534e-06
6.82378e-06
7.31626e-06
-1.41244e-06
1.55847e-05
-1.85421e-06
2.34834e-05
-2.29187e-06
3.07988e-05
-2.87126e-06
3.72503e-05
-3.5647e-06
4.26916e-05
-4.31787e-06
4.69777e-05
-5.07029e-06
5.01416e-05
-5.85889e-06
5.20233e-05
-6.52514e-06
5.26813e-05
-7.04898e-06
5.22687e-05
-7.40875e-06
5.06018e-05
-7.62558e-06
4.7919e-05
-7.63966e-06
4.43809e-05
-7.44569e-06
4.01487e-05
-7.0543e-06
3.5386e-05
-6.46968e-06
3.0285e-05
-5.74805e-06
2.50005e-05
-4.89056e-06
1.96404e-05
-3.87929e-06
1.43912e-05
-2.86236e-06
9.40916e-06
-1.85735e-06
4.73006e-06
-7.80376e-07
4.12112e-07
2.91881e-07
-3.53969e-06
1.3112e-06
-6.99866e-06
2.25316e-06
-9.98843e-06
3.09389e-06
-1.2491e-05
3.82515e-06
-1.44977e-05
4.44088e-06
-1.60298e-05
4.93927e-06
-1.71178e-05
5.32348e-06
-1.78102e-05
5.60239e-06
-1.8099e-05
5.79261e-06
-1.79585e-05
5.86914e-06
-1.74169e-05
5.84997e-06
-1.65732e-05
5.85724e-06
-1.54435e-05
5.82805e-06
-1.40456e-05
5.76626e-06
-1.24028e-05
5.68609e-06
-1.05391e-05
5.60152e-06
-8.54239e-06
5.58896e-06
-6.4315e-06
5.57414e-06
-4.23063e-06
5.56011e-06
-1.97555e-06
5.55821e-06
4.84772e-06
3.94841e-06
-5.35882e-06
8.41603e-06
-6.32e-06
1.26352e-05
-6.50974e-06
1.64375e-05
-6.67038e-06
1.96692e-05
-6.79443e-06
2.22107e-05
-6.85891e-06
2.39805e-05
-6.83786e-06
2.48413e-05
-6.71671e-06
2.48019e-05
-6.48378e-06
2.38826e-05
-6.1283e-06
2.21266e-05
-5.65143e-06
1.95759e-05
-5.0734e-06
1.63514e-05
-4.41332e-06
1.25587e-05
-3.65138e-06
8.29708e-06
-2.79216e-06
3.66094e-06
-1.83409e-06
-1.05482e-06
-1.03292e-06
-5.73817e-06
-2.069e-07
-1.0275e-05
6.58528e-07
-1.46455e-05
1.50868e-06
-1.87886e-05
2.28545e-06
-2.25751e-05
3.00612e-06
-2.59278e-05
3.64576e-06
-2.88007e-05
4.18518e-06
-3.11565e-05
4.60899e-06
-3.29795e-05
4.91638e-06
-3.42623e-05
5.10839e-06
-3.50108e-05
5.19026e-06
-3.52421e-05
5.17078e-06
-3.49809e-05
5.06152e-06
-3.42554e-05
4.876e-06