/*--------------------------------*- C++ -*----------------------------------*\
  =========                 |
  \\      /  F ield         | OpenFOAM: The Open Source CFD Toolbox
   \\    /   O peration     | Website:  https://openfoam.org
    \\  /    A nd           | Version:  7
     \\/     M anipulation  |
\*---------------------------------------------------------------------------*/
FoamFile
{
    version     2.0;
    format      ascii;
    class       volScalarField;
    location    "1.3";
    object      p;
}
// * * * * * * * * * * * * * * * * * * * * * * * * * * * * * * * * * * * * * //

dimensions      [0 2 -2 0 0 0 0];

internalField   nonuniform List<scalar> 
900
(
-3.28221e-08
-0.000140081
-0.00022659
-0.00025064
-0.000192601
-4.81322e-05
0.000179211
0.000484172
0.000861475
0.00130578
0.00181136
0.00237179
0.00297984
0.00362729
0.00430494
0.0050026
0.00570912
0.00641253
0.00710013
0.00775874
0.0083749
0.00893513
0.00942619
0.00983534
0.0101507
0.0103618
0.0104627
0.0104588
0.0103742
0.0102225
0.000138875
-2.45038e-06
-6.10519e-05
-5.87839e-05
1.17233e-05
0.000156787
0.000376409
0.00066812
0.00102844
0.00145304
0.00193675
0.00247355
0.00305645
0.00367753
0.00432785
0.0049975
0.00567568
0.00635073
0.00701034
0.00764175
0.00823198
0.00876815
0.0092379
0.00962986
0.00993429
0.010144
0.0102569
0.0102804
0.0102259
0.0100735
0.000227792
5.28115e-05
-7.93957e-06
-1.32658e-06
7.14581e-05
0.000215783
0.000431947
0.000718079
0.00107134
0.00148792
0.00196305
0.00249098
0.00306499
0.00367733
0.00431922
0.00498089
0.00565173
0.00632004
0.00697358
0.00759962
0.00818517
0.00871738
0.00918398
0.0095738
0.00987744
0.0100881
0.0102036
0.0102309
0.0101727
0.00998373
0.000255381
4.348e-05
-2.73724e-05
-2.334e-05
4.83278e-05
0.000191592
0.000406218
0.000690314
0.0010413
0.00145572
0.00192907
0.0024559
0.00302967
0.00364282
0.00428669
0.00495156
0.0056267
0.00630044
0.00696036
0.00759345
0.00818644
0.00872611
0.00919983
0.00959604
0.00990496
0.0101192
0.0102357
0.0102602
0.0101898
0.00996086
0.000198198
-4.22905e-05
-0.000123305
-0.000123571
-5.38475e-05
8.89023e-05
0.000303914
0.000589151
0.000942159
0.00135968
0.00183748
0.00237029
0.00295177
0.00357447
0.00422978
0.00490793
0.00559814
0.00628844
0.00696605
0.00761751
0.00822892
0.00878638
0.00927646
0.0096868
0.0100068
0.010228
0.0103467
0.0103676
0.0102852
0.0100243
4.6847e-05
-0.000216235
-0.000306643
-0.000311432
-0.000243308
-9.97179e-05
0.00011818
0.000408199
0.000767942
0.00119431
0.00168324
0.00222964
0.00282732
0.00346891
0.00414579
0.00484807
0.00556476
0.00628348
0.00699092
0.00767288
0.00831456
0.00890097
0.00941749
0.00985052
0.0101882
0.0104209
0.010544
0.010562
0.0104685
0.0101808
-0.00020135
-0.000484702
-0.000583989
-0.000592873
-0.000525342
-0.000379055
-0.000155447
0.000143179
0.000514474
0.000955472
0.00146228
0.00202995
0.00265243
0.00332239
0.00403118
0.00476871
0.00552369
0.0062832
0.00703324
0.00775859
0.00844323
0.0090707
0.00962472
0.01009
0.0104529
0.0107026
0.0108332
0.0108496
0.0107454
0.0104316
-0.000548703
-0.000852903
-0.000961051
-0.000973443
-0.000905235
-0.000754182
-0.000521925
-0.00021085
0.000176764
0.000638093
0.00116941
0.00176595
0.00242176
0.00312959
0.00388072
0.00466489
0.00547037
0.00628367
0.00708985
0.0078725
0.00861399
0.00929595
0.00989995
0.0104084
0.0108055
0.0110784
0.0112204
0.0112368
0.0111214
0.0107786
-0.000999233
-0.00132685
-0.0014444
-0.00145984
-0.00138968
-0.00123176
-0.000987925
-0.000660624
-0.000252042
0.000235175
0.000797508
0.00143038
0.00212799
0.00288318
0.00368722
0.00452977
0.00539844
0.00627931
0.00715629
0.00801147
0.00882532
0.00957707
0.0102455
0.01081
0.0112518
0.0115557
0.0117136
0.0117315
0.0116037
0.0112268
-0.00155904
-0.00191394
-0.00204193
-0.00206015
-0.00198687
-0.00182006
-0.00156181
-0.00121464
-0.00078061
-0.000262149
0.000337483
0.00101396
0.00176173
0.00257376
0.00344139
0.00435415
0.00529948
0.00626257
0.00722621
0.00817085
0.00907463
0.00991385
0.0106637
0.0112997
0.0117992
0.0121436
0.012323
0.0123441
0.0122018
0.0117833
-0.00223636
-0.00262336
-0.00276319
-0.00278414
-0.00270669
-0.00252907
-0.00225369
-0.00188319
-0.00141946
-0.000864662
-0.000221725
0.000505375
0.0013114
0.00218963
0.00313159
0.00412683
0.00516255
0.00622335
0.00729089
0.00834378
0.00935754
0.0103049
0.0111566
0.0118831
0.0124563
0.0128531
0.0130609
0.0130871
0.0129276
0.012458
-0.00304151
-0.00346633
-0.00361976
-0.00364354
-0.00356096
-0.0033707
-0.00307563
-0.00267852
-0.0021811
-0.00158519
-0.000893301
-0.000108959
0.000763077
0.00171653
0.00274333
0.00383327
0.00497352
0.00614833
0.00733836
0.00852039
0.00966704
0.0107469
0.0117251
0.0125654
0.0132328
0.0136974
0.0139425
0.0139764
0.013796
0.013263
-0.00398712
-0.00445644
-0.00462555
-0.00465235
-0.00456372
-0.00435901
-0.00404177
-0.00361496
-0.00308013
-0.0024387
-0.00169268
-0.000844991
0.000100231
0.00113738
0.00225904
0.00345558
0.00471452
0.00602015
0.00735245
0.00868659
0.0099922
0.0112331
0.0123678
0.0133514
0.0141391
0.0146918
0.0149864
0.0150313
0.0148251
0.0142129
-0.00508829
-0.00561007
-0.00579727
-0.00582728
-0.00573154
-0.00551049
-0.00516859
-0.00470911
-0.00413342
-0.00344245
-0.00263762
-0.00172114
-0.000696332
0.000432122
0.00165779
0.00297203
0.00436328
0.00581646
0.00731152
0.00882254
0.0103164
0.0117519
0.0130795
0.0142436
0.0151861
0.0158542
0.0162153
0.0162762
0.0160376
0.0153247
-0.00636308
-0.006947
-0.00715498
-0.0071882
-0.00708397
-0.00684436
-0.00647512
-0.00598
-0.00536013
-0.00461597
-0.00374823
-0.00275831
-0.00164851
-0.000422369
0.000915061
0.00235666
0.00389245
0.00550891
0.00718696
0.00890064
0.0106149
0.0122836
0.0138486
0.0152403
0.0163832
0.0172049
0.0176568
0.0177417
0.017462
0.0166176
-0.00783318
-0.00849123
-0.00872295
-0.00875886
-0.00864403
-0.00838299
-0.00798326
-0.00744923
-0.00678188
-0.0059811
-0.00504687
-0.00397967
-0.00278071
-0.00145211
2.82615e-06
0.0015791
0.00326914
0.00506215
0.00694154
0.00888309
0.0108515
0.0127969
0.0146521
0.0163315
0.0177361
0.0187651
0.0193445
0.0194669
0.0191345
0.0181129
-0.00952496
-0.0102724
-0.0105309
-0.0105679
-0.010439
-0.0101524
-0.00971801
-0.00914116
-0.00842264
-0.00756179
-0.00655783
-0.00541033
-0.00411937
-0.00268551
-0.00111001
0.000604845
0.00245471
0.00443311
0.00652784
0.00871908
0.0109743
0.0132427
0.0154495
0.0174917
0.0192404
0.0205544
0.0213186
0.0215033
0.0211038
0.0198334
-0.0114711
-0.0123278
-0.0126157
-0.0126502
-0.0125013
-0.0121828
-0.0117079
-0.011083
-0.0103088
-0.00938386
-0.00830687
-0.00707657
-0.005692
-0.00415229
-0.00245651
-0.000603902
0.00140567
0.00357101
0.00588722
0.00834206
0.0109106
0.0135465
0.0161721
0.0186683
0.0208711
0.0225835
0.0236248
0.0239198
0.0234388
0.0218042
-0.0137134
-0.0147057
-0.0150242
-0.0150486
-0.0148699
-0.0145096
-0.0139855
-0.013305
-0.0124687
-0.0114745
-0.0103204
-0.00900468
-0.00752575
-0.00588164
-0.00406962
-0.00208561
7.57656e-05
0.00241931
0.00495019
0.00766787
0.0105614
0.013598
0.0167071
0.0197616
0.0225617
0.0248379
0.0263089
0.0268104
0.026244
0.0240579
-0.0163073
-0.0174704
-0.017817
-0.0178168
-0.0175914
-0.0171739
-0.0165873
-0.0158403
-0.0149325
-0.0138613
-0.0126241
-0.0112193
-0.00964515
-0.00789946
-0.00597835
-0.00387528
-0.0015802
0.000919821
0.00364025
0.0065959
0.00979837
0.0132409
0.0168775
0.0205927
0.0241648
0.0272424
0.0293972
0.0303004
0.0296875
0.0266566
-0.0193302
-0.0207108
-0.0210744
-0.0210223
-0.0207221
-0.0202233
-0.0195545
-0.0187246
-0.0177314
-0.0165712
-0.0152413
-0.0137407
-0.0120687
-0.010224
-0.00820308
-0.00599843
-0.0035968
-0.000978113
0.00188333
0.00501755
0.00846758
0.0122671
0.0164202
0.0208611
0.0253882
0.0295877
0.0328426
0.0345394
0.0340447
0.0297565
-0.0228974
-0.0245541
-0.0249047
-0.0247502
-0.024329
-0.0237118
-0.0229317
-0.0219945
-0.0208949
-0.0196272
-0.0181888
-0.0165801
-0.014803
-0.0128589
-0.0107469
-0.00846089
-0.00598737
-0.00330181
-0.0003682
0.00283946
0.00641289
0.0104341
0.0149847
0.0201064
0.0257072
0.0314021
0.0364009
0.0396457
0.0397427
0.0337645
-0.0271954
-0.0291892
-0.0294545
-0.0291054
-0.0284883
-0.0276968
-0.0267622
-0.0256823
-0.0244448
-0.0230409
-0.0214684
-0.0197302
-0.0178324
-0.0157815
-0.0135815
-0.0112317
-0.00872317
-0.00603022
-0.00309058
3.03404e-05
0.00353735
0.00753683
0.0122018
0.0177458
0.0243285
0.0318125
0.0394246
0.0455478
0.0473535
0.0396638
-0.0325512
-0.0349035
-0.0349199
-0.0342095
-0.0332753
-0.0322258
-0.0310738
-0.0297987
-0.0283761
-0.0267926
-0.0250462
-0.0231438
-0.0210972
-0.01892
-0.016624
-0.0142177
-0.011704
-0.00908057
-0.00634759
-0.00333165
-8.85718e-05
0.00356947
0.00790714
0.0133434
0.0204443
0.0296757
0.0407914
0.0517943
0.05754
0.0496007
-0.0395855
-0.0421393
-0.0415458
-0.0401747
-0.038729
-0.0372942
-0.0358314
-0.0342832
-0.0326063
-0.0307802
-0.0288035
-0.0266877
-0.0244516
-0.0221161
-0.0197021
-0.017228
-0.0147086
-0.0121548
-0.00956656
-0.00689866
-0.00409952
-0.00107598
0.00248446
0.00718196
0.0140625
0.0245297
0.0396613
0.0578878
0.0713028
0.0676279
-0.0495672
-0.0515595
-0.0495593
-0.0470002
-0.0447312
-0.0427157
-0.0408017
-0.0388701
-0.0368481
-0.0347041
-0.0324354
-0.0300571
-0.0275929
-0.0250699
-0.0225155
-0.0199561
-0.0174169
-0.0149225
-0.0124954
-0.0101447
-0.00785459
-0.00552172
-0.00287796
0.000822976
0.00707518
0.0181148
0.037381
0.0649304
0.0910641
0.0998294
-0.0654478
-0.0640863
-0.0589376
-0.0542834
-0.050699
-0.0478146
-0.0452635
-0.0428324
-0.0403963
-0.0378977
-0.0353235
-0.0326845
-0.0300036
-0.0273086
-0.0246283
-0.0219922
-0.0194302
-0.0169736
-0.0146543
-0.0125001
-0.010513
-0.00859939
-0.00639457
-0.00299831
0.00362316
0.0152174
0.0394135
0.0781545
0.122166
0.154675
-0.0946129
-0.0803807
-0.0690907
-0.06084
-0.0551976
-0.0511358
-0.0478237
-0.0449029
-0.042135
-0.0393992
-0.0366498
-0.0338808
-0.0311055
-0.028347
-0.0256317
-0.0229877
-0.0204438
-0.0180283
-0.0157644
-0.013659
-0.0116757
-0.00966357
-0.00701138
-0.00261066
0.00590298
0.0225286
0.0540345
0.106681
0.173003
0.251215
-0.147743
-0.0957605
-0.0770966
-0.0633396
-0.0550417
-0.0499603
-0.0463983
-0.0435111
-0.0408889
-0.038338
-0.0357773
-0.0331853
-0.0305707
-0.0279568
-0.0253723
-0.0228473
-0.0204103
-0.0180837
-0.0158722
-0.0137331
-0.0115188
-0.00887005
-0.00508759
0.00154091
0.0140673
0.0379427
0.0811468
0.154321
0.257117
0.428265
-0.318787
-0.104807
-0.0586788
-0.0441298
-0.0377059
-0.0352608
-0.034544
-0.0341561
-0.0335318
-0.0325373
-0.0311853
-0.0295328
-0.0276506
-0.0256113
-0.0234813
-0.0213184
-0.0191688
-0.0170628
-0.0150008
-0.0129244
-0.0106589
-0.00779125
-0.00342663
0.00440335
0.0191386
0.0474378
0.100127
0.200367
0.369915
0.714845
)
;

boundaryField
{
    movingWall
    {
        type            zeroGradient;
    }
    fixedWalls
    {
        type            zeroGradient;
    }
    frontAndBack
    {
        type            empty;
    }
}


// ************************************************************************* //
