/*--------------------------------*- C++ -*----------------------------------*\
  =========                 |
  \\      /  F ield         | OpenFOAM: The Open Source CFD Toolbox
   \\    /   O peration     | Website:  https://openfoam.org
    \\  /    A nd           | Version:  7
     \\/     M anipulation  |
\*---------------------------------------------------------------------------*/
FoamFile
{
    version     2.0;
    format      ascii;
    class       volScalarField;
    location    "8.2";
    object      p;
}
// * * * * * * * * * * * * * * * * * * * * * * * * * * * * * * * * * * * * * //

dimensions      [0 2 -2 0 0 0 0];

internalField   nonuniform List<scalar> 
900
(
8.14417e-07
-0.000146035
-0.000329839
-0.000492951
-0.000602255
-0.000638886
-0.000595916
-0.000471935
-0.000267215
1.77457e-05
0.00038226
0.000824581
0.00134057
0.00192217
0.002556
0.00322245
0.00389545
0.0045433
0.00513099
0.00562354
0.00599042
0.00621029
0.00627524
0.00619339
0.00598995
0.00570553
0.00538228
0.00509301
0.00488838
0.00482859
0.000146671
-3.90342e-06
-0.000133563
-0.000238705
-0.000299747
-0.000302562
-0.00024111
-0.000112985
8.28556e-05
0.000346767
0.000678357
0.00107587
0.00153525
0.00204898
0.00260506
0.00318603
0.00377043
0.00433108
0.00483882
0.00526491
0.00558468
0.00578153
0.00585027
0.00579913
0.0056499
0.00543592
0.00519698
0.00497686
0.00481931
0.00476601
0.000339581
0.00012106
-1.1978e-05
-0.00010258
-0.00014697
-0.000136224
-6.73706e-05
6.06161e-05
0.00024855
0.00049712
0.000806551
0.00117592
0.00160221
0.0020792
0.0025964
0.00313879
0.00368585
0.00421239
0.00469079
0.00509337
0.00539612
0.0055827
0.00564788
0.00559952
0.00545847
0.00525601
0.00502958
0.00481826
0.00465709
0.00457291
0.000514964
0.000215613
6.05085e-05
-3.22237e-05
-7.25596e-05
-5.70445e-05
1.34349e-05
0.000137748
0.000316012
0.000549164
0.000838311
0.00118387
0.00158452
0.00203591
0.00252951
0.0030517
0.00358335
0.00409966
0.00457249
0.00497282
0.00527461
0.00545935
0.00552
0.00546336
0.00531002
0.00509146
0.00484541
0.00461126
0.00442098
0.00428284
0.000626342
0.000245253
6.26331e-05
-3.95075e-05
-8.28579e-05
-6.87081e-05
-1.63129e-06
0.000115098
0.000280909
0.00049709
0.000765869
0.00108938
0.00146841
0.00190099
0.00238075
0.00289561
0.00342801
0.00395242
0.00443909
0.00485586
0.0051726
0.00536643
0.00542662
0.00535781
0.00518036
0.0049273
0.00463921
0.00435937
0.00412008
0.00391562
0.000634157
0.000175884
-3.60316e-05
-0.000151957
-0.00020361
-0.000196272
-0.000137721
-3.30689e-05
0.000116625
0.000313194
0.000560235
0.000861923
0.00122161
0.00164016
0.00211382
0.00263231
0.00318061
0.0037314
0.00425254
0.00470734
0.0050594
0.00527892
0.00534896
0.0052701
0.00506179
0.00475948
0.00440913
0.00406182
0.00375466
0.00347199
0.000507367
-2.11676e-05
-0.000261924
-0.000394007
-0.000457877
-0.000462221
-0.000417522
-0.000330358
-0.000202025
-2.99456e-05
0.000191067
0.000467547
0.000805857
0.00121029
0.00168052
0.00220869
0.00278462
0.00337817
0.00395495
0.00447272
0.00488664
0.00515679
0.00525637
0.00517861
0.00494012
0.00457882
0.00414834
0.00371188
0.003316
0.00293551
0.000220095
-0.000371135
-0.000639216
-0.000788824
-0.000868268
-0.000889256
-0.000864585
-0.000802012
-0.000702902
-0.000563828
-0.000377881
-0.000135905
0.000171958
0.0005543
0.00101634
0.00155726
0.00216063
0.00280801
0.00346087
0.00407043
0.00458122
0.00493923
0.00510243
0.0050512
0.00479502
0.0043727
0.00384732
0.00329916
0.00278937
0.0022821
-0.000250177
-0.000896452
-0.00119013
-0.00135858
-0.00145731
-0.00150085
-0.00150411
-0.00147594
-0.00141779
-0.00132552
-0.00119057
-0.00100107
-0.000743215
-0.000403029
3.12893e-05
0.0005657
0.00119294
0.00189839
0.00264436
0.00337759
0.0040307
0.00453092
0.00481346
0.00483677
0.00459509
0.0041233
0.0034943
0.00281128
0.0021564
0.00147995
-0.000922995
-0.00161654
-0.00193428
-0.00212341
-0.00224612
-0.00231976
-0.00236139
-0.0023811
-0.00238081
-0.00235611
-0.00229726
-0.00218996
-0.00201613
-0.00175533
-0.00138682
-0.000893922
-0.000271477
0.000478953
0.0013247
0.00221226
0.003063
0.00378097
0.00426879
0.00444918
0.00428667
0.00380152
0.00307336
0.00223461
0.00139741
0.000493632
-0.0018146
-0.00254734
-0.00288789
-0.00310034
-0.00325303
-0.00336634
-0.00345974
-0.00354511
-0.00362562
-0.00369753
-0.00375099
-0.00377005
-0.00373267
-0.00361112
-0.00337329
-0.00298648
-0.00242509
-0.00167235
-0.000742332
0.000319283
0.00142716
0.00245992
0.00327657
0.00374495
0.00377654
0.00335625
0.00255994
0.00155413
0.000493361
-0.00071328
-0.00293715
-0.00370058
-0.00406302
-0.00430214
-0.00449203
-0.00465644
-0.00481787
-0.00499086
-0.0051811
-0.00538717
-0.00560083
-0.00580619
-0.00597834
-0.00608213
-0.00607188
-0.00589285
-0.00548751
-0.00481854
-0.00385745
-0.00262877
-0.00121365
0.000244339
0.0015517
0.00249862
0.00290966
0.00269853
0.0019129
0.000751913
-0.000572108
-0.00217545
-0.00429775
-0.00508306
-0.00546659
-0.0057361
-0.00597098
-0.00619895
-0.00644638
-0.00673184
-0.00706529
-0.00744988
-0.0078816
-0.0083473
-0.00882143
-0.00926231
-0.00960924
-0.00978192
-0.00968573
-0.00922932
-0.00834138
-0.00699928
-0.00525894
-0.00327296
-0.00128823
0.000386836
0.00144792
0.00168275
0.00106371
-0.00019512
-0.00180962
-0.00392125
-0.00589747
-0.00669593
-0.00709962
-0.00740279
-0.00768975
-0.00799296
-0.00834388
-0.00876672
-0.00927797
-0.00988812
-0.0106007
-0.0114088
-0.0122897
-0.0131973
-0.014056
-0.0147561
-0.0151574
-0.0151033
-0.014456
-0.0131196
-0.0110968
-0.00852337
-0.00568514
-0.00299767
-0.000935055
9.31377e-05
-9.44851e-05
-0.00131701
-0.00321838
-0.00596435
-0.00773067
-0.00853445
-0.00895683
-0.00929522
-0.0096386
-0.0100252
-0.010493
-0.0110738
-0.0117931
-0.0126716
-0.013724
-0.014954
-0.0163453
-0.0178512
-0.0193823
-0.0207987
-0.0219092
-0.0224847
-0.0222914
-0.0211502
-0.0189719
-0.0158376
-0.0120369
-0.00807549
-0.00461929
-0.00234879
-0.00170995
-0.00264918
-0.00477587
-0.0082892
-0.009785
-0.0105884
-0.0110269
-0.0113986
-0.0117972
-0.0122681
-0.0128574
-0.0136067
-0.0145525
-0.0157289
-0.0171651
-0.0188786
-0.0208641
-0.0230777
-0.0254195
-0.0277204
-0.0297376
-0.0311641
-0.0316594
-0.0309541
-0.0288308
-0.0252753
-0.020529
-0.0151381
-0.00994015
-0.0059333
-0.00395327
-0.00422214
-0.00642049
-0.0108271
-0.0120422
-0.0128436
-0.0132939
-0.0136913
-0.0141349
-0.014679
-0.0153803
-0.0162918
-0.0174634
-0.0189445
-0.0207807
-0.0230065
-0.0256299
-0.0286129
-0.0318485
-0.0351417
-0.0382017
-0.0406495
-0.0420458
-0.0420142
-0.040204
-0.0364726
-0.0309559
-0.0241616
-0.0170263
-0.0108515
-0.00695772
-0.00603362
-0.00802454
-0.0134209
-0.0144805
-0.0152847
-0.0157398
-0.0161464
-0.0166113
-0.0172009
-0.0179849
-0.01903
-0.0204007
-0.0221623
-0.0243782
-0.0270999
-0.0303497
-0.0340968
-0.0382297
-0.042532
-0.046672
-0.0502161
-0.0526647
-0.0534573
-0.0521975
-0.0485879
-0.0426111
-0.0346498
-0.0256223
-0.0170368
-0.0107144
-0.00799206
-0.00935464
-0.0157771
-0.0170783
-0.0179003
-0.0183486
-0.0187353
-0.0191798
-0.0197651
-0.0205781
-0.0217012
-0.0232143
-0.0251986
-0.0277334
-0.030886
-0.0346913
-0.0391249
-0.0440715
-0.0492983
-0.0544421
-0.0590222
-0.0624762
-0.0641919
-0.0636465
-0.0604244
-0.0543464
-0.0456071
-0.0349795
-0.0240153
-0.014937
-0.00982565
-0.0100175
-0.0174016
-0.0198209
-0.02069
-0.0211123
-0.0214314
-0.0217895
-0.0222941
-0.0230549
-0.0241725
-0.0257424
-0.0278598
-0.0306175
-0.0340946
-0.0383349
-0.0433172
-0.0489224
-0.0549045
-0.060878
-0.0663303
-0.0706587
-0.0732185
-0.0734046
-0.0707126
-0.0648165
-0.0557038
-0.0439089
-0.0308465
-0.0189405
-0.010972
-0.00939113
-0.0175173
-0.0227112
-0.0236753
-0.0240385
-0.024215
-0.0243893
-0.0247061
-0.0253052
-0.0263085
-0.0278263
-0.0299652
-0.0328269
-0.0364975
-0.041024
-0.0463843
-0.0524532
-0.0589738
-0.0655451
-0.0716348
-0.0766175
-0.0798307
-0.0806203
-0.078428
-0.0728162
-0.0635869
-0.0510069
-0.0362182
-0.0216079
-0.0104776
-0.00654332
-0.0149565
-0.0257878
-0.0269166
-0.0271606
-0.0270776
-0.0269299
-0.0269178
-0.0272202
-0.0279822
-0.0293269
-0.0313678
-0.0342105
-0.0379412
-0.0426041
-0.0481714
-0.0545083
-0.0613475
-0.0682771
-0.0747521
-0.0801322
-0.0837379
-0.0848986
-0.083007
-0.0775533
-0.0681946
-0.0549618
-0.0386717
-0.0214829
-0.00696759
-0.000145129
-0.00803064
-0.0291623
-0.0305397
-0.0305498
-0.0300252
-0.0293649
-0.0288479
-0.0286995
-0.0290864
-0.0301393
-0.0319726
-0.0346883
-0.0383663
-0.0430409
-0.0486749
-0.0551184
-0.0620915
-0.0691697
-0.0757972
-0.0813225
-0.0850482
-0.0862828
-0.0843712
-0.0787442
-0.0689331
-0.0547996
-0.0368594
-0.016959
0.00128793
0.0116172
0.00562071
-0.0330957
-0.0347795
-0.034331
-0.0330796
-0.0316501
-0.0304201
-0.0296587
-0.029545
-0.0302068
-0.0317494
-0.034263
-0.0378134
-0.0424188
-0.0480223
-0.0544589
-0.0614321
-0.0685033
-0.0751031
-0.0805614
-0.0841521
-0.0851431
-0.0828088
-0.0765008
-0.0656637
-0.0499888
-0.0297602
-0.00650939
0.0162852
0.0311622
0.0291814
-0.0381698
-0.0400505
-0.0386972
-0.0362759
-0.0337413
-0.031566
-0.0300376
-0.0293236
-0.0295304
-0.0307399
-0.0330199
-0.0364129
-0.0409137
-0.0464414
-0.052809
-0.0596998
-0.0666572
-0.0730919
-0.0783057
-0.0815284
-0.0819638
-0.0787751
-0.0712084
-0.058573
-0.0404163
-0.0168489
0.010993
0.0402126
0.0615924
0.0666387
-0.0456864
-0.0470572
-0.0439012
-0.0396378
-0.0355764
-0.0322129
-0.0297901
-0.0284197
-0.0281568
-0.0290411
-0.0311037
-0.0343543
-0.038757
-0.0442014
-0.0504732
-0.0572313
-0.0639965
-0.0701537
-0.0749682
-0.0776087
-0.0771806
-0.0727397
-0.0633369
-0.048093
-0.0263435
0.00199698
0.0359347
0.0748001
0.106091
0.122554
-0.0588235
-0.05699
-0.0502034
-0.0431046
-0.0370016
-0.0322118
-0.028814
-0.0267955
-0.0261164
-0.0267461
-0.0286615
-0.0318284
-0.0361728
-0.0415503
-0.0477163
-0.0543033
-0.0608069
-0.0665835
-0.0708588
-0.0727447
-0.0712623
-0.0652114
-0.0535103
-0.0349859
-0.00862719
0.026126
0.0690056
0.119099
0.165862
0.203725
-0.0856488
-0.071318
-0.0578135
-0.0464263
-0.0376268
-0.0312136
-0.0268648
-0.0243227
-0.0233863
-0.0239178
-0.0258209
-0.0290081
-0.033364
-0.0387109
-0.0447767
-0.0511711
-0.0573677
-0.0626959
-0.0663376
-0.0673354
-0.0646096
-0.056967
-0.0428994
-0.0208907
0.0105817
0.0529363
0.106943
0.172954
0.241483
0.323817
-0.137844
-0.0866921
-0.0646127
-0.0473417
-0.0354235
-0.0276649
-0.0228624
-0.0202755
-0.0194795
-0.0202247
-0.0223506
-0.0257285
-0.0302159
-0.035616
-0.0416448
-0.047904
-0.0538627
-0.0588448
-0.0620165
-0.0623729
-0.0587086
-0.0498485
-0.0340856
-0.00948122
0.0261768
0.0757824
0.142443
0.231286
0.339037
0.508732
-0.310628
-0.0965096
-0.0475033
-0.028803
-0.0182574
-0.0126742
-0.010279
-0.00980245
-0.0106693
-0.0126855
-0.0157749
-0.0198745
-0.0248916
-0.0306711
-0.0369643
-0.0434051
-0.0494914
-0.0545748
-0.0578547
-0.0583843
-0.0550582
-0.0463454
-0.0306773
-0.00606763
0.0301311
0.0822789
0.157025
0.272094
0.44711
0.790874
)
;

boundaryField
{
    movingWall
    {
        type            zeroGradient;
    }
    fixedWalls
    {
        type            zeroGradient;
    }
    frontAndBack
    {
        type            empty;
    }
}


// ************************************************************************* //
