/*--------------------------------*- C++ -*----------------------------------*\
  =========                 |
  \\      /  F ield         | OpenFOAM: The Open Source CFD Toolbox
   \\    /   O peration     | Website:  https://openfoam.org
    \\  /    A nd           | Version:  7
     \\/     M anipulation  |
\*---------------------------------------------------------------------------*/
FoamFile
{
    version     2.0;
    format      ascii;
    class       surfaceScalarField;
    location    "4.9";
    object      phi;
}
// * * * * * * * * * * * * * * * * * * * * * * * * * * * * * * * * * * * * * //

dimensions      [0 3 -1 0 0 0 0];

internalField   nonuniform List<scalar> 
1740
(
3.60759e-07
-3.60725e-07
-6.56419e-07
1.01718e-06
-3.11479e-06
2.45837e-06
-6.67782e-06
3.56302e-06
-1.09673e-05
4.28944e-06
-1.56604e-05
4.69313e-06
-2.05111e-05
4.85074e-06
-2.53385e-05
4.82741e-06
-3.00055e-05
4.66696e-06
-3.43985e-05
4.39304e-06
-3.84121e-05
4.01358e-06
-4.19381e-05
3.52598e-06
-4.48606e-05
2.92246e-06
-4.70558e-05
2.19518e-06
-4.83969e-05
1.34112e-06
-4.87635e-05
3.66664e-07
-4.80549e-05
-7.08638e-07
-4.62064e-05
-1.84851e-06
-4.32077e-05
-2.99873e-06
-3.91192e-05
-4.08841e-06
-3.40853e-05
-5.03398e-06
-2.83388e-05
-5.74651e-06
-2.21972e-05
-6.14157e-06
-1.60471e-05
-6.15012e-06
-1.03184e-05
-5.72867e-06
-5.45051e-06
-4.86789e-06
-1.84602e-06
-3.60448e-06
2.04864e-07
-2.05088e-06
6.73267e-07
-4.68403e-07
6.73267e-07
-1.01583e-06
6.55103e-07
-5.04735e-06
5.0487e-06
-1.1988e-05
9.39903e-06
-2.12296e-05
1.28046e-05
-3.20762e-05
1.5136e-05
-4.38754e-05
1.64923e-05
-5.60741e-05
1.70494e-05
-6.8223e-05
1.69763e-05
-7.99552e-05
1.63991e-05
-9.09562e-05
1.5394e-05
-0.000100937
1.39945e-05
-0.000109615
1.22035e-05
-0.000116701
1.00088e-05
-0.000121904
7.39848e-06
-0.000124939
4.3764e-06
-0.000125548
9.74869e-07
-0.000123529
-2.72772e-06
-0.000118767
-6.60959e-06
-0.000111279
-1.04872e-05
-0.000101237
-1.41305e-05
-8.89982e-05
-1.72727e-05
-7.51109e-05
-1.96338e-05
-6.03009e-05
-2.09515e-05
-4.54337e-05
-2.10173e-05
-3.14514e-05
-1.9711e-05
-1.92867e-05
-1.70326e-05
-9.75178e-06
-1.31394e-05
-3.40063e-06
-8.40203e-06
-3.90022e-07
-3.47902e-06
2.83246e-07
-2.5737e-06
3.2288e-06
-9.78106e-06
1.2256e-05
-2.08958e-05
2.05138e-05
-3.50439e-05
2.69527e-05
-5.13045e-05
3.13967e-05
-6.8819e-05
3.40068e-05
-8.68393e-05
3.50697e-05
-0.000104735
3.48716e-05
-0.000121972
3.36362e-05
-0.000138084
3.15067e-05
-0.000152643
2.85527e-05
-0.00016523
2.47909e-05
-0.000175432
2.0211e-05
-0.000182838
1.48041e-05
-0.000187053
8.59193e-06
-0.000187734
1.6552e-06
-0.000184608
-5.85317e-06
-0.000177544
-1.36743e-05
-0.00016658
-2.14512e-05
-0.000151976
-2.87339e-05
-0.000134244
-3.50051e-05
-0.000114152
-3.97252e-05
-9.27105e-05
-4.23934e-05
-7.11102e-05
-4.26176e-05
-5.06374e-05
-4.01838e-05
-3.25503e-05
-3.51197e-05
-1.79357e-05
-2.7754e-05
-7.55515e-06
-1.87826e-05
-1.68014e-06
-9.35402e-06
-1.39689e-06
-3.95469e-06
7.1835e-06
-1.40763e-05
2.23776e-05
-2.89943e-05
3.54318e-05
-4.74697e-05
4.54281e-05
-6.83598e-05
5.22868e-05
-9.06443e-05
5.62913e-05
-0.000113441
5.78662e-05
-0.000135998
5.74287e-05
-0.00015767
5.53088e-05
-0.000177887
5.17229e-05
-0.000196116
4.67821e-05
-0.000211845
4.052e-05
-0.000224565
3.29308e-05
-0.000233773
2.40123e-05
-0.000238992
1.38102e-05
-0.000239798
2.46139e-06
-0.000235866
-9.78442e-06
-0.000227031
-2.25101e-05
-0.000213334
-3.51476e-05
-0.000195088
-4.69804e-05
-0.000172907
-5.71857e-05
-0.000147727
-6.49055e-05
-0.000120776
-6.93444e-05
-9.35097e-05
-6.98836e-05
-6.74981e-05
-6.61954e-05
-4.4276e-05
-5.83418e-05
-2.51773e-05
-4.68527e-05
-1.11764e-05
-3.27835e-05
-2.77081e-06
-1.77596e-05
-4.16771e-06
-5.10743e-06
1.22909e-05
-1.77938e-05
3.5064e-05
-3.6094e-05
5.37319e-05
-5.83926e-05
6.77268e-05
-8.33164e-05
7.72105e-05
-0.000109698
8.26728e-05
-0.000136551
8.47197e-05
-0.000163044
8.39209e-05
-0.000188457
8.07228e-05
-0.000212154
7.54194e-05
-0.000233536
6.81637e-05
-0.00025202
5.9004e-05
-0.000267024
4.79354e-05
-0.00027797
3.49581e-05
-0.000284297
2.01376e-05
-0.000285502
3.66597e-06
-0.000281183
-1.41035e-05
-0.000271108
-3.25844e-05
-0.000255287
-5.09695e-05
-0.000234032
-6.82347e-05
-0.000208022
-8.31955e-05
-0.00017832
-9.46076e-05
-0.000146355
-0.00010131
-0.000113842
-0.000102396
-8.26509e-05
-9.73863e-05
-5.46226e-05
-8.63701e-05
-3.13718e-05
-7.01035e-05
-1.41153e-05
-5.004e-05
-3.56974e-06
-2.83051e-05
-7.73745e-06
-6.06044e-06
1.83514e-05
-2.09699e-05
4.99734e-05
-4.22546e-05
7.50167e-05
-6.7946e-05
9.34181e-05
-9.64448e-05
0.000105709
-0.000126445
0.000112673
-0.000156876
0.000115151
-0.000186848
0.000113893
-0.000215603
0.000109478
-0.000242464
0.00010228
-0.000266794
9.24936e-05
-0.000287963
8.01729e-05
-0.000305331
6.53029e-05
-0.000318244
4.78712e-05
-0.000326053
2.79474e-05
-0.000328151
5.7639e-06
-0.000324022
-1.82326e-05
-0.00031332
-4.32865e-05
-0.000295957
-6.83331e-05
-0.00027219
-9.20012e-05
-0.000242707
-0.000112678
-0.00020867
-0.000128645
-0.000171708
-0.000138272
-0.00013384
-0.000140265
-9.7305e-05
-0.000133921
-6.43394e-05
-0.000119336
-3.69212e-05
-9.75216e-05
-1.65527e-05
-7.04086e-05
-4.13621e-06
-4.07216e-05
-1.18737e-05
-6.86318e-06
2.52145e-05
-2.37108e-05
6.68211e-05
-4.76457e-05
9.89516e-05
-7.6383e-05
0.000122155
-0.000108113
0.00013744
-0.000141403
0.000145963
-0.000175111
0.000148859
-0.000208313
0.000147095
-0.000240233
0.000141398
-0.000270183
0.00013223
-0.000297509
0.00011982
-0.000321554
0.000104218
-0.000341629
8.53777e-05
-0.000357007
6.32492e-05
-0.000366935
3.78751e-05
-0.000370667
9.49585e-06
-0.000367523
-2.13766e-05
-0.000356972
-5.38375e-05
-0.000338747
-8.6558e-05
-0.000312965
-0.000117783
-0.000280249
-0.000145394
-0.000241817
-0.000167077
-0.000199507
-0.000180581
-0.000155703
-0.000184069
-0.000113136
-0.000176488
-7.45853e-05
-0.000157886
-4.2531e-05
-0.000129576
-1.88409e-05
-9.40986e-05
-4.58372e-06
-5.49788e-05
-1.64574e-05
-7.5628e-06
3.27773e-05
-2.61363e-05
8.53946e-05
-5.24664e-05
0.000125282
-8.39902e-05
0.000153679
-0.000118709
0.000172158
-0.000155076
0.00018233
-0.000191895
0.000185678
-0.000228227
0.000183427
-0.000263302
0.000176472
-0.000296444
0.000165373
-0.00032701
0.000150386
-0.000354333
0.000131541
-0.00037769
0.000108734
-0.00039628
8.18396e-05
-0.000409231
5.08256e-05
-0.000415622
1.5887e-05
-0.000414548
-2.24504e-05
-0.000405203
-6.31824e-05
-0.000387032
-0.000104729
-0.000359888
-0.000144926
-0.000324217
-0.000181066
-0.000281216
-0.000210079
-0.000232918
-0.000228879
-0.000182147
-0.00023484
-0.000132289
-0.000226347
-8.68869e-05
-0.000203288
-4.91422e-05
-0.000167321
-2.14396e-05
-0.000121801
-5.04464e-06
-7.13737e-05
-2.1502e-05
-8.19686e-06
4.09742e-05
-2.83528e-05
0.000105551
-5.69023e-05
0.000153831
-9.1035e-05
0.000187812
-0.000128583
0.000209706
-0.000167902
0.00022165
-0.000207762
0.000225537
-0.000247226
0.000222891
-0.000285556
0.000214803
-0.00032212
0.000201937
-0.00035631
0.000184575
-0.000387477
0.000162708
-0.000414883
0.000136141
-0.000437666
0.000104623
-0.000454823
6.7982e-05
-0.000465225
2.62893e-05
-0.000467679
-1.99966e-05
-0.000460992
-6.98689e-05
-0.000444181
-0.000121541
-0.000416664
-0.000172443
-0.000378536
-0.000219194
-0.00033083
-0.000257785
-0.000275717
-0.000283993
-0.000216519
-0.000294037
-0.000157475
-0.000285391
-0.000103201
-0.000257562
-5.79603e-05
-0.000212561
-2.49233e-05
-0.000154838
-5.67231e-06
-9.06247e-05
-2.71743e-05
-8.79329e-06
4.97675e-05
-3.0446e-05
0.000127203
-6.11074e-05
0.000184493
-9.77394e-05
0.000224444
-0.00013802
0.000249987
-0.000180227
0.000263857
-0.00022311
0.00026842
-0.000265763
0.000265544
-0.000307508
0.000256548
-0.000347786
0.000242215
-0.000386063
0.000222852
-0.000421746
0.000198391
-0.000454117
0.000168512
-0.000482274
0.000132779
-0.000505091
9.07988e-05
-0.000521208
4.24061e-05
-0.000529089
-1.2115e-05
-0.000527022
-7.19358e-05
-0.000513427
-0.000135136
-0.000487061
-0.000198809
-0.000447412
-0.000258843
-0.000395117
-0.00031008
-0.00033233
-0.000346779
-0.000262885
-0.000363483
-0.000192083
-0.000356193
-0.000126024
-0.000323622
-7.05362e-05
-0.000268049
-3.00269e-05
-0.000195348
-6.65736e-06
-0.000113994
-3.38317e-05
-9.37204e-06
5.91395e-05
-3.24809e-05
0.000150312
-6.52e-05
0.000217212
-0.000104271
0.000263515
-0.000147229
0.000292945
-0.000192285
0.000308913
-0.000238189
0.000314324
-0.000284091
0.000311446
-0.000329405
0.000301863
-0.000373688
0.000286497
-0.000416523
0.000265687
-0.000457425
0.000239293
-0.000495747
0.000206834
-0.000530593
0.000167625
-0.000560745
0.000120951
-0.000584601
6.62624e-05
-0.00060026
3.54438e-06
-0.00060534
-6.68564e-05
-0.000597489
-0.000142987
-0.000574518
-0.00022178
-0.000534967
-0.000298394
-0.000478722
-0.000366324
-0.00040764
-0.000417861
-0.000325956
-0.000445166
-0.000240211
-0.000441938
-0.000158473
-0.00040536
-8.88493e-05
-0.000337672
-3.76986e-05
-0.000246498
-8.24603e-06
-0.000143447
-4.20777e-05
-9.94737e-06
6.90869e-05
-3.45062e-05
0.000174871
-6.92683e-05
0.000251974
-0.00011075
0.000304997
-0.000156343
0.000338538
-0.000204201
0.00035677
-0.000253094
0.000363217
-0.000302254
0.000360606
-0.000351224
0.000350833
-0.000399717
0.000334991
-0.000447495
0.000313464
-0.000494241
0.00028604
-0.00053945
0.000252043
-0.000582303
0.000210479
-0.000621552
0.0001602
-0.000655413
0.000100124
-0.000681428
2.95588e-05
-0.000696732
-5.15516e-05
-0.000697833
-0.000141887
-0.000681322
-0.000238291
-0.000644388
-0.000335329
-0.000585692
-0.00042502
-0.000506336
-0.000497217
-0.000410655
-0.000540848
-0.000306448
-0.000546144
-0.000204241
-0.000507568
-0.000115342
-0.000426571
-4.91385e-05
-0.000312702
-1.07549e-05
-0.00018183
-5.28327e-05
-1.0531e-05
7.96179e-05
-3.65627e-05
0.000200903
-7.33825e-05
0.000288794
-0.000117261
0.000348876
-0.000165438
0.000386714
-0.000216011
0.000407344
-0.000267786
0.000414992
-0.000320102
0.000412922
-0.000372667
0.000403397
-0.000425399
0.000387724
-0.000478293
0.000366358
-0.000531277
0.000339023
-0.00058407
0.000304836
-0.000636023
0.000262432
-0.000685942
0.000210118
-0.000731903
0.000146085
-0.00077108
6.87362e-05
-0.000799833
-2.27988e-05
-0.000813536
-0.000128184
-0.000807282
-0.000244544
-0.000776492
-0.000366119
-0.000718048
-0.000483464
-0.000631651
-0.000583614
-0.000521137
-0.000651361
-0.000395271
-0.000672011
-0.000267327
-0.000635511
-0.00015286
-0.000541038
-6.58115e-05
-0.00039975
-1.45813e-05
-0.000233061
-6.7414e-05
-1.11364e-05
9.07543e-05
-3.86949e-05
0.000228461
-7.76151e-05
0.000327714
-0.000123883
0.000395144
-0.000174562
0.000437393
-0.000227692
0.000460473
-0.000282121
0.000469421
-0.000337319
0.00046812
-0.000393188
0.000459265
-0.000449895
0.000444431
-0.000507722
0.000424185
-0.00056691
0.000398211
-0.000627491
0.000365417
-0.000689087
0.000324028
-0.000750668
0.0002717
-0.000810292
0.000205709
-0.000864844
0.000123287
-0.000909924
2.22816e-05
-0.000939842
-9.82654e-05
-0.000948008
-0.000236379
-0.000927783
-0.000386344
-0.000873742
-0.000537504
-0.000783406
-0.00067395
-0.000659163
-0.000775605
-0.000509901
-0.000821272
-0.000351431
-0.000793981
-0.000204448
-0.000688022
-8.94256e-05
-0.000514773
-2.02126e-05
-0.000302274
-8.76266e-05
-1.17843e-05
0.000102539
-4.09675e-05
0.000257644
-8.20672e-05
0.000368814
-0.000130721
0.000443797
-0.000183778
0.00049045
-0.000239205
0.000515901
-0.000295899
0.000526115
-0.00035347
0.000525691
-0.000412035
0.000517831
-0.00047204
0.000504435
-0.00053409
0.000486236
-0.000598793
0.000462914
-0.00066656
0.000433184
-0.000737375
0.000394843
-0.000810494
0.000344819
-0.000884097
0.000279312
-0.000954948
0.000194139
-0.00101807
8.54016e-05
-0.0010669
-4.94381e-05
-0.00109327
-0.000210007
-0.00108846
-0.000391155
-0.0010444
-0.000581565
-0.000955648
-0.000762699
-0.000821883
-0.000909369
-0.000650573
-0.000992582
-0.000458902
-0.000985653
-0.000272934
-0.00087399
-0.000121866
-0.00066584
-2.82428e-05
-0.000395897
-0.000115869
-1.25105e-05
0.000115049
-4.34871e-05
0.000288621
-8.69037e-05
0.00041223
-0.000137952
0.000494846
-0.000193213
0.000545711
-0.000250557
0.000573245
-0.000308924
0.000584482
-0.000368068
0.000584835
-0.000428328
0.000578091
-0.000490429
0.000566536
-0.000555308
0.000551115
-0.00062395
0.000531555
-0.000697178
0.000506412
-0.000775394
0.000473059
-0.000858238
0.000427662
-0.000944175
0.00036525
-0.00103007
0.000280038
-0.00111084
0.000166165
-0.00117925
1.8976e-05
-0.00122619
-0.000163066
-0.00124119
-0.000376159
-0.0012136
-0.000609154
-0.0011345
-0.000841803
-0.000999455
-0.00104441
-0.000812308
-0.00117973
-0.000589147
-0.00120881
-0.000360178
-0.00110296
-0.00016504
-0.000860979
-3.93929e-05
-0.000521544
-0.000155262
-1.33763e-05
0.000128425
-4.64304e-05
0.000321675
-9.23975e-05
0.000458197
-0.000145883
0.000548331
-0.000203123
0.000602952
-0.000261864
0.000631986
-0.000321081
0.000643699
-0.000380667
0.000644421
-0.000441167
0.00063859
-0.000503557
0.000628926
-0.000569071
0.00061663
-0.000639032
0.000601516
-0.000714647
0.000582027
-0.000796739
0.000555151
-0.000885391
0.000516314
-0.000979516
0.000459375
-0.00107639
0.000376917
-0.00117127
0.000261037
-0.00125703
0.000104744
-0.00132424
-9.58574e-05
-0.00136176
-0.000338637
-0.00135693
-0.00061399
-0.00129732
-0.000901414
-0.00117335
-0.00116838
-0.000982679
-0.0013704
-0.000736546
-0.00145495
-0.000465821
-0.00137368
-0.000220519
-0.00110628
-5.45192e-05
-0.000687544
-0.000209782
-1.4484e-05
0.000142909
-5.00842e-05
0.000357275
-9.89863e-05
0.000507099
-0.000155008
0.000604352
-0.000213953
0.000661897
-0.000273417
0.00069145
-0.000332407
0.000702689
-0.000390948
0.000702962
-0.000449757
0.000697399
-0.000510006
0.000689175
-0.000573145
0.000679769
-0.000640742
0.000669113
-0.000714297
0.000655582
-0.000794992
0.000635847
-0.000883369
0.000604691
-0.000978924
0.000554929
-0.00107967
0.000477664
-0.00118174
0.000363107
-0.00127913
0.00020213
-0.00136271
-1.22754e-05
-0.00142254
-0.000278802
-0.00144482
-0.000591713
-0.00141451
-0.000931726
-0.00131663
-0.00126626
-0.00114062
-0.00154641
-0.000888398
-0.00170717
-0.000585553
-0.00167653
-0.000288865
-0.00140297
-7.45791e-05
-0.00090183
-0.000284361
-1.60018e-05
0.000158911
-5.49016e-05
0.000396175
-0.000107345
0.000559543
-0.000166087
0.000663094
-0.000226401
0.000722211
-0.000285733
0.000750782
-0.000343144
0.000760099
-0.000398788
0.000758607
-0.000453523
0.000752133
-0.000508639
0.000744291
-0.000565691
0.000736821
-0.000626359
0.000729781
-0.000692298
0.000721521
-0.000764946
0.000708494
-0.000845262
0.000685007
-0.000933417
0.000643084
-0.00102844
0.000572691
-0.00112789
0.000462557
-0.00122744
0.00030168
-0.00132094
8.12184e-05
-0.00139856
-0.000201179
-0.00144859
-0.000541683
-0.00145476
-0.000925556
-0.00139767
-0.00132335
-0.00125786
-0.00168622
-0.00102416
-0.00194087
-0.000709318
-0.00199137
-0.000368561
-0.00174373
-0.000100526
-0.00116986
-0.000384887
-1.82061e-05
0.000177117
-6.15894e-05
0.000439558
-0.000118485
0.000616438
-0.000180217
0.000724826
-0.00024146
0.000783454
-0.000299566
0.000808888
-0.000353721
0.000814255
-0.000404249
0.000809135
-0.000452124
0.000800009
-0.000498688
0.000790854
-0.000545486
0.000783619
-0.00059417
0.000778465
-0.000646406
0.000773757
-0.000703762
0.00076585
-0.00076756
0.000748805
-0.000838692
0.000714216
-0.000917411
0.00065141
-0.00100309
0.000548232
-0.00109388
0.000392477
-0.00118651
0.000173842
-0.00127426
-0.00011343
-0.0013481
-0.000467843
-0.00139289
-0.000880765
-0.00138716
-0.00132908
-0.00130395
-0.00176942
-0.00111751
-0.00212732
-0.000820693
-0.00228818
-0.000454795
-0.00210963
-0.000133128
-0.00149153
-0.000518014
-2.15615e-05
0.000198679
-7.12477e-05
0.000489245
-0.000133878
0.000679069
-0.000198901
0.000789849
-0.000260401
0.000844954
-0.000315807
0.000864294
-0.000364604
0.000863051
-0.00040738
0.000851911
-0.000445255
0.000837884
-0.000479583
0.000825183
-0.000511822
0.000815858
-0.000543488
0.000810132
-0.000576148
0.000806416
-0.0006114
0.000801103
-0.000650866
0.000788271
-0.000696152
0.000759502
-0.000748798
0.000704056
-0.000810152
0.000609586
-0.000881085
0.00046341
-0.00096163
0.000254387
-0.00104904
-2.60221e-05
-0.00113829
-0.000378592
-0.00121746
-0.00080159
-0.00126627
-0.00128027
-0.00125385
-0.00178185
-0.00114159
-0.00223958
-0.000898607
-0.00253116
-0.000538697
-0.00246953
-0.000172675
-0.00185755
-0.000690689
-2.68759e-05
0.000225555
-8.56023e-05
0.000547971
-0.000155633
0.000749099
-0.000224069
0.000858284
-0.000284622
0.000905508
-0.000335182
0.000914854
-0.000375842
0.000903711
-0.000407655
0.000883724
-0.000431983
0.000862213
-0.000450219
0.000843419
-0.000463718
0.000829356
-0.000473824
0.000820239
-0.00048195
0.000814542
-0.000489671
0.000808824
-0.000498849
0.00079745
-0.00051174
0.000772392
-0.00053108
0.000723396
-0.000560096
0.000638602
-0.000602197
0.00050551
-0.000660461
0.000312651
-0.000737221
5.07388e-05
-0.000830381
-0.000285432
-0.000933964
-0.000698008
-0.00103193
-0.0011823
-0.00109447
-0.00171931
-0.00107541
-0.00225863
-0.000921187
-0.00268539
-0.000607599
-0.00278312
-0.000218492
-0.00224666
-0.000909181
-3.56119e-05
0.000261167
-0.000107382
0.000619741
-0.000186657
0.000828375
-0.000257922
0.000929549
-0.000315163
0.000962749
-0.000357449
0.00095714
-0.000386001
0.000932263
-0.000402659
0.000900382
-0.000409214
0.000868767
-0.000407205
0.00084141
-0.00039795
0.000820101
-0.000382656
0.000804945
-0.000362593
0.000794479
-0.000339293
0.000785523
-0.000314797
0.000772954
-0.000291875
0.00074947
-0.00027419
0.000705711
-0.000266628
0.000631041
-0.000274565
0.000513447
-0.000303854
0.00034194
-0.000359896
0.000106781
-0.000445604
-0.000199724
-0.000560552
-0.00058306
-0.000695215
-0.00104764
-0.000826203
-0.00158833
-0.000907588
-0.00217725
-0.000869652
-0.00272332
-0.000646199
-0.00300658
-0.000268068
-0.00262479
-0.00117725
-5.04993e-05
0.000311666
-0.00014087
0.000710112
-0.000230646
0.00091815
-0.000302207
0.00100111
-0.000351309
0.00101185
-0.000379422
0.000985253
-0.000389679
0.00094252
-0.000385164
0.000895868
-0.000368375
0.000851977
-0.000341182
0.000814218
-0.00030499
0.000783909
-0.000260958
0.000760913
-0.00021026
0.00074378
-0.000154343
0.000729607
-9.53424e-05
0.000713953
-3.63715e-05
0.000690499
1.81402e-05
0.000651199
6.29398e-05
0.000586241
9.07397e-05
0.000485647
9.37554e-05
0.000338924
6.4018e-05
0.000136518
-5.27944e-06
-0.000130427
-0.000117287
-0.000471052
-0.000272415
-0.000892509
-0.000457472
-0.00140327
-0.000634458
-0.00200026
-0.000729252
-0.00262853
-0.000637264
-0.00309856
-0.000315535
-0.00294652
-0.00149278
-7.66757e-05
0.000388342
-0.00019243
0.000825867
-0.000291067
0.00101679
-0.000355628
0.00106567
-0.000386651
0.00104287
-0.000389949
0.000988551
-0.000371637
0.000924208
-0.000336623
0.000860854
-0.000288433
0.000803787
-0.000229466
0.000755251
-0.000161329
0.000715773
-8.51841e-05
0.000684768
-2.08364e-06
0.00066068
8.65869e-05
0.000640936
0.000178912
0.000621629
0.000271858
0.000597553
0.000361039
0.000562019
0.00044024
0.00050704
0.000501965
0.000423921
0.000537289
0.0003036
0.000536574
0.000137233
0.000490173
-8.40254e-05
0.000389167
-0.000370046
0.000227959
-0.000731301
7.85765e-06
-0.00118317
-0.000252296
-0.00174011
-0.000485423
-0.0023954
-0.000560171
-0.00302382
-0.000349371
-0.00315732
-0.00184215
-0.000123595
0.000511937
-0.000269684
0.000971956
-0.000366089
0.00111319
-0.000405202
0.00110478
-0.000397851
0.00103552
-0.000356994
0.000947694
-0.000292979
0.000860193
-0.000213035
0.00078091
-0.000121855
0.000712607
-2.2335e-05
0.00065573
8.38021e-05
0.000609635
0.000195525
0.000573045
0.000312046
0.000544159
0.000432432
0.00052055
0.000555095
0.000498966
0.000677438
0.00047521
0.000795422
0.000444035
0.000903262
0.000399199
0.000993404
0.00033378
0.00105658
0.000240422
0.00108211
0.000111709
0.00105832
-6.02352e-05
0.000973287
-0.000285017
0.000814751
-0.000572764
0.000572353
-0.00094077
0.000249284
-0.00141704
-0.000111815
-0.0020343
-0.000385811
-0.00274982
-0.000353604
-0.00318953
-0.00219576
-0.000207534
0.00071947
-0.000372106
0.00113653
-0.000427655
0.00116874
-0.000398111
0.00107524
-0.000313196
0.000950607
-0.000195842
0.00083034
-6.08573e-05
0.000725209
8.28357e-05
0.000637217
0.000230238
0.000565205
0.000378809
0.000507159
0.000527473
0.000460971
0.000675931
0.000424587
0.000824165
0.000395925
0.000972002
0.000372712
0.00111867
0.000352296
0.00126239
0.000331491
0.00139995
0.000306472
0.00152639
0.000272766
0.00163479
0.000225378
0.00171622
0.00015899
0.00175953
6.84004e-05
0.00175197
-5.26771e-05
0.0016792
-0.00021225
0.00152459
-0.000418156
0.00126971
-0.000685884
0.000898476
-0.00104581
0.000418713
-0.00155454
-6.3135e-05
-0.00226797
-0.00028858
-0.00296408
-0.00248434
-0.00034083
0.0010603
-0.000430144
0.00122584
-0.000340567
0.00107916
-0.000157278
0.000891952
6.45532e-05
0.000728776
0.000296643
0.00059825
0.00052491
0.000496943
0.00074325
0.000418877
0.00094975
0.000358705
0.00114461
0.000312296
0.00132904
0.000276542
0.0015046
0.000249026
0.00167281
0.000227718
0.00183478
0.000210746
0.00199087
0.000196199
0.00214039
0.000181976
0.00228116
0.000165698
0.00240926
0.000144671
0.00251873
0.000115906
0.00260156
7.61641e-05
0.0026471
2.28549e-05
0.00264279
-4.83684e-05
0.0025723
-0.000141756
0.00241692
-0.000262776
0.00215315
-0.000422118
0.00175207
-0.000644723
0.00118493
-0.000987397
0.000498903
-0.00158195
-3.40591e-05
-0.00243112
-0.0025184
-0.000300789
0.00136109
-4.56237e-05
0.000970676
0.000385997
0.000647543
0.000808024
0.000469925
0.00118957
0.000347232
0.00152656
0.000261258
0.00182164
0.000201861
0.00208009
0.000160424
0.00230789
0.000130908
0.00251065
0.00010954
0.00269326
9.39291e-05
0.00285984
8.24416e-05
0.00301369
7.38709e-05
0.0031572
6.72348e-05
0.00329176
6.1639e-05
0.00341756
5.61845e-05
0.00353334
4.99136e-05
0.00363621
4.1798e-05
0.00372135
3.07719e-05
0.00378163
1.58823e-05
0.00380857
-4.0863e-06
0.00379194
-3.17345e-05
0.0037155
-6.53241e-05
0.00356189
-0.000109163
0.00330669
-0.000166922
0.00291379
-0.000251818
0.00232524
-0.000398849
0.00148779
-0.000744493
0.000505067
-0.0014484
-0.00201333
0.00136109
0.00233177
0.00297931
0.00344923
0.00379646
0.00405772
0.00425958
0.00442001
0.00455092
0.00466046
0.00475439
0.00483683
0.0049107
0.00497793
0.00503957
0.00509576
0.00514567
0.00518747
0.00521824
0.00523412
0.00523004
0.0051983
0.00513298
0.00502381
0.00485689
0.00460507
0.00420623
0.00346173
0.00201333
)
;

boundaryField
{
    movingWall
    {
        type            calculated;
        value           uniform 0;
    }
    fixedWalls
    {
        type            calculated;
        value           uniform 0;
    }
    frontAndBack
    {
        type            empty;
        value           nonuniform 0();
    }
}


// ************************************************************************* //
