/*--------------------------------*- C++ -*----------------------------------*\
  =========                 |
  \\      /  F ield         | OpenFOAM: The Open Source CFD Toolbox
   \\    /   O peration     | Website:  https://openfoam.org
    \\  /    A nd           | Version:  7
     \\/     M anipulation  |
\*---------------------------------------------------------------------------*/
FoamFile
{
    version     2.0;
    format      ascii;
    class       volScalarField;
    location    "3.8";
    object      p;
}
// * * * * * * * * * * * * * * * * * * * * * * * * * * * * * * * * * * * * * //

dimensions      [0 2 -2 0 0 0 0];

internalField   nonuniform List<scalar> 
900
(
-2.01517e-09
-0.000114606
-0.000237377
-0.000333327
-0.000375613
-0.000350738
-0.000254613
-8.76937e-05
0.000147773
0.000448956
0.00081276
0.00123563
0.00171312
0.0022393
0.00280631
0.00340385
0.00401894
0.00463593
0.00523671
0.00580142
0.00630953
0.00674135
0.00707989
0.00731295
0.00743537
0.00745111
0.00737562
0.00723837
0.00707964
0.00695895
0.000113186
-2.87294e-06
-8.7583e-05
-0.000142477
-0.000153195
-0.000108863
-5.067e-06
0.000159409
0.000384233
0.000668113
0.00100898
0.00140389
0.00184873
0.00233784
0.00286364
0.00341634
0.00398371
0.0045514
0.00510291
0.00562052
0.00608629
0.00648347
0.00679822
0.00702141
0.00715037
0.00719011
0.00715449
0.00706747
0.00695771
0.00683799
0.000239693
7.88338e-05
-7.90813e-06
-5.34791e-05
-5.45525e-05
-3.42965e-06
0.000102783
0.000264955
0.000483158
0.000756773
0.00108443
0.00146384
0.00189145
0.00236213
0.00286878
0.00340207
0.00395044
0.00449978
0.00503413
0.00553623
0.0059886
0.00637497
0.006682
0.00690109
0.00702986
0.0070731
0.00704342
0.00696224
0.00684764
0.00668121
0.000341744
0.00012796
2.64714e-05
-2.14677e-05
-2.14388e-05
3.10585e-05
0.000136894
0.000296011
0.000508428
0.000773955
0.00109188
0.00146064
0.00187744
0.00233785
0.0028354
0.0033613
0.00390423
0.00445025
0.00498325
0.00548556
0.00593904
0.00632665
0.00663425
0.00685259
0.00697881
0.00701713
0.00697946
0.00688628
0.00674958
0.00653008
0.000387053
0.000123577
4.42085e-06
-5.06338e-05
-5.38995e-05
-3.38029e-06
9.99693e-05
0.000255173
0.000462138
0.000721061
0.0010319
0.00139392
0.0018052
0.00226212
0.00275895
0.00328738
0.00383631
0.00439165
0.00493664
0.00545246
0.00591944
0.00631872
0.0066344
0.00685574
0.00697895
0.0070078
0.00695439
0.00684012
0.00667486
0.00640477
0.000353879
4.63331e-05
-9.10569e-05
-0.000155789
-0.000165168
-0.000119012
-1.97238e-05
0.000130996
0.000333025
0.000586995
0.000893604
0.00125303
0.00166432
0.00212485
0.00262967
0.00317103
0.00373796
0.00431594
0.00488708
0.00543072
0.00592471
0.00634734
0.00667985
0.00690917
0.00703009
0.00704627
0.00697103
0.00682862
0.0066302
0.00631301
0.00022858
-0.000117634
-0.000272741
-0.000348294
-0.000365373
-0.000325081
-0.000230901
-8.50199e-05
0.000112554
0.000363002
0.00066787
0.00102838
0.00144474
0.00191544
0.00243653
0.00300088
0.00359767
0.00421181
0.00482386
0.00541065
0.00594658
0.00640589
0.00676568
0.00700948
0.00713013
0.00713132
0.00702873
0.00685149
0.00661494
0.00625147
1.85336e-06
-0.00037916
-0.000551268
-0.000638084
-0.000663742
-0.000630294
-0.000542023
-0.000401395
-0.000208143
3.96037e-05
0.000344396
0.000708688
0.00113405
0.00162037
0.00216494
0.00276154
0.00339962
0.00406358
0.00473211
0.00537893
0.00597393
0.00648587
0.00688613
0.00715329
0.00727731
0.00726184
0.00712602
0.00690603
0.00662406
0.00620999
-0.000333573
-0.000747463
-0.000936251
-0.00103468
-0.00106963
-0.00104394
-0.000962527
-0.000828001
-0.00063969
-0.00039489
-8.98677e-05
0.000279294
0.000715833
0.00122138
0.00179493
0.00243161
0.00312149
0.00384884
0.00459041
0.00531625
0.00599071
0.00657534
0.0070336
0.00733692
0.00747059
0.0074377
0.00726176
0.00698845
0.00664976
0.00617385
-0.00078425
-0.00123091
-0.00143667
-0.00154733
-0.00159249
-0.00157576
-0.00150268
-0.00137597
-0.00119445
-0.000954481
-0.000650961
-0.000278251
0.000168915
0.000694415
0.00129955
0.00198149
0.00273156
0.00353505
0.0043667
0.00519287
0.00597135
0.00665449
0.00719495
0.0075536
0.00770808
0.00765919
0.00743528
0.00709448
0.0066821
0.00612394
-0.00135678
-0.00183762
-0.0020613
-0.0021852
-0.0022419
-0.00223591
-0.00217351
-0.00205756
-0.00188642
-0.00165541
-0.00135794
-0.000986396
-0.000533075
8.72633e-06
0.000643414
0.00137117
0.00218554
0.00307529
0.00401315
0.00496249
0.0058741
0.00668915
0.00734573
0.00778921
0.00798439
0.00792605
0.00764666
0.00722012
0.00670956
0.0060362
-0.00205823
-0.00257596
-0.00281907
-0.00295768
-0.00302774
-0.00303497
-0.00298664
-0.00288594
-0.00273088
-0.0025158
-0.00223254
-0.00187134
-0.00142172
-0.000873532
-0.000218354
0.000548722
0.00142656
0.00240384
0.00345918
0.00455348
0.00563097
0.00662013
0.00744031
0.00801431
0.00828558
0.00823534
0.00789683
0.00736281
0.00672013
0.00588105
-0.00289637
-0.00345482
-0.0037194
-0.00387453
-0.00396019
-0.00398376
-0.00395393
-0.0038746
-0.00374367
-0.00355472
-0.00329815
-0.00296204
-0.00253295
-0.00199687
-0.00134045
-0.000552681
0.000372231
0.0014285
0.00260258
0.00385694
0.00513267
0.00634634
0.00739484
0.00816934
0.00857854
0.00857597
0.00818646
0.00752289
0.00670317
0.0056236
-0.0038798
-0.004484
-0.00477244
-0.00494601
-0.00504963
-0.00509299
-0.00508687
-0.00503643
-0.00493996
-0.00479069
-0.00457797
-0.00428809
-0.00390486
-0.00341033
-0.00278566
-0.00201262
-0.0010765
2.79225e-05
0.00130084
0.00271233
0.0042085
0.00569961
0.00705957
0.00813823
0.00878998
0.00891565
0.00851123
0.00770462
0.00665249
0.0052253
-0.00501818
-0.00567456
-0.00598944
-0.00618306
-0.00630652
-0.00637279
-0.00639569
-0.00638242
-0.00633241
-0.00623927
-0.0060921
-0.00587623
-0.00557358
-0.00516293
-0.00462036
-0.00391991
-0.00303518
-0.00194311
-0.000633496
0.000894649
0.00260421
0.00441289
0.00617949
0.00770638
0.00876875
0.00917415
0.00884855
0.00791443
0.00657058
0.00464772
-0.00632253
-0.00703946
-0.00738326
-0.00759751
-0.00774123
-0.00783208
-0.00788817
-0.00791989
-0.00792878
-0.00790992
-0.0078534
-0.00774509
-0.00756673
-0.00729582
-0.00690518
-0.00636246
-0.00562979
-0.00466509
-0.00343021
-0.00188672
-3.00075e-05
0.00209367
0.0043522
0.00650707
0.00823003
0.00917705
0.00912985
0.00815321
0.00647374
0.00385949
-0.00780612
-0.00859474
-0.00896932
-0.00920254
-0.00936396
-0.00947784
-0.00956834
-0.00965042
-0.00972899
-0.00980196
-0.00986212
-0.00989803
-0.00989406
-0.0098298
-0.00967876
-0.00940618
-0.00896598
-0.00829702
-0.0073221
-0.0059563
-0.00411606
-0.00176757
0.00101419
0.0039827
0.00669787
0.00859562
0.00919653
0.00839959
0.00639904
0.00284995
-0.00948586
-0.0103614
-0.0107671
-0.0110135
-0.0111847
-0.0113143
-0.0114348
-0.0115674
-0.0117218
-0.0119
-0.0120997
-0.0123148
-0.0125359
-0.0127496
-0.0129362
-0.0130656
-0.0130907
-0.0129366
-0.0124891
-0.011589
-0.010053
-0.00770384
-0.00448407
-0.00057638
0.00349945
0.00690704
0.00875522
0.00858768
0.00641677
0.0016582
-0.011385
-0.0123685
-0.0128025
-0.0130492
-0.0132134
-0.0133422
-0.0134793
-0.0136538
-0.0138813
-0.0141697
-0.014523
-0.0149434
-0.0154317
-0.0159873
-0.0166049
-0.0172687
-0.0179411
-0.0185437
-0.0189312
-0.0188644
-0.0180245
-0.0160476
-0.0126459
-0.00782653
-0.00209337
0.00345624
0.00738129
0.00860163
0.00665741
0.000435401
-0.013538
-0.0146588
-0.0151118
-0.0153335
-0.0154599
-0.0155574
-0.0156844
-0.0158793
-0.0161644
-0.016554
-0.0170598
-0.0176942
-0.0184723
-0.0194109
-0.0205269
-0.0218285
-0.0232994
-0.024871
-0.0263801
-0.0275161
-0.0277845
-0.0266392
-0.0234661
-0.0179741
-0.0104989
-0.00227855
0.00466149
0.00834037
0.00736926
-0.000434762
-0.0159988
-0.0172971
-0.0177471
-0.0178979
-0.0179339
-0.0179496
-0.0180216
-0.0181984
-0.0185085
-0.0189719
-0.0196083
-0.0204411
-0.0215011
-0.0228265
-0.0244606
-0.0264424
-0.0287858
-0.0314418
-0.0342405
-0.0368144
-0.0385299
-0.0386121
-0.0361148
-0.0303556
-0.0213385
-0.0102182
0.000543675
0.0079169
0.0090294
-0.00013435
-0.0188575
-0.0203853
-0.0207841
-0.0207828
-0.020643
-0.0204987
-0.0204478
-0.0205478
-0.0208307
-0.0213203
-0.0220419
-0.0230295
-0.0243289
-0.0259996
-0.0281118
-0.0307358
-0.0339167
-0.037627
-0.0416956
-0.0457228
-0.0490036
-0.0504348
-0.0488842
-0.0432483
-0.0330849
-0.0192139
-0.00419565
0.00800435
0.0125359
0.00286913
-0.0222726
-0.0240855
-0.0243324
-0.0240376
-0.0235872
-0.023168
-0.022899
-0.0228417
-0.0230267
-0.0234762
-0.0242181
-0.0252933
-0.0267601
-0.0286953
-0.0311916
-0.0343438
-0.0382194
-0.0428045
-0.0479221
-0.0531347
-0.0576561
-0.0602895
-0.0596146
-0.0542162
-0.0432105
-0.0269286
-0.00762799
0.0101992
0.0194969
0.0111207
-0.0265419
-0.0286598
-0.0285452
-0.0277134
-0.0267458
-0.0258903
-0.0252784
-0.0249643
-0.0249668
-0.0252998
-0.0259878
-0.0270736
-0.0286226
-0.0307229
-0.0334802
-0.0370015
-0.0413609
-0.0465398
-0.0523409
-0.0582845
-0.0635175
-0.0667761
-0.0664568
-0.0609273
-0.0489488
-0.0303594
-0.00684241
0.017167
0.0325728
0.028367
-0.0322576
-0.0345289
-0.0336199
-0.0318396
-0.0300482
-0.0285411
-0.0274342
-0.0267519
-0.0264856
-0.0266301
-0.0271987
-0.0282294
-0.0297878
-0.0319642
-0.0348658
-0.038596
-0.0432162
-0.0486817
-0.0547537
-0.0608935
-0.0661752
-0.0692677
-0.0684363
-0.0619291
-0.0482505
-0.0268145
0.00130127
0.0323762
0.0556392
0.0594291
-0.0406767
-0.0423534
-0.0397519
-0.0363553
-0.0333081
-0.0308795
-0.0291088
-0.0279521
-0.0273497
-0.0272617
-0.0276797
-0.0286272
-0.030162
-0.0323658
-0.0353341
-0.0391506
-0.0438431
-0.0493189
-0.0552749
-0.0610965
-0.065774
-0.0678845
-0.0655774
-0.0569534
-0.0403153
-0.0147958
0.0191308
0.05914
0.0931355
0.109732
-0.0548189
-0.0531569
-0.0470111
-0.0409665
-0.0360933
-0.0324374
-0.029849
-0.0281569
-0.0272123
-0.0269157
-0.027221
-0.0281269
-0.0296703
-0.0319143
-0.03493
-0.0387658
-0.0434006
-0.0486751
-0.054206
-0.0592899
-0.062824
-0.0632665
-0.0586506
-0.0468387
-0.0258712
0.00555065
0.0474957
0.0988188
0.147937
0.186469
-0.0824088
-0.0680448
-0.0552617
-0.0450515
-0.0376289
-0.0324811
-0.0290305
-0.0268742
-0.0257116
-0.0253486
-0.0256802
-0.0266681
-0.0283216
-0.0306776
-0.0337757
-0.0376218
-0.0421376
-0.0470914
-0.0520128
-0.0561012
-0.0581642
-0.0565573
-0.0492289
-0.0336711
-0.00747754
0.0314378
0.0841396
0.150821
0.221332
0.303941
-0.134771
-0.0832945
-0.0621625
-0.0461146
-0.0356692
-0.0292631
-0.0254321
-0.0232873
-0.0223155
-0.0222229
-0.0228515
-0.0241328
-0.0260555
-0.0286371
-0.031892
-0.0357926
-0.0402164
-0.04488
-0.0492583
-0.0524886
-0.0532914
-0.049897
-0.0403111
-0.0217095
0.00898228
0.0552772
0.120541
0.209596
0.318518
0.488883
-0.307003
-0.0928063
-0.0445687
-0.0272088
-0.0182207
-0.014078
-0.0127598
-0.0128431
-0.0136613
-0.0149761
-0.0167146
-0.0188724
-0.0214832
-0.0245938
-0.0282357
-0.0323873
-0.0369262
-0.0415669
-0.0457903
-0.0487685
-0.0493152
-0.0458292
-0.0359139
-0.0168987
0.0144985
0.0632365
0.136297
0.251298
0.42719
0.771518
)
;

boundaryField
{
    movingWall
    {
        type            zeroGradient;
    }
    fixedWalls
    {
        type            zeroGradient;
    }
    frontAndBack
    {
        type            empty;
    }
}


// ************************************************************************* //
