/*--------------------------------*- C++ -*----------------------------------*\
  =========                 |
  \\      /  F ield         | OpenFOAM: The Open Source CFD Toolbox
   \\    /   O peration     | Website:  https://openfoam.org
    \\  /    A nd           | Version:  7
     \\/     M anipulation  |
\*---------------------------------------------------------------------------*/
FoamFile
{
    version     2.0;
    format      ascii;
    class       surfaceScalarField;
    location    "3.8";
    object      phi;
}
// * * * * * * * * * * * * * * * * * * * * * * * * * * * * * * * * * * * * * //

dimensions      [0 3 -1 0 0 0 0];

internalField   nonuniform List<scalar> 
1740
(
3.14091e-07
-3.14088e-07
-6.96584e-07
1.01068e-06
-3.07101e-06
2.37443e-06
-6.46472e-06
3.39372e-06
-1.05022e-05
4.03753e-06
-1.48689e-05
4.36662e-06
-1.933e-05
4.46115e-06
-2.37192e-05
4.38921e-06
-2.79166e-05
4.19741e-06
-3.1829e-05
3.91242e-06
-3.53747e-05
3.5457e-06
-3.84736e-05
3.09881e-06
-4.10417e-05
2.5681e-06
-4.29904e-05
1.94879e-06
-4.42287e-05
1.2383e-06
-4.46679e-05
4.39161e-07
-4.42294e-05
-4.38478e-07
-4.28548e-05
-1.37461e-06
-4.05176e-05
-2.33724e-06
-3.72358e-05
-3.28177e-06
-3.30846e-05
-4.15119e-06
-2.82066e-05
-4.87808e-06
-2.28181e-05
-5.38849e-06
-1.72105e-05
-5.60757e-06
-1.17442e-05
-5.46632e-06
-6.83389e-06
-4.91026e-06
-2.9191e-06
-3.91479e-06
-4.01262e-07
-2.51784e-06
4.91319e-07
-8.92582e-07
4.91317e-07
-1.00831e-06
6.94227e-07
-4.89487e-06
4.89723e-06
-1.14999e-05
8.9794e-06
-2.02053e-05
1.20992e-05
-3.03175e-05
1.41497e-05
-4.11994e-05
1.52485e-05
-5.23249e-05
1.55867e-05
-6.32825e-05
1.53468e-05
-7.37521e-05
1.46671e-05
-8.34751e-05
1.36354e-05
-9.22267e-05
1.22973e-05
-9.97963e-05
1.06684e-05
-0.000105976
8.74801e-06
-0.000110558
6.53094e-06
-0.000113339
4.01858e-06
-0.000114127
1.22734e-06
-0.000112766
-1.79975e-06
-0.000109147
-4.99364e-06
-0.00010324
-8.2437e-06
-9.51192e-05
-1.14026e-05
-8.4985e-05
-1.42853e-05
-7.31868e-05
-1.66763e-05
-6.02322e-05
-1.83431e-05
-4.67835e-05
-1.90562e-05
-3.36346e-05
-1.86153e-05
-2.16626e-05
-1.68823e-05
-1.17463e-05
-1.38311e-05
-4.64062e-06
-9.62348e-06
-8.16302e-07
-4.7169e-06
-3.24988e-07
-2.46795e-06
3.16218e-06
-9.29667e-06
1.17259e-05
-1.97436e-05
1.94263e-05
-3.29298e-05
2.52854e-05
-4.79428e-05
2.91628e-05
-6.39475e-05
3.12532e-05
-8.02364e-05
3.18756e-05
-9.62357e-05
3.13461e-05
-0.000111484
2.99151e-05
-0.000125599
2.77508e-05
-0.000138249
2.49474e-05
-0.000149126
2.15455e-05
-0.000157933
1.7555e-05
-0.00016438
1.29773e-05
-0.000168186
7.82531e-06
-0.000169102
2.14253e-06
-0.000166917
-3.98444e-06
-0.000161502
-1.04081e-05
-0.000152835
-1.69109e-05
-0.000141035
-2.32028e-05
-0.000126397
-2.89231e-05
-0.000109418
-3.36559e-05
-9.08038e-05
-3.69571e-05
-7.14641e-05
-3.83959e-05
-5.24712e-05
-3.76081e-05
-3.49912e-05
-3.43622e-05
-2.01775e-05
-2.86449e-05
-9.03122e-06
-2.07697e-05
-2.22628e-06
-1.15218e-05
-2.55127e-06
-3.71758e-06
6.87975e-06
-1.31686e-05
2.11769e-05
-2.70159e-05
3.32737e-05
-4.4042e-05
4.23115e-05
-6.31268e-05
4.82475e-05
-8.3285e-05
5.14114e-05
-0.000103688
5.22784e-05
-0.000123657
5.13149e-05
-0.000142637
4.88958e-05
-0.000160166
4.52795e-05
-0.000175836
4.06171e-05
-0.00018927
3.498e-05
-0.000200108
2.83931e-05
-0.000207999
2.08682e-05
-0.000212609
1.24346e-05
-0.000213634
3.16784e-06
-0.000210828
-6.79004e-06
-0.000204037
-1.71994e-05
-0.000193234
-2.77138e-05
-0.000178566
-3.78711e-05
-0.00016039
-4.70986e-05
-0.000139308
-5.47383e-05
-0.000116173
-6.00919e-05
-9.20797e-05
-6.24892e-05
-6.83127e-05
-6.13751e-05
-4.62627e-05
-5.64122e-05
-2.73093e-05
-4.75983e-05
-1.26853e-05
-3.53938e-05
-3.3534e-06
-2.08537e-05
-5.90467e-06
-4.72024e-06
1.16e-05
-1.64041e-05
3.28608e-05
-3.31841e-05
5.00537e-05
-5.35026e-05
6.263e-05
-7.60299e-05
7.07748e-05
-9.96478e-05
7.50293e-05
-0.000123436
7.60662e-05
-0.000146645
7.45245e-05
-0.000168665
7.09157e-05
-0.00018898
6.55947e-05
-0.000207136
5.87729e-05
-0.00022271
5.05537e-05
-0.000235293
4.09764e-05
-0.000244486
3.00615e-05
-0.000249905
1.78528e-05
-0.000251194
4.45714e-06
-0.000248059
-9.92487e-06
-0.000240303
-2.49556e-05
-0.000227873
-4.01438e-05
-0.000210913
-5.48308e-05
-0.000189814
-6.81979e-05
-0.000165251
-7.93013e-05
-0.000138202
-8.71407e-05
-0.000109931
-9.07606e-05
-8.19276e-05
-8.93782e-05
-5.58117e-05
-8.25281e-05
-3.32003e-05
-7.02098e-05
-1.55726e-05
-5.30215e-05
-4.16758e-06
-3.22587e-05
-1.00723e-05
-5.51735e-06
1.71173e-05
-1.90788e-05
4.64222e-05
-3.83783e-05
6.93532e-05
-6.15456e-05
8.57973e-05
-8.70488e-05
9.6278e-05
-0.000113645
0.000101625
-0.000140337
0.000102758
-0.000166329
0.000100517
-0.000190976
9.55622e-05
-0.000213734
8.8353e-05
-0.000234122
7.9161e-05
-0.000251686
6.81179e-05
-0.000265982
5.52717e-05
-0.000276563
4.06432e-05
-0.000282991
2.42809e-05
-0.000284848
6.31411e-06
-0.000281768
-1.30051e-05
-0.000273482
-3.3242e-05
-0.000259874
-5.37512e-05
-0.00024105
-7.36552e-05
-0.000217397
-9.18504e-05
-0.000189645
-0.000107054
-0.000158888
-0.000117897
-0.000126575
-0.000123074
-9.44372e-05
-0.000121516
-6.43714e-05
-0.000112594
-3.82803e-05
-9.63008e-05
-1.79141e-05
-7.33877e-05
-4.75392e-06
-4.54189e-05
-1.48262e-05
-6.17116e-06
2.32885e-05
-2.13398e-05
6.15909e-05
-4.28436e-05
9.0857e-05
-6.85352e-05
0.000111489
-9.6694e-05
0.000124437
-0.00012596
0.000130892
-0.000155272
0.00013207
-0.000183799
0.000129043
-0.000210878
0.000122642
-0.000235958
0.000113433
-0.000258544
0.000101747
-0.000278164
8.77377e-05
-0.000294342
7.145e-05
-0.000306588
5.28893e-05
-0.000314398
3.20906e-05
-0.00031727
9.18598e-06
-0.000314737
-1.55382e-05
-0.000306417
-4.1562e-05
-0.000292085
-6.8083e-05
-0.000271756
-9.39845e-05
-0.000245773
-0.000117833
-0.000214891
-0.000137936
-0.000180322
-0.000152466
-0.000143734
-0.000159663
-0.000107165
-0.000158084
-7.28771e-05
-0.000146882
-4.314e-05
-0.000126038
-2.00214e-05
-9.65063e-05
-5.22065e-06
-6.02196e-05
-2.00468e-05
-6.74078e-06
3.00293e-05
-2.33454e-05
7.81956e-05
-4.68515e-05
0.000114363
-7.48651e-05
0.000139502
-0.000105492
0.000155063
-0.000137264
0.000162664
-0.000169063
0.000163869
-0.000200036
0.000160017
-0.00022952
0.000152126
-0.000256966
0.000140879
-0.000281882
0.000126663
-0.000303789
0.000109644
-0.000322185
8.98468e-05
-0.000336535
6.72387e-05
-0.000346257
4.1813e-05
-0.000350745
1.36733e-05
-0.000349393
-1.68903e-05
-0.000341655
-4.92999e-05
-0.000327134
-8.26038e-05
-0.000305687
-0.000115431
-0.00027755
-0.00014597
-0.000243458
-0.000172027
-0.000204735
-0.000191189
-0.000163306
-0.000201092
-0.000121611
-0.000199779
-8.24036e-05
-0.00018609
-4.84528e-05
-0.000159989
-2.22323e-05
-0.000122727
-5.66897e-06
-7.6783e-05
-2.57158e-05
-7.27415e-06
3.73034e-05
-2.52356e-05
9.61571e-05
-5.06506e-05
0.000139778
-8.08971e-05
0.000169749
-0.000113917
0.000188084
-0.000148145
0.000196891
-0.000182414
0.000198138
-0.000215862
0.000193465
-0.000247837
0.000184101
-0.00027781
0.000170852
-0.000305308
0.00015416
-0.000329856
0.000134192
-0.000350939
0.00011093
-0.000367975
8.42748e-05
-0.000380301
5.41395e-05
-0.000387182
2.05536e-05
-0.000387836
-1.62355e-05
-0.000381493
-5.56431e-05
-0.000367504
-9.65932e-05
-0.000345473
-0.000137462
-0.000315432
-0.000176011
-0.000278019
-0.00020944
-0.000234632
-0.000234577
-0.000187488
-0.000248235
-0.000139543
-0.000247723
-9.42225e-05
-0.00023141
-5.49996e-05
-0.000199212
-2.49166e-05
-0.00015281
-6.19547e-06
-9.55041e-05
-3.19113e-05
-7.80772e-06
4.51112e-05
-2.71239e-05
0.000115473
-5.44475e-05
0.000167102
-8.69328e-05
0.000202234
-0.000122364
0.000223514
-0.00015908
0.000233608
-0.00019588
0.000234937
-0.000231904
0.000229489
-0.000266526
0.000218724
-0.000299258
0.000203584
-0.000329663
0.000184565
-0.000357292
0.000161821
-0.000381632
0.00013527
-0.000402068
0.000104711
-0.000417856
6.99271e-05
-0.000428115
3.08129e-05
-0.00043186
-1.24909e-05
-0.000428019
-5.94841e-05
-0.000415598
-0.000109014
-0.000393821
-0.000159239
-0.000362366
-0.000207466
-0.000321635
-0.000250171
-0.000273007
-0.000283204
-0.000218996
-0.000302246
-0.000163199
-0.000303521
-0.000109962
-0.000284647
-6.37753e-05
-0.000245398
-2.85327e-05
-0.000188052
-6.91119e-06
-0.000117126
-3.88225e-05
-8.36836e-06
5.34795e-05
-2.90976e-05
0.000136203
-5.84038e-05
0.000196408
-9.32072e-05
0.000237038
-0.00013113
0.000261437
-0.000170423
0.000272901
-0.000209856
0.00027437
-0.000248588
0.000268221
-0.000286042
0.000256177
-0.000321788
0.000239331
-0.000355456
0.000218233
-0.00038665
0.000193014
-0.000414888
0.000163508
-0.000439547
0.000129371
-0.000459821
9.02003e-05
-0.000474682
4.56747e-05
-0.000482924
-4.24943e-06
-0.000483096
-5.93123e-05
-0.000473751
-0.000118359
-0.000453561
-0.000179429
-0.000421636
-0.000239391
-0.000377912
-0.000293896
-0.000323563
-0.000337553
-0.000261324
-0.000364485
-0.000195549
-0.000369296
-0.000131833
-0.000348363
-7.61517e-05
-0.000301079
-3.37158e-05
-0.000230488
-7.96967e-06
-0.000142872
-4.67921e-05
-8.97626e-06
6.24558e-05
-3.12247e-05
0.000158451
-6.26443e-05
0.000227827
-9.98978e-05
0.000274291
-0.000140433
0.000301973
-0.000182413
0.000314881
-0.000224589
0.000316546
-0.000266156
0.000309788
-0.000306605
0.000296626
-0.0003456
0.000278325
-0.000382865
0.000255498
-0.000418101
0.00022825
-0.0004509
0.000196308
-0.000480681
0.000159151
-0.000506611
0.000116131
-0.000527555
6.66183e-05
-0.000542031
1.02272e-05
-0.000548236
-5.31078e-05
-0.000544098
-0.000122496
-0.000527534
-0.000195994
-0.000496793
-0.000270132
-0.000450998
-0.000339691
-0.000390784
-0.000397767
-0.000318908
-0.000436361
-0.00024053
-0.000447675
-0.000162871
-0.000426022
-9.4063e-05
-0.000369888
-4.13828e-05
-0.000283168
-9.59953e-06
-0.000174655
-5.63917e-05
-9.64837e-06
7.21041e-05
-3.35622e-05
0.000182365
-6.72718e-05
0.000261537
-0.000107143
0.000314163
-0.000150431
0.00034526
-0.000195204
0.000359654
-0.000240206
0.000361548
-0.000284685
0.000354266
-0.00032823
0.000340171
-0.000370627
0.000320723
-0.000411744
0.000296615
-0.000451424
0.00026793
-0.000489399
0.000234283
-0.000525193
0.000194945
-0.000558025
0.000148962
-0.000586703
9.52967e-05
-0.000609518
3.3042e-05
-0.000624275
-3.83503e-05
-0.000628169
-0.000118603
-0.00061813
-0.000206032
-0.000591185
-0.000297077
-0.000545163
-0.000385714
-0.000479647
-0.000463283
-0.000396997
-0.000519011
-0.000303064
-0.000541608
-0.000207065
-0.000522021
-0.000120159
-0.000456794
-5.28316e-05
-0.000350496
-1.21363e-05
-0.00021535
-6.8528e-05
-1.04027e-05
8.25068e-05
-3.61687e-05
0.000208131
-7.23861e-05
0.000297754
-0.000115069
0.000356845
-0.000161247
0.000391439
-0.00020889
0.000407297
-0.00025674
0.000409399
-0.00030412
0.000401646
-0.000350744
0.000386795
-0.000396561
0.00036654
-0.000441623
0.000341677
-0.000485981
0.000312288
-0.000529579
0.000277881
-0.000572141
0.000237507
-0.000613034
0.000189855
-0.000651115
0.000133377
-0.000684542
6.64695e-05
-0.00071073
-1.21623e-05
-0.000726073
-0.00010326
-0.000726317
-0.000205788
-0.000706869
-0.000316525
-0.00066369
-0.000428892
-0.000594602
-0.00053237
-0.000500875
-0.000612739
-0.00038862
-0.000653863
-0.000269215
-0.000641426
-0.000157837
-0.000568172
-6.98064e-05
-0.000438527
-1.60478e-05
-0.000269109
-8.45758e-05
-1.12632e-05
9.377e-05
-3.91186e-05
0.000235986
-7.81088e-05
0.000336745
-0.000123818
0.000402555
-0.000173011
0.000440632
-0.000223545
0.000457831
-0.000274172
0.000460025
-0.000324308
0.000451783
-0.000373822
0.000436309
-0.000422858
0.000415575
-0.000471703
0.000390522
-0.000520675
0.00036126
-0.000570011
0.000327218
-0.000619739
0.000287234
-0.000669502
0.000239619
-0.000718344
0.000182219
-0.000764439
0.000112564
-0.000804819
2.82177e-05
-0.000835241
-7.28379e-05
-0.000850054
-0.000190975
-0.000842744
-0.000323835
-0.000806843
-0.000464794
-0.000737588
-0.000601626
-0.000634153
-0.000716173
-0.000501993
-0.000786023
-0.000354295
-0.000789124
-0.000211053
-0.000711414
-9.44996e-05
-0.00055508
-2.19523e-05
-0.000341656
-0.000106528
-1.22667e-05
0.000106037
-4.25209e-05
0.00026624
-8.46112e-05
0.000378835
-0.000133587
0.00045153
-0.000185894
0.000492939
-0.000239263
0.0005112
-0.000292465
0.000513227
-0.00034503
0.000504348
-0.000397005
0.000488284
-0.00044876
0.00046733
-0.000500851
0.000442614
-0.000553913
0.000414322
-0.000608546
0.000381851
-0.000665178
0.000343866
-0.000723856
0.000298297
-0.000783967
0.000242331
-0.000843875
0.000172471
-0.00090046
8.48034e-05
-0.000948915
-2.43831e-05
-0.000982309
-0.000157581
-0.000992115
-0.000314029
-0.000969073
-0.000487836
-0.000905083
-0.000665616
-0.000796015
-0.00082524
-0.000645125
-0.000936914
-0.00046611
-0.000968139
-0.000283779
-0.000893744
-0.000129474
-0.000709385
-3.06416e-05
-0.000440488
-0.00013717
-1.3472e-05
0.000119509
-4.6543e-05
0.000299311
-9.21508e-05
0.000424443
-0.000144665
0.000504045
-0.000200147
0.00054842
-0.000256189
0.000567242
-0.000311594
0.000568632
-0.000366026
0.000558781
-0.000419727
0.000541985
-0.000473308
0.00052091
-0.000527606
0.000496912
-0.000583594
0.00047031
-0.00064227
0.000440527
-0.000704519
0.000406115
-0.000770891
0.000364669
-0.000841263
0.000312702
-0.000914381
0.000245589
-0.000987306
0.000157728
-0.00105485
4.31635e-05
-0.00110931
-0.000103125
-0.0011404
-0.000282936
-0.00113619
-0.000492049
-0.00108486
-0.000716945
-0.000977821
-0.000932277
-0.000814042
-0.00110069
-0.000605121
-0.00117706
-0.00037898
-0.00111989
-0.000177462
-0.000910903
-4.31243e-05
-0.000574826
-0.000180294
-1.49735e-05
0.000134482
-5.14448e-05
0.000335783
-0.000101117
0.000474115
-0.000157484
0.000560411
-0.000216146
0.000607083
-0.000274555
0.000625651
-0.000331567
0.000625644
-0.000387008
0.000614221
-0.000441321
0.000596299
-0.000495349
0.000574938
-0.000550195
0.000551758
-0.000607139
0.000527253
-0.000667553
0.000500941
-0.000732775
0.000471337
-0.00080388
0.000435774
-0.000881322
0.000390145
-0.000964424
0.000328691
-0.00105073
0.000244036
-0.00113532
0.000127749
-0.00121021
-2.82332e-05
-0.00126438
-0.000228765
-0.00128397
-0.000472455
-0.00125381
-0.000747106
-0.00116019
-0.0010259
-0.000995545
-0.00126533
-0.000765497
-0.00140711
-0.000496862
-0.00138852
-0.000240915
-0.00116685
-6.06876e-05
-0.000755053
-0.000240982
-1.69238e-05
0.000151406
-5.76286e-05
0.000376487
-0.000112091
0.000528577
-0.000172665
0.000620986
-0.000234418
0.000668835
-0.00029468
0.000685913
-0.000352413
0.000683377
-0.00040763
0.000669438
-0.000460984
0.000649654
-0.000513521
0.000627475
-0.000566548
0.000604785
-0.000621572
0.000582277
-0.000680243
0.000559613
-0.000744253
0.000535347
-0.000815132
0.000506653
-0.000893913
0.000468926
-0.000980627
0.000415406
-0.00107366
0.000337064
-0.001169
0.000223093
-0.00125945
6.22131e-05
-0.00133449
-0.000153724
-0.00138004
-0.000426904
-0.00137882
-0.000748325
-0.00131235
-0.00109237
-0.00116501
-0.00141268
-0.000932037
-0.00164008
-0.000632302
-0.00168826
-0.000320999
-0.00147815
-8.49141e-05
-0.000991138
-0.000325896
-1.95737e-05
0.00017098
-6.57182e-05
0.000422632
-0.000125928
0.000588787
-0.000191079
0.000686137
-0.000255652
0.000733409
-0.000316937
0.000747198
-0.00037409
0.00074053
-0.000427373
0.000722721
-0.000477655
0.000699935
-0.000526139
0.000675959
-0.000574249
0.000652895
-0.000623592
0.00063162
-0.000675936
0.000611956
-0.000733145
0.000592556
-0.000797039
0.000570547
-0.00086913
0.000541016
-0.000950206
0.000496482
-0.00103978
0.00042664
-0.00113543
0.000318738
-0.00123213
0.000158919
-0.00132089
-6.49662e-05
-0.00139002
-0.00035778
-0.00142216
-0.000716179
-0.00139583
-0.0011187
-0.00128743
-0.00152107
-0.00107856
-0.00184896
-0.000771948
-0.00199487
-0.000415791
-0.00183431
-0.000117524
-0.0012894
-0.00044342
-2.33481e-05
0.000194328
-7.66891e-05
0.000475973
-0.000143874
0.000655972
-0.000213884
0.000756147
-0.00028065
0.000800174
-0.000341602
0.00080815
-0.000396267
0.000795194
-0.000445257
0.000771711
-0.000489683
0.000744362
-0.000530872
0.000717148
-0.000570274
0.000692297
-0.000609455
0.0006708
-0.000650109
0.000652611
-0.000694061
0.000636508
-0.000743198
0.000619684
-0.000799332
0.000597151
-0.000863961
0.000561111
-0.000937899
0.000500578
-0.0010208
0.000401642
-0.00111066
0.000248779
-0.00120201
2.63808e-05
-0.00128699
-0.0002728
-0.00135114
-0.000652024
-0.00137305
-0.0010968
-0.00132356
-0.00157056
-0.00117019
-0.00200233
-0.000892867
-0.00227219
-0.000517949
-0.00220923
-0.000159877
-0.00164748
-0.000603297
-2.89955e-05
0.000223323
-9.20888e-05
0.000539066
-0.000167712
0.000731595
-0.000242525
0.00083096
-0.000310141
0.00086779
-0.000368505
0.000866514
-0.00041781
0.0008445
-0.000459199
0.000813101
-0.000494102
0.000779264
-0.000523972
0.000747018
-0.000550228
0.000718554
-0.000574291
0.000694863
-0.000597636
0.000675956
-0.000621853
0.000660725
-0.000648688
0.000646519
-0.000680056
0.000628519
-0.000718009
0.000599064
-0.000764637
0.000547206
-0.000821828
0.000458833
-0.000890759
0.000317711
-0.000971787
0.000107409
-0.00106032
-0.000184266
-0.00114841
-0.00056393
-0.00121836
-0.00102685
-0.00124009
-0.00154883
-0.00117058
-0.00207184
-0.000964838
-0.00247793
-0.000613071
-0.002561
-0.000211964
-0.00204858
-0.000815261
-3.78928e-05
0.000261216
-0.000114403
0.000615577
-0.000199919
0.000817111
-0.00027856
0.000909601
-0.000344266
0.000933495
-0.000396189
0.000918437
-0.000435673
0.000883984
-0.000464674
0.000842102
-0.000485097
0.000799687
-0.000498595
0.000760516
-0.000506582
0.00072654
-0.000510307
0.000698589
-0.000510967
0.000676616
-0.00050982
0.000659577
-0.000508331
0.00064503
-0.000508344
0.000628532
-0.000512267
0.000602987
-0.000523229
0.000558168
-0.000545115
0.000480719
-0.000582346
0.000354941
-0.00063939
0.000164454
-0.000718286
-0.00010537
-0.000817252
-0.000464965
-0.000925985
-0.000918121
-0.00101942
-0.0014554
-0.00105142
-0.00203984
-0.000956434
-0.00257291
-0.000680105
-0.00283732
-0.000270814
-0.00245788
-0.00108607
-5.26525e-05
0.000313869
-0.00014761
0.000710534
-0.000243664
0.000913165
-0.000322949
0.000988886
-0.000381204
0.00099175
-0.00041997
0.000957203
-0.000442475
0.000906488
-0.000451911
0.000851538
-0.000450906
0.000798682
-0.000441475
0.000751086
-0.000425134
0.000710198
-0.000403037
0.000676492
-0.000376137
0.000649716
-0.000345362
0.000628802
-0.000311844
0.000611513
-0.000277227
0.000593914
-0.000244028
0.000569788
-0.000216029
0.000530169
-0.000198542
0.000463232
-0.000198384
0.000354784
-0.000223396
0.000189465
-0.000281195
-4.75711e-05
-0.000376541
-0.000369619
-0.000508408
-0.000786254
-0.000662366
-0.00130144
-0.000798424
-0.00190378
-0.000841517
-0.00252982
-0.000693853
-0.00298499
-0.000328531
-0.0028232
-0.00141461
-7.82784e-05
0.000392147
-0.000197749
0.000830005
-0.00030187
0.00101729
-0.00037358
0.0010606
-0.000413399
0.00103157
-0.000427153
0.000970957
-0.000420987
0.000900322
-0.000399888
0.00083044
-0.000367526
0.00076632
-0.000326467
0.000710027
-0.000278455
0.000662186
-0.000224639
0.000622676
-0.000165796
0.000590873
-0.000102563
0.000565569
-3.57307e-05
0.00054468
3.33627e-05
0.000524821
0.000102354
0.000500797
0.000167331
0.000465192
0.000222366
0.000408197
0.000259293
0.000317857
0.000267923
0.000180836
0.000236566
-1.62148e-05
0.000155169
-0.000288221
1.57406e-05
-0.000646826
-0.000179647
-0.00110605
-0.000408122
-0.00167531
-0.00060054
-0.0023374
-0.000627121
-0.00295841
-0.000370395
-0.00307992
-0.001785
-0.000124149
0.000516296
-0.000272275
0.000978132
-0.00037242
0.00111743
-0.000417019
0.0011052
-0.00041686
0.00103141
-0.000384839
0.000938936
-0.00033127
0.000846753
-0.000263439
0.000762609
-0.000186193
0.000689074
-0.000102626
0.000626459
-1.46175e-05
0.000574178
7.67722e-05
0.000531286
0.000171022
0.000496624
0.000267849
0.000468742
0.000366874
0.000445656
0.000467201
0.000424494
0.000566886
0.000401111
0.00066234
0.000369738
0.000747746
0.000322791
0.000814641
0.000250962
0.000851822
0.000143654
0.000845309
-9.70111e-06
0.000781345
-0.000224258
0.000644753
-0.000510234
0.000424121
-0.000885419
0.000123523
-0.00137471
-0.000211305
-0.00200257
-0.000448579
-0.00272113
-0.000376639
-0.00315186
-0.00216164
-0.000206756
0.000723052
-0.000371055
0.00114243
-0.000427869
0.00117424
-0.000401246
0.00107857
-0.000320867
0.000951032
-0.000209565
0.000827635
-8.20872e-05
0.000719275
5.25893e-05
0.000627932
0.000189319
0.000552344
0.000325346
0.000490432
0.000459404
0.00044012
0.000591139
0.000399552
0.000720712
0.00036705
0.000848494
0.00034096
0.000974727
0.000319423
0.00109912
0.000300102
0.00122034
0.000279888
0.00133545
0.000254635
0.00143925
0.000218991
0.00152377
0.000166437
0.00157774
8.96892e-05
0.00158686
-1.88233e-05
0.00153437
-0.000171771
0.00140089
-0.000376753
0.00116563
-0.000650157
0.000811877
-0.00102096
0.0003507
-0.0015414
-0.000110245
-0.00226019
-0.000308731
-0.00295338
-0.00247037
-0.000339002
0.00106205
-0.000426025
0.00122945
-0.00033541
0.00108363
-0.000152314
0.000895477
6.79759e-05
0.000730742
0.000297202
0.000598409
0.000521276
0.0004952
0.000734046
0.000415162
0.000933465
0.000352925
0.00111956
0.000304334
0.00129338
0.000266303
0.00145641
0.00023652
0.00161029
0.000213171
0.00175654
0.000194714
0.00189631
0.000179655
0.00203007
0.00016634
0.00215719
0.000152761
0.00227545
0.000136382
0.00238042
0.000114016
0.00246506
8.17939e-05
0.00251896
3.57967e-05
0.0025289
-2.87669e-05
0.00247613
-0.000119005
0.00233963
-0.00024025
0.0020932
-0.000403728
0.00170596
-0.000633716
0.00114927
-0.000984706
0.000473217
-0.00158413
-4.81085e-05
-0.00243205
-0.00251848
-0.000299247
0.0013613
-4.18637e-05
0.000972071
0.000392411
0.000649354
0.000816266
0.000471621
0.00119858
0.000348424
0.00153522
0.00026177
0.00182879
0.000201638
0.0020845
0.000159448
0.00230826
0.00012917
0.00250556
0.000107027
0.00268123
9.06361e-05
0.00283934
7.84052e-05
0.00298331
6.92044e-05
0.00311586
6.21691e-05
0.00323896
5.65512e-05
0.0033537
5.1601e-05
0.00345999
4.64734e-05
0.00355621
4.0163e-05
0.00363875
3.14735e-05
0.00370141
1.91366e-05
0.00373507
2.13174e-06
0.00373015
-2.38507e-05
0.00366827
-5.71233e-05
0.00352957
-0.000101544
0.00328739
-0.000161554
0.0029035
-0.000249821
0.00231939
-0.000400596
0.00148339
-0.000748139
0.000502988
-0.00145165
-0.00201549
0.0013613
0.00233337
0.00298273
0.00345435
0.00380277
0.00406454
0.00426618
0.00442563
0.0045548
0.00466182
0.00475246
0.00483086
0.00490007
0.00496224
0.00501879
0.00507039
0.00511686
0.00515703
0.0051885
0.00520764
0.00520977
0.00518592
0.00512879
0.00502725
0.0048657
0.00461587
0.00421528
0.00346714
0.00201549
)
;

boundaryField
{
    movingWall
    {
        type            calculated;
        value           uniform 0;
    }
    fixedWalls
    {
        type            calculated;
        value           uniform 0;
    }
    frontAndBack
    {
        type            empty;
        value           nonuniform 0();
    }
}


// ************************************************************************* //
