/*--------------------------------*- C++ -*----------------------------------*\
  =========                 |
  \\      /  F ield         | OpenFOAM: The Open Source CFD Toolbox
   \\    /   O peration     | Website:  https://openfoam.org
    \\  /    A nd           | Version:  7
     \\/     M anipulation  |
\*---------------------------------------------------------------------------*/
FoamFile
{
    version     2.0;
    format      ascii;
    class       volVectorField;
    location    "8.6";
    object      U;
}
// * * * * * * * * * * * * * * * * * * * * * * * * * * * * * * * * * * * * * //

dimensions      [0 1 -1 0 0 0 0];

internalField   nonuniform List<vector> 
900
(
(9.16675e-05 -9.04155e-05 0)
(9.31297e-05 -5.5123e-06 0)
(-0.000246784 0.000102178 0)
(-0.000864711 0.000185142 0)
(-0.0016828 0.000237795 0)
(-0.00263077 0.000266484 0)
(-0.00364978 0.000279214 0)
(-0.00469581 0.000281801 0)
(-0.00573525 0.00027723 0)
(-0.00673905 0.000266185 0)
(-0.00767805 0.00024777 0)
(-0.00851994 0.000220203 0)
(-0.00922812 0.000181488 0)
(-0.00976239 0.000130072 0)
(-0.0100814 6.55155e-05 0)
(-0.0101472 -1.09353e-05 0)
(-0.00993003 -9.64635e-05 0)
(-0.00941505 -0.000185333 0)
(-0.00860855 -0.000269978 0)
(-0.00754206 -0.000341555 0)
(-0.00627403 -0.000391061 0)
(-0.00488762 -0.000410838 0)
(-0.00348409 -0.000396075 0)
(-0.00217248 -0.000345966 0)
(-0.00105592 -0.000264171 0)
(-0.000214428 -0.000159675 0)
(0.00029075 -4.94865e-05 0)
(0.000450849 5.85766e-05 0)
(0.000328211 0.000127075 0)
(0.000103325 0.000103627 0)
(8.69762e-06 -9.65623e-05 0)
(-0.000396889 0.000391316 0)
(-0.00154463 0.000932438 0)
(-0.00326532 0.00136843 0)
(-0.00542485 0.00167183 0)
(-0.00788595 0.00185681 0)
(-0.0105213 0.00194835 0)
(-0.0132244 0.00196762 0)
(-0.0159049 0.00192699 0)
(-0.0184807 0.00183024 0)
(-0.0208701 0.00167465 0)
(-0.022987 0.00145398 0)
(-0.0247395 0.00116167 0)
(-0.0260321 0.000794237 0)
(-0.0267715 0.000354306 0)
(-0.0268768 -0.000146971 0)
(-0.0262893 -0.000687454 0)
(-0.0249855 -0.00123399 0)
(-0.0229901 -0.00174444 0)
(-0.0203827 -0.00217136 0)
(-0.0172999 -0.00246798 0)
(-0.0139302 -0.0025955 0)
(-0.0104995 -0.00253056 0)
(-0.00724956 -0.00227109 0)
(-0.00440948 -0.00183931 0)
(-0.00216523 -0.00128325 0)
(-0.000635629 -0.000679075 0)
(0.000155703 -0.0001093 0)
(0.000315108 0.000289449 0)
(0.000129579 0.000324352 0)
(-0.000110146 0.000251507 0)
(-0.00100892 0.0015565 0)
(-0.00301845 0.00286319 0)
(-0.00579452 0.00392169 0)
(-0.00915228 0.0046798 0)
(-0.012915 0.00515751 0)
(-0.0169124 0.00539845 0)
(-0.0209951 0.00544285 0)
(-0.0250316 0.00531582 0)
(-0.028898 0.00502577 0)
(-0.0324711 0.00456804 0)
(-0.0356226 0.00393107 0)
(-0.0382188 0.00310391 0)
(-0.0401237 0.00208385 0)
(-0.041208 0.000883687 0)
(-0.0413605 -0.000462609 0)
(-0.0405031 -0.00189551 0)
(-0.0386075 -0.00333063 0)
(-0.0357103 -0.0046631 0)
(-0.0319224 -0.00577684 0)
(-0.0274321 -0.00655856 0)
(-0.0224987 -0.00691486 0)
(-0.0174342 -0.00678965 0)
(-0.0125746 -0.00617846 0)
(-0.00824248 -0.00513668 0)
(-0.00470574 -0.00378104 0)
(-0.00213847 -0.00228657 0)
(-0.000585549 -0.000876841 0)
(6.42581e-05 0.000168435 0)
(9.37851e-05 0.000484755 0)
(-0.000221545 0.000941867 0)
(-0.0016037 0.0034306 0)
(-0.00445924 0.00571986 0)
(-0.00824125 0.00754298 0)
(-0.012702 0.00884961 0)
(-0.01763 0.00967659 0)
(-0.0228238 0.0100898 0)
(-0.0281053 0.0101489 0)
(-0.0333145 0.00989129 0)
(-0.0382985 0.00932913 0)
(-0.0429036 0.00845514 0)
(-0.0469701 0.00725229 0)
(-0.0503319 0.00570594 0)
(-0.0528213 0.00381648 0)
(-0.0542783 0.00161131 0)
(-0.0545649 -0.000845692 0)
(-0.0535812 -0.00344982 0)
(-0.0512853 -0.00605285 0)
(-0.0477119 -0.00847263 0)
(-0.0429847 -0.010508 0)
(-0.0373226 -0.0119618 0)
(-0.0310348 -0.0126697 0)
(-0.0245017 -0.0125302 0)
(-0.0181422 -0.0115304 0)
(-0.0123675 -0.00976178 0)
(-0.00752956 -0.00742326 0)
(-0.00386954 -0.00481261 0)
(-0.00147206 -0.00231051 0)
(-0.000243056 -0.000366848 0)
(5.11086e-05 0.000485066 0)
(-0.000317239 0.00194329 0)
(-0.00214571 0.00598236 0)
(-0.00579939 0.00946132 0)
(-0.0105258 0.012166 0)
(-0.0160095 0.0140865 0)
(-0.0220044 0.0152956 0)
(-0.0282837 0.0158896 0)
(-0.03465 0.0159499 0)
(-0.0409256 0.0155258 0)
(-0.0469395 0.014632 0)
(-0.0525178 0.0132571 0)
(-0.0574783 0.0113771 0)
(-0.0616297 0.00897245 0)
(-0.0647762 0.00604627 0)
(-0.0667271 0.00264089 0)
(-0.0673129 -0.00114867 0)
(-0.0664007 -0.00516854 0)
(-0.0639179 -0.0091991 0)
(-0.0598779 -0.0129701 0)
(-0.054395 -0.0161801 0)
(-0.0476985 -0.0185291 0)
(-0.0401326 -0.0197607 0)
(-0.0321405 -0.0197079 0)
(-0.0242281 -0.0183351 0)
(-0.0169101 -0.0157652 0)
(-0.0106446 -0.0122871 0)
(-0.00576529 -0.00834029 0)
(-0.00241998 -0.00448411 0)
(-0.00054934 -0.00135951 0)
(1.85171e-05 0.000320693 0)
(-0.00039877 0.00322441 0)
(-0.00263011 0.00916345 0)
(-0.00701963 0.0140366 0)
(-0.0126222 0.0177357 0)
(-0.0190557 0.0203288 0)
(-0.026041 0.021948 0)
(-0.0333306 0.0227316 0)
(-0.0407151 0.022788 0)
(-0.0480085 0.0221792 0)
(-0.0550313 0.0209214 0)
(-0.0615987 0.0189963 0)
(-0.067514 0.0163694 0)
(-0.0725656 0.0130123 0)
(-0.0765305 0.00892562 0)
(-0.079183 0.00416183 0)
(-0.0803125 -0.00115659 0)
(-0.0797356 -0.00682813 0)
(-0.077326 -0.0125589 0)
(-0.0730495 -0.0179816 0)
(-0.0669847 -0.0226777 0)
(-0.0593473 -0.0262195 0)
(-0.0505018 -0.0282276 0)
(-0.0409517 -0.0284373 0)
(-0.0313037 -0.0267632 0)
(-0.0222046 -0.0233454 0)
(-0.0142578 -0.0185653 0)
(-0.00793058 -0.0130253 0)
(-0.00346709 -0.00749584 0)
(-0.000860761 -0.0028449 0)
(-3.29343e-06 3.92176e-06 0)
(-0.00046931 0.0047533 0)
(-0.00306118 0.0129153 0)
(-0.00811958 0.0193778 0)
(-0.0145269 0.0241814 0)
(-0.0218405 0.0275069 0)
(-0.0297518 0.0295686 0)
(-0.0379981 0.0305613 0)
(-0.0463652 0.0306269 0)
(-0.054667 0.0298427 0)
(-0.062725 0.028225 0)
(-0.0703526 0.0257452 0)
(-0.0773454 0.0223524 0)
(-0.0834759 0.0180012 0)
(-0.0884935 0.0126798 0)
(-0.0921313 0.00643855 0)
(-0.0941247 -0.000583607 0)
(-0.0942196 -0.0081351 0)
(-0.0922085 -0.0158615 0)
(-0.0879788 -0.0232902 0)
(-0.081539 -0.0298662 0)
(-0.0730614 -0.0350023 0)
(-0.0629092 -0.0381532 0)
(-0.0516404 -0.0389078 0)
(-0.0399774 -0.0370855 0)
(-0.028736 -0.0328134 0)
(-0.0187188 -0.0265613 0)
(-0.0105864 -0.0191183 0)
(-0.00472862 -0.0115133 0)
(-0.00121842 -0.00489886 0)
(-2.06326e-05 -0.000468544 0)
(-0.00053096 0.00650159 0)
(-0.00344297 0.01718 0)
(-0.00910182 0.0254149 0)
(-0.0162404 0.031432 0)
(-0.0243641 0.0355549 0)
(-0.0331414 0.0381031 0)
(-0.0423006 0.0393421 0)
(-0.0516297 0.0394559 0)
(-0.0609517 0.03854 0)
(-0.0700976 0.0366102 0)
(-0.0788881 0.0336227 0)
(-0.0871185 0.0295025 0)
(-0.0945503 0.0241749 0)
(-0.100906 0.0176011 0)
(-0.105872 0.00981279 0)
(-0.109106 0.000947652 0)
(-0.110273 -0.0087165 0)
(-0.109064 -0.018765 0)
(-0.105241 -0.0286182 0)
(-0.0987043 -0.0375672 0)
(-0.0895442 -0.0448289 0)
(-0.0780896 -0.049637 0)
(-0.064935 -0.0513655 0)
(-0.0509248 -0.0496686 0)
(-0.037081 -0.0446064 0)
(-0.0244712 -0.0367168 0)
(-0.0140309 -0.0270007 0)
(-0.0063682 -0.0168103 0)
(-0.00168207 -0.00766837 0)
(-4.23078e-05 -0.00112981 0)
(-0.00058435 0.008443 0)
(-0.00377604 0.0218998 0)
(-0.00996441 0.0320766 0)
(-0.0177565 0.0394147 0)
(-0.0266163 0.0444076 0)
(-0.036196 0.0475005 0)
(-0.0462219 0.0490445 0)
(-0.0564923 0.049275 0)
(-0.0668468 0.0483095 0)
(-0.0771356 0.0461625 0)
(-0.0871951 0.0427701 0)
(-0.0968288 0.0380225 0)
(-0.105792 0.0318011 0)
(-0.113782 0.0240198 0)
(-0.120435 0.0146688 0)
(-0.125331 0.00385941 0)
(-0.128027 -0.00813708 0)
(-0.128081 -0.0208521 0)
(-0.125105 -0.0336048 0)
(-0.118848 -0.0455198 0)
(-0.109269 -0.0555811 0)
(-0.0966132 -0.0627371 0)
(-0.0814724 -0.0660587 0)
(-0.0647981 -0.0649345 0)
(-0.0478426 -0.0592674 0)
(-0.0320085 -0.0496143 0)
(-0.0186099 -0.0372029 0)
(-0.0085804 -0.0237901 0)
(-0.00232307 -0.0113903 0)
(-7.86713e-05 -0.00204889 0)
(-0.000628951 0.0105507 0)
(-0.00405723 0.0270146 0)
(-0.0106988 0.0392869 0)
(-0.0190593 0.0480507 0)
(-0.0285711 0.0539922 0)
(-0.0388775 0.0577019 0)
(-0.0497096 0.0596309 0)
(-0.0608826 0.060075 0)
(-0.0722607 0.0591791 0)
(-0.0837214 0.056956 0)
(-0.0951258 0.053316 0)
(-0.106294 0.0481029 0)
(-0.116982 0.0411363 0)
(-0.126867 0.0322588 0)
(-0.135536 0.0213894 0)
(-0.142491 0.00857997 0)
(-0.147172 -0.00592662 0)
(-0.148986 -0.0216404 0)
(-0.147369 -0.0377955 0)
(-0.141881 -0.053346 0)
(-0.132296 -0.067012 0)
(-0.118709 -0.0773931 0)
(-0.101643 -0.0831545 0)
(-0.0821041 -0.083286 0)
(-0.0615667 -0.0773942 0)
(-0.0418251 -0.0659541 0)
(-0.0246939 -0.0504052 0)
(-0.0115806 -0.0329987 0)
(-0.00322011 -0.0164034 0)
(-0.000140303 -0.00333365 0)
(-0.000663482 0.012795 0)
(-0.00428055 0.0324587 0)
(-0.0112909 0.0469618 0)
(-0.020123 0.0572499 0)
(-0.0301873 0.0642218 0)
(-0.0411241 0.0686299 0)
(-0.0526747 0.0710394 0)
(-0.0646761 0.0718169 0)
(-0.0770234 0.0711397 0)
(-0.0896281 0.0690196 0)
(-0.102384 0.0653356 0)
(-0.115135 0.0598734 0)
(-0.127648 0.0523722 0)
(-0.139588 0.0425779 0)
(-0.150504 0.0303064 0)
(-0.159822 0.0155148 0)
(-0.166873 -0.0016198 0)
(-0.170914 -0.0206147 0)
(-0.1712 -0.040653 0)
(-0.167072 -0.0605301 0)
(-0.158068 -0.0786916 0)
(-0.144059 -0.0933382 0)
(-0.125398 -0.102628 0)
(-0.103045 -0.104993 0)
(-0.0786307 -0.0995455 0)
(-0.0543545 -0.0864973 0)
(-0.0326515 -0.0674182 0)
(-0.0155987 -0.0451284 0)
(-0.00445947 -0.0231574 0)
(-0.000238633 -0.00513502 0)
(-0.000686318 0.0151425 0)
(-0.0044387 0.0381584 0)
(-0.0117234 0.0550058 0)
(-0.0209164 0.0669068 0)
(-0.0314136 0.0749875 0)
(-0.042856 0.0801775 0)
(-0.0549978 0.0831693 0)
(-0.0677009 0.0844104 0)
(-0.0808941 0.0841169 0)
(-0.094527 0.0823008 0)
(-0.108531 0.0788055 0)
(-0.122782 0.0733484 0)
(-0.137067 0.0655705 0)
(-0.151051 0.0550975 0)
(-0.16426 0.0416132 0)
(-0.176071 0.0249466 0)
(-0.185717 0.00517099 0)
(-0.19234 -0.0172919 0)
(-0.195029 -0.0415996 0)
(-0.192903 -0.0664281 0)
(-0.185234 -0.0899704 0)
(-0.171591 -0.110014 0)
(-0.152034 -0.124135 0)
(-0.127323 -0.13004 0)
(-0.0990921 -0.126095 0)
(-0.0698775 -0.11196 0)
(-0.0428125 -0.08913 0)
(-0.0208721 -0.0610057 0)
(-0.00613679 -0.0322184 0)
(-0.000387207 -0.00765133 0)
(-0.000695956 0.0175552 0)
(-0.00452512 0.0440319 0)
(-0.0119805 0.0633112 0)
(-0.0214091 0.0768972 0)
(-0.032197 0.0861537 0)
(-0.0439863 0.0921998 0)
(-0.0565438 0.0958675 0)
(-0.0697555 0.0976953 0)
(-0.0835828 0.0979452 0)
(-0.098014 0.0966317 0)
(-0.11302 0.0935605 0)
(-0.128513 0.0883725 0)
(-0.144307 0.0805978 0)
(-0.160087 0.0697232 0)
(-0.175379 0.0552776 0)
(-0.189541 0.036935 0)
(-0.201768 0.0146307 0)
(-0.211118 -0.0113204 0)
(-0.216563 -0.0400967 0)
(-0.217044 -0.0703167 0)
(-0.211563 -0.0999848 0)
(-0.199337 -0.126518 0)
(-0.180007 -0.146888 0)
(-0.153928 -0.157948 0)
(-0.122498 -0.157034 0)
(-0.0883896 -0.142842 0)
(-0.0554035 -0.116404 0)
(-0.0276298 -0.0815572 0)
(-0.00835856 -0.0442697 0)
(-0.000603356 -0.0111342 0)
(-0.000691571 0.0199921 0)
(-0.0045367 0.0499909 0)
(-0.012054 0.0717592 0)
(-0.0215811 0.0870789 0)
(-0.0324958 0.0975557 0)
(-0.0444381 0.104508 0)
(-0.0571833 0.108919 0)
(-0.0706364 0.111428 0)
(-0.0847869 0.112349 0)
(-0.0996569 0.111704 0)
(-0.115255 0.10926 0)
(-0.13153 0.10458 0)
(-0.148336 0.0970761 0)
(-0.165389 0.0860869 0)
(-0.182249 0.0709748 0)
(-0.1983 0.0512428 0)
(-0.212756 0.0266669 0)
(-0.22467 -0.00257016 0)
(-0.232973 -0.0357458 0)
(-0.236502 -0.0714874 0)
(-0.234042 -0.107723 0)
(-0.224448 -0.141611 0)
(-0.206845 -0.169592 0)
(-0.180978 -0.18762 0)
(-0.147686 -0.191744 0)
(-0.109424 -0.179199 0)
(-0.0704438 -0.149912 0)
(-0.0360582 -0.107735 0)
(-0.0112397 -0.0601006 0)
(-0.000909876 -0.0158951 0)
(-0.000673648 0.0224118 0)
(-0.00447693 0.0559461 0)
(-0.0119499 0.0802256 0)
(-0.0214343 0.0972947 0)
(-0.0322957 0.109001 0)
(-0.0441656 0.11687 0)
(-0.0568203 0.122045 0)
(-0.0701757 0.125275 0)
(-0.0842404 0.126935 0)
(-0.0990622 0.127058 0)
(-0.114681 0.125379 0)
(-0.131085 0.121382 0)
(-0.148168 0.114365 0)
(-0.165702 0.103524 0)
(-0.183309 0.0880573 0)
(-0.200451 0.0672995 0)
(-0.216431 0.0408619 0)
(-0.23039 0.00877123 0)
(-0.241308 -0.0283985 0)
(-0.248026 -0.0693746 0)
(-0.249225 -0.112157 0)
(-0.243448 -0.15383 0)
(-0.229283 -0.190483 0)
(-0.205699 -0.217265 0)
(-0.172643 -0.228804 0)
(-0.131868 -0.220362 0)
(-0.0876001 -0.189888 0)
(-0.046239 -0.140386 0)
(-0.0148943 -0.0805736 0)
(-0.00133627 -0.0223102 0)
(-0.000644681 0.0247767 0)
(-0.00435952 0.0618159 0)
(-0.0116972 0.08859 0)
(-0.0210048 0.107382 0)
(-0.0316273 0.120279 0)
(-0.0431777 0.129016 0)
(-0.0554236 0.134908 0)
(-0.0682818 0.138823 0)
(-0.0817697 0.141203 0)
(-0.0959512 0.142101 0)
(-0.11089 0.141223 0)
(-0.126609 0.137988 0)
(-0.143052 0.131591 0)
(-0.160061 0.121101 0)
(-0.177352 0.105576 0)
(-0.194513 0.0842023 0)
(-0.211004 0.0564401 0)
(-0.226139 0.0221583 0)
(-0.239046 -0.0182456 0)
(-0.248708 -0.0637056 0)
(-0.253836 -0.112446 0)
(-0.252789 -0.161706 0)
(-0.243692 -0.20752 0)
(-0.224688 -0.244493 0)
(-0.194567 -0.265913 0)
(-0.15385 -0.264704 0)
(-0.106031 -0.235828 0)
(-0.0580593 -0.18004 0)
(-0.0194184 -0.106556 0)
(-0.00191999 -0.0308194 0)
(-0.000609981 0.0270602 0)
(-0.00421251 0.0675396 0)
(-0.0113565 0.0967507 0)
(-0.0203774 0.117186 0)
(-0.0305843 0.131168 0)
(-0.0415604 0.140652 0)
(-0.0530554 0.14713 0)
(-0.0649783 0.151599 0)
(-0.0773462 0.154575 0)
(-0.0902307 0.156139 0)
(-0.103713 0.155981 0)
(-0.117849 0.153468 0)
(-0.132639 0.147719 0)
(-0.148008 0.137704 0)
(-0.163798 0.122374 0)
(-0.179758 0.100806 0)
(-0.195556 0.0723437 0)
(-0.210749 0.0367272 0)
(-0.224704 -0.00583233 0)
(-0.236663 -0.0546346 0)
(-0.245512 -0.108161 0)
(-0.249604 -0.164076 0)
(-0.246783 -0.218727 0)
(-0.234468 -0.266618 0)
(-0.2102 -0.300047 0)
(-0.172832 -0.309548 0)
(-0.124293 -0.286202 0)
(-0.0711107 -0.226636 0)
(-0.0248684 -0.138805 0)
(-0.00270874 -0.0419168 0)
(-0.000578742 0.0292558 0)
(-0.00408322 0.0730951 0)
(-0.0110304 0.104644 0)
(-0.0196986 0.126577 0)
(-0.0293398 0.141458 0)
(-0.0394961 0.151476 0)
(-0.0498942 0.158312 0)
(-0.0604318 0.163098 0)
(-0.0711223 0.166434 0)
(-0.082041 0.168437 0)
(-0.0932853 0.168798 0)
(-0.104946 0.166853 0)
(-0.117086 0.161672 0)
(-0.129729 0.152167 0)
(-0.142859 0.137227 0)
(-0.156413 0.115863 0)
(-0.170284 0.0873442 0)
(-0.184308 0.0513034 0)
(-0.198247 0.00777459 0)
(-0.211581 -0.0428309 0)
(-0.223429 -0.0994565 0)
(-0.232434 -0.160384 0)
(-0.236392 -0.222635 0)
(-0.232254 -0.281157 0)
(-0.216444 -0.327884 0)
(-0.185957 -0.351357 0)
(-0.140413 -0.338309 0)
(-0.0846209 -0.27922 0)
(-0.0312416 -0.177804 0)
(-0.00376601 -0.0561343 0)
(-0.00056585 0.0313892 0)
(-0.00404528 0.0785223 0)
(-0.0108756 0.112265 0)
(-0.0191915 0.13547 0)
(-0.0281599 0.150965 0)
(-0.0372755 0.161198 0)
(-0.0462451 0.168057 0)
(-0.0549616 0.172818 0)
(-0.0634402 0.176174 0)
(-0.071765 0.178286 0)
(-0.0800545 0.17886 0)
(-0.0884409 0.177231 0)
(-0.0970594 0.172454 0)
(-0.106045 0.163424 0)
(-0.115533 0.149013 0)
(-0.125662 0.128214 0)
(-0.136565 0.100263 0)
(-0.14836 0.0647128 0)
(-0.16111 0.0214541 0)
(-0.174658 -0.0292899 0)
(-0.188508 -0.0870547 0)
(-0.201624 -0.150839 0)
(-0.212046 -0.218628 0)
(-0.216628 -0.286359 0)
(-0.211052 -0.346422 0)
(-0.1906 -0.386235 0)
(-0.15215 -0.388426 0)
(-0.0974611 -0.335717 0)
(-0.0384689 -0.22356 0)
(-0.00518406 -0.0740253 0)
(-0.000595592 0.0335362 0)
(-0.00421036 0.0839525 0)
(-0.01112 0.119698 0)
(-0.0191717 0.143843 0)
(-0.0274143 0.159545 0)
(-0.0353 0.169555 0)
(-0.0425342 0.175993 0)
(-0.0490253 0.180292 0)
(-0.0548089 0.183239 0)
(-0.0599929 0.185051 0)
(-0.0647291 0.185468 0)
(-0.0692028 0.183844 0)
(-0.0736312 0.179257 0)
(-0.0782668 0.170626 0)
(-0.0834021 0.156848 0)
(-0.0893692 0.136939 0)
(-0.09653 0.110139 0)
(-0.105254 0.0759688 0)
(-0.115871 0.0342108 0)
(-0.128562 -0.0151589 0)
(-0.143213 -0.0721086 0)
(-0.1592 -0.136386 0)
(-0.175018 -0.207096 0)
(-0.187824 -0.281597 0)
(-0.193096 -0.353586 0)
(-0.184895 -0.410601 0)
(-0.157383 -0.432253 0)
(-0.108246 -0.3929 0)
(-0.0464191 -0.275386 0)
(-0.00710697 -0.0961603 0)
(-0.000709814 0.0358504 0)
(-0.00474975 0.0896473 0)
(-0.0120899 0.127142 0)
(-0.0200666 0.151752 0)
(-0.0275816 0.167098 0)
(-0.034072 0.176312 0)
(-0.0392825 0.18178 0)
(-0.0431771 0.185099 0)
(-0.0458443 0.187154 0)
(-0.04744 0.18822 0)
(-0.0481682 0.188081 0)
(-0.0482802 0.186139 0)
(-0.0480828 0.181521 0)
(-0.0479473 0.173206 0)
(-0.048315 0.16015 0)
(-0.0496941 0.141422 0)
(-0.0526442 0.116289 0)
(-0.0577435 0.0842605 0)
(-0.0655391 0.0450348 0)
(-0.076471 -0.0016096 0)
(-0.0907473 -0.055982 0)
(-0.108167 -0.118488 0)
(-0.1278 -0.189314 0)
(-0.147438 -0.26745 0)
(-0.162962 -0.348596 0)
(-0.16797 -0.42181 0)
(-0.154425 -0.465534 0)
(-0.115486 -0.446604 0)
(-0.0548877 -0.331711 0)
(-0.00975766 -0.123144 0)
(-0.000985974 0.0386108 0)
(-0.00593523 0.0960515 0)
(-0.0142509 0.134931 0)
(-0.022438 0.159323 0)
(-0.029244 0.173551 0)
(-0.0341604 0.181245 0)
(-0.0370463 0.185096 0)
(-0.0379838 0.186866 0)
(-0.0371596 0.187523 0)
(-0.0348098 0.1874 0)
(-0.0312105 0.18633 0)
(-0.0266896 0.183774 0)
(-0.0216459 0.178938 0)
(-0.016561 0.170879 0)
(-0.0120047 0.15864 0)
(-0.00863062 0.141354 0)
(-0.00715442 0.118326 0)
(-0.00831375 0.0890567 0)
(-0.0128117 0.053185 0)
(-0.0212618 0.0103429 0)
(-0.034112 -0.040031 0)
(-0.0515249 -0.0988357 0)
(-0.073163 -0.167135 0)
(-0.0976647 -0.245493 0)
(-0.121842 -0.331988 0)
(-0.139735 -0.418484 0)
(-0.142064 -0.484621 0)
(-0.11767 -0.492123 0)
(-0.0635205 -0.389951 0)
(-0.0134436 -0.155642 0)
(-0.00157624 0.0423094 0)
(-0.0082149 0.103862 0)
(-0.0182685 0.143546 0)
(-0.0269936 0.166722 0)
(-0.0330437 0.178808 0)
(-0.0361078 0.184094 0)
(-0.036281 0.185599 0)
(-0.0338498 0.185229 0)
(-0.029155 0.184008 0)
(-0.0225456 0.182303 0)
(-0.0143871 0.179989 0)
(-0.00508553 0.176592 0)
(0.00487528 0.171401 0)
(0.0149228 0.163576 0)
(0.0243909 0.152252 0)
(0.0325193 0.136634 0)
(0.0384892 0.116065 0)
(0.0414643 0.0900373 0)
(0.0406418 0.0581336 0)
(0.035295 0.0198779 0)
(0.024804 -0.0254616 0)
(0.00873212 -0.079081 0)
(-0.0131229 -0.142643 0)
(-0.0403019 -0.217908 0)
(-0.0709076 -0.305336 0)
(-0.100304 -0.400495 0)
(-0.119262 -0.48676 0)
(-0.113158 -0.524599 0)
(-0.0715926 -0.446415 0)
(-0.0184785 -0.194334 0)
(-0.00278837 0.0478183 0)
(-0.0123442 0.114105 0)
(-0.0250683 0.153564 0)
(-0.0345337 0.17404 0)
(-0.0395144 0.18263 0)
(-0.0401626 0.184448 0)
(-0.0369902 0.18283 0)
(-0.0305952 0.179758 0)
(-0.0215309 0.176252 0)
(-0.010287 0.172666 0)
(0.00267521 0.168898 0)
(0.0168758 0.164525 0)
(0.0317735 0.15892 0)
(0.0467415 0.151343 0)
(0.0610571 0.141025 0)
(0.0739097 0.127248 0)
(0.0844309 0.109391 0)
(0.091735 0.0869354 0)
(0.0949635 0.059411 0)
(0.0933156 0.0262613 0)
(0.0860381 -0.0133393 0)
(0.0724653 -0.060709 0)
(0.0519849 -0.117786 0)
(0.024215 -0.187037 0)
(-0.0104063 -0.270838 0)
(-0.0492434 -0.368727 0)
(-0.0846266 -0.470098 0)
(-0.0998168 -0.53917 0)
(-0.0775824 -0.496086 0)
(-0.0249113 -0.239602 0)
(-0.00524135 0.0567136 0)
(-0.0195809 0.128192 0)
(-0.0357973 0.165467 0)
(-0.0456252 0.181016 0)
(-0.0485013 0.184353 0)
(-0.04549 0.181506 0)
(-0.0377654 0.176007 0)
(-0.0263566 0.169776 0)
(-0.0120805 0.163721 0)
(0.00442064 0.158117 0)
(0.0226001 0.152833 0)
(0.0419326 0.147478 0)
(0.0618594 0.141492 0)
(0.0817498 0.134225 0)
(0.100885 0.125002 0)
(0.118464 0.113174 0)
(0.133624 0.0981616 0)
(0.145474 0.0794444 0)
(0.15313 0.0565175 0)
(0.155731 0.0287832 0)
(0.152392 -0.00460548 0)
(0.142251 -0.0449562 0)
(0.124336 -0.0941764 0)
(0.0975793 -0.15498 0)
(0.0611205 -0.230866 0)
(0.0152124 -0.324866 0)
(-0.035687 -0.433679 0)
(-0.0743562 -0.530748 0)
(-0.0785996 -0.532129 0)
(-0.0320033 -0.290989 0)
(-0.0101294 0.0719365 0)
(-0.0318654 0.147789 0)
(-0.0512684 0.179079 0)
(-0.0593089 0.186395 0)
(-0.057301 0.182307 0)
(-0.0479005 0.173575 0)
(-0.0332353 0.163614 0)
(-0.014865 0.154031 0)
(0.00612026 0.145451 0)
(0.0289566 0.137963 0)
(0.0530643 0.13135 0)
(0.0779384 0.125206 0)
(0.103071 0.119017 0)
(0.127899 0.112206 0)
(0.151782 0.104183 0)
(0.173992 0.094375 0)
(0.19373 0.0822511 0)
(0.210145 0.0673141 0)
(0.222349 0.0490642 0)
(0.229429 0.0269203 0)
(0.230343 9.55305e-05 0)
(0.224048 -0.0325942 0)
(0.20924 -0.0728434 0)
(0.184299 -0.123183 0)
(0.147372 -0.187413 0)
(0.0966857 -0.270961 0)
(0.0322021 -0.377775 0)
(-0.0311016 -0.494146 0)
(-0.0699087 -0.545741 0)
(-0.0376358 -0.346927 0)
(-0.0194989 0.0986529 0)
(-0.0513586 0.173504 0)
(-0.0691266 0.191912 0)
(-0.0684944 0.186413 0)
(-0.055077 0.172602 0)
(-0.0338696 0.157202 0)
(-0.00808116 0.142827 0)
(0.0203025 0.130342 0)
(0.0500875 0.119853 0)
(0.0805637 0.111132 0)
(0.111278 0.1038 0)
(0.141883 0.0974006 0)
(0.172039 0.0914389 0)
(0.201357 0.085405 0)
(0.229356 0.0787934 0)
(0.255457 0.0711193 0)
(0.278983 0.0619265 0)
(0.299164 0.0507793 0)
(0.315147 0.037232 0)
(0.325995 0.0207751 0)
(0.330506 0.000744948 0)
(0.327497 -0.0236803 0)
(0.315348 -0.0539302 0)
(0.292029 -0.0921163 0)
(0.254911 -0.141617 0)
(0.200755 -0.208654 0)
(0.126324 -0.302889 0)
(0.0397676 -0.426502 0)
(-0.0440305 -0.527613 0)
(-0.0372087 -0.402871 0)
(-0.0349345 0.142862 0)
(-0.0745434 0.198216 0)
(-0.070805 0.192925 0)
(-0.0449377 0.17031 0)
(-0.00839432 0.146381 0)
(0.032269 0.125669 0)
(0.0737449 0.108825 0)
(0.114495 0.0954283 0)
(0.153878 0.0848458 0)
(0.191707 0.0764634 0)
(0.227981 0.069727 0)
(0.262738 0.0641364 0)
(0.29597 0.059232 0)
(0.327571 0.0545875 0)
(0.357308 0.0498065 0)
(0.384814 0.0445219 0)
(0.40958 0.0383949 0)
(0.43096 0.031106 0)
(0.448177 0.022333 0)
(0.460309 0.0117102 0)
(0.46624 -0.00126249 0)
(0.464669 -0.0170357 0)
(0.453658 -0.036561 0)
(0.431028 -0.0613541 0)
(0.39365 -0.0939265 0)
(0.337673 -0.139653 0)
(0.25669 -0.210035 0)
(0.152544 -0.324464 0)
(0.0151711 -0.465654 0)
(-0.0171909 -0.441614 0)
(-0.0377516 0.235527 0)
(-0.0486351 0.202696 0)
(0.0259326 0.152147 0)
(0.0975645 0.116636 0)
(0.164666 0.0904909 0)
(0.225346 0.0714521 0)
(0.279303 0.057831 0)
(0.327231 0.0480324 0)
(0.370099 0.0408606 0)
(0.408823 0.0355111 0)
(0.44416 0.0314286 0)
(0.476688 0.0282002 0)
(0.506795 0.0254978 0)
(0.534684 0.023049 0)
(0.560377 0.0206206 0)
(0.58372 0.0180088 0)
(0.604395 0.0150346 0)
(0.621923 0.0115354 0)
(0.635677 0.0073637 0)
(0.644805 0.00235809 0)
(0.648449 -0.00360706 0)
(0.645434 -0.0109435 0)
(0.633956 -0.020036 0)
(0.612014 -0.031583 0)
(0.576272 -0.0468872 0)
(0.523097 -0.0693709 0)
(0.442634 -0.107323 0)
(0.333378 -0.18786 0)
(0.143236 -0.335714 0)
(0.0605773 -0.412686 0)
(0.231231 0.158591 0)
(0.29101 0.116849 0)
(0.439896 0.0756401 0)
(0.538186 0.0503477 0)
(0.604856 0.034117 0)
(0.654289 0.0234927 0)
(0.692648 0.0166392 0)
(0.723253 0.0122355 0)
(0.748393 0.00936711 0)
(0.769655 0.00745758 0)
(0.788094 0.00615081 0)
(0.804398 0.00521799 0)
(0.818999 0.00450416 0)
(0.832134 0.00389924 0)
(0.843882 0.00332139 0)
(0.854191 0.00270723 0)
(0.862895 0.00200675 0)
(0.86973 0.00117661 0)
(0.87435 0.000189189 0)
(0.876335 -0.000997723 0)
(0.875125 -0.0023051 0)
(0.869999 -0.00394499 0)
(0.86011 -0.00600313 0)
(0.844477 -0.00861241 0)
(0.820723 -0.0120406 0)
(0.787121 -0.0173437 0)
(0.731961 -0.0267197 0)
(0.655366 -0.0487383 0)
(0.453926 -0.109883 0)
(0.313139 -0.177412 0)
)
;

boundaryField
{
    movingWall
    {
        type            fixedValue;
        value           uniform (1 0 0);
    }
    fixedWalls
    {
        type            noSlip;
    }
    frontAndBack
    {
        type            empty;
    }
}


// ************************************************************************* //
